;
;   File pamam_g5.5np_dglucose.itp  was generated
;   By user: sairam (1000)
;   On host: sairam
;   At date: Thu. January  4 16:13:33 2025
;
;   This is a standalone topology file
;
;   Created by:
;   ParmEd:       amb2gro_top_gro.py, VERSION 3.4.1
;   Executable:   amb2gro_top_gro.py
;   Library dir:  /usr/local/gromacs/share/gromacs/top
;   Command line:
;     ./amb2gro_top_gro.py -p pamam_g5.5np_dglucose.prmtop -c pamam_g5.5np_dglucose.inpcrd -t pamam_g5.5np_dglucose.itp -g pamam_g5.5np_dglucose.gro -b pamam_g5.5np_dglucose.pdb
;

;[ defaults ]
;; nbfunc        comb-rule       gen-pairs       fudgeLJ fudgeQQ
;1               2               yes             0.5          0.83333333  
;
;[ atomtypes ]
;; name    at.num    mass    charge ptype  sigma      epsilon
;c3             6  12.010000  0.00000000  A     0.33996695      0.4577296
;h1             1   1.008000  0.00000000  A      0.2471353      0.0656888
;n3             7  14.010000  0.00000000  A     0.32499985        0.71128
;hc             1   1.008000  0.00000000  A     0.26495328      0.0656888
;c              6  12.010000  0.00000000  A     0.33996695       0.359824
;o              8  16.000000  0.00000000  A     0.29599219        0.87864
;n              7  14.010000  0.00000000  A     0.32499985        0.71128
;hn             1   1.008000  0.00000000  A     0.10690785      0.0656888
;h2             1   1.008000  0.00000000  A     0.22931733      0.0656888
;oh             8  16.000000  0.00000000  A     0.30664734      0.8803136
;ho             1   1.008000  0.00000000  A              0              0
;os             8  16.000000  0.00000000  A     0.30000123        0.71128


[ moleculetype ]
; Name            nrexcl
pamam_g5.5np_dglucose          3

[ atoms ]
;   nr       type  resnr residue  atom   cgnr    charge       mass  typeB    chargeB      massB
; residue    1 aaa rtp aaa q -0.0
    1         c3      1    aaa     C1      1 0.02890000  12.010000   ; qtot 0.028900
    2         h1      1    aaa     H1      2 0.08460000   1.008000   ; qtot 0.113500
    3         h1      1    aaa     H2      3 0.08460000   1.008000   ; qtot 0.198100
    4         c3      1    aaa     C2      4 0.02890000  12.010000   ; qtot 0.227000
    5         h1      1    aaa     H3      5 0.08460000   1.008000   ; qtot 0.311600
    6         h1      1    aaa     H4      6 0.08460000   1.008000   ; qtot 0.396200
    7         n3      1    aaa     N1      7 -0.65770000  14.010000   ; qtot -0.261500
    8         n3      1    aaa     N2      8 -0.65770000  14.010000   ; qtot -0.919200
    9         c3      1    aaa     C3      9 0.36940000  12.010000   ; qtot -0.549800
   10         h1      1    aaa     H5     10 0.00650000   1.008000   ; qtot -0.543300
   11         h1      1    aaa     H6     11 0.00650000   1.008000   ; qtot -0.536800
   12         c3      1    aaa     C4     12 0.36940000  12.010000   ; qtot -0.167400
   13         h1      1    aaa     H7     13 0.00650000   1.008000   ; qtot -0.160900
   14         h1      1    aaa     H8     14 0.00650000   1.008000   ; qtot -0.154400
   15         c3      1    aaa     C5     15 0.36940000  12.010000   ; qtot 0.215000
   16         h1      1    aaa     H9     16 0.00650000   1.008000   ; qtot 0.221500
   17         h1      1    aaa    H10     17 0.00650000   1.008000   ; qtot 0.228000
   18         c3      1    aaa     C6     18 0.36940000  12.010000   ; qtot 0.597400
   19         h1      1    aaa    H11     19 0.00650000   1.008000   ; qtot 0.603900
   20         h1      1    aaa    H12     20 0.00650000   1.008000   ; qtot 0.610400
   21         c3      1    aaa     C7     21 -0.54350000  12.010000   ; qtot 0.066900
   22         hc      1    aaa    H13     22 0.15890000   1.008000   ; qtot 0.225800
   23         hc      1    aaa    H14     23 0.15890000   1.008000   ; qtot 0.384700
   24         c3      1    aaa     C8     24 -0.54350000  12.010000   ; qtot -0.158800
   25         hc      1    aaa    H15     25 0.15890000   1.008000   ; qtot 0.000100
   26         hc      1    aaa    H16     26 0.15890000   1.008000   ; qtot 0.159000
   27         c3      1    aaa     C9     27 -0.54350000  12.010000   ; qtot -0.384500
   28         hc      1    aaa    H17     28 0.15890000   1.008000   ; qtot -0.225600
   29         hc      1    aaa    H18     29 0.15890000   1.008000   ; qtot -0.066700
   30         c3      1    aaa    C10     30 -0.54350000  12.010000   ; qtot -0.610200
   31         hc      1    aaa    H19     31 0.15890000   1.008000   ; qtot -0.451300
   32         hc      1    aaa    H20     32 0.15890000   1.008000   ; qtot -0.292400
   33          c      1    aaa    C11     33 0.67800000  12.010000   ; qtot 0.385600
   34          c      1    aaa    C12     34 0.67800000  12.010000   ; qtot 1.063600
   35          c      1    aaa    C13     35 0.67800000  12.010000   ; qtot 1.741600
   36          c      1    aaa    C14     36 0.67800000  12.010000   ; qtot 2.419600
   37          o      1    aaa     O1     37 -0.60490000  16.000000   ; qtot 1.814700
   38          o      1    aaa     O2     38 -0.60490000  16.000000   ; qtot 1.209800
   39          o      1    aaa     O3     39 -0.60490000  16.000000   ; qtot 0.604900
   40          o      1    aaa     O4     40 -0.60490000  16.000000   ; qtot -0.000000
; residue    2 bbb rtp bbb q -0.0
   41         c3      2    bbb     C1     41 0.44180000  12.010000   ; qtot 0.441800
   42         h1      2    bbb     H1     42 -0.03530000   1.008000   ; qtot 0.406500
   43         h1      2    bbb     H2     43 -0.03530000   1.008000   ; qtot 0.371200
   44         c3      2    bbb     C2     44 -0.28250000  12.010000   ; qtot 0.088700
   45         h1      2    bbb     H3     45 0.15710000   1.008000   ; qtot 0.245800
   46         h1      2    bbb     H4     46 0.15710000   1.008000   ; qtot 0.402900
   47         n3      2    bbb     N1     47 -0.74090000  14.010000   ; qtot -0.338000
   48         c3      2    bbb     C3     48 0.51680000  12.010000   ; qtot 0.178800
   49         h1      2    bbb     H5     49 -0.05230000   1.008000   ; qtot 0.126500
   50         h1      2    bbb     H6     50 -0.05230000   1.008000   ; qtot 0.074200
   51         c3      2    bbb     C4     51 0.51680000  12.010000   ; qtot 0.591000
   52         h1      2    bbb     H7     52 -0.05230000   1.008000   ; qtot 0.538700
   53         h1      2    bbb     H8     53 -0.05230000   1.008000   ; qtot 0.486400
   54         c3      2    bbb     C5     54 -0.60390000  12.010000   ; qtot -0.117500
   55         hc      2    bbb     H9     55 0.16730000   1.008000   ; qtot 0.049800
   56         hc      2    bbb    H10     56 0.16730000   1.008000   ; qtot 0.217100
   57         c3      2    bbb     C6     57 -0.60390000  12.010000   ; qtot -0.386800
   58         hc      2    bbb    H11     58 0.16730000   1.008000   ; qtot -0.219500
   59         hc      2    bbb    H12     59 0.16730000   1.008000   ; qtot -0.052200
   60          c      2    bbb     C7     60 0.72110000  12.010000   ; qtot 0.668900
   61          c      2    bbb     C8     61 0.72110000  12.010000   ; qtot 1.390000
   62          o      2    bbb     O1     62 -0.61950000  16.000000   ; qtot 0.770500
   63          o      2    bbb     O2     63 -0.61950000  16.000000   ; qtot 0.151000
   64          n      2    bbb     N4     64 -0.46580000  14.010000   ; qtot -0.314800
   65         hn      2    bbb    H21     65 0.31480000   1.008000   ; qtot -0.000000
; residue    3 bbb rtp bbb q -0.0
   66         c3      3    bbb     C1     66 0.44180000  12.010000   ; qtot 0.441800
   67         h1      3    bbb     H1     67 -0.03530000   1.008000   ; qtot 0.406500
   68         h1      3    bbb     H2     68 -0.03530000   1.008000   ; qtot 0.371200
   69         c3      3    bbb     C2     69 -0.28250000  12.010000   ; qtot 0.088700
   70         h1      3    bbb     H3     70 0.15710000   1.008000   ; qtot 0.245800
   71         h1      3    bbb     H4     71 0.15710000   1.008000   ; qtot 0.402900
   72         n3      3    bbb     N1     72 -0.74090000  14.010000   ; qtot -0.338000
   73         c3      3    bbb     C3     73 0.51680000  12.010000   ; qtot 0.178800
   74         h1      3    bbb     H5     74 -0.05230000   1.008000   ; qtot 0.126500
   75         h1      3    bbb     H6     75 -0.05230000   1.008000   ; qtot 0.074200
   76         c3      3    bbb     C4     76 0.51680000  12.010000   ; qtot 0.591000
   77         h1      3    bbb     H7     77 -0.05230000   1.008000   ; qtot 0.538700
   78         h1      3    bbb     H8     78 -0.05230000   1.008000   ; qtot 0.486400
   79         c3      3    bbb     C5     79 -0.60390000  12.010000   ; qtot -0.117500
   80         hc      3    bbb     H9     80 0.16730000   1.008000   ; qtot 0.049800
   81         hc      3    bbb    H10     81 0.16730000   1.008000   ; qtot 0.217100
   82         c3      3    bbb     C6     82 -0.60390000  12.010000   ; qtot -0.386800
   83         hc      3    bbb    H11     83 0.16730000   1.008000   ; qtot -0.219500
   84         hc      3    bbb    H12     84 0.16730000   1.008000   ; qtot -0.052200
   85          c      3    bbb     C7     85 0.72110000  12.010000   ; qtot 0.668900
   86          c      3    bbb     C8     86 0.72110000  12.010000   ; qtot 1.390000
   87          o      3    bbb     O1     87 -0.61950000  16.000000   ; qtot 0.770500
   88          o      3    bbb     O2     88 -0.61950000  16.000000   ; qtot 0.151000
   89          n      3    bbb     N4     89 -0.46580000  14.010000   ; qtot -0.314800
   90         hn      3    bbb    H21     90 0.31480000   1.008000   ; qtot -0.000000
; residue    4 bbb rtp bbb q -0.0
   91         c3      4    bbb     C1     91 0.44180000  12.010000   ; qtot 0.441800
   92         h1      4    bbb     H1     92 -0.03530000   1.008000   ; qtot 0.406500
   93         h1      4    bbb     H2     93 -0.03530000   1.008000   ; qtot 0.371200
   94         c3      4    bbb     C2     94 -0.28250000  12.010000   ; qtot 0.088700
   95         h1      4    bbb     H3     95 0.15710000   1.008000   ; qtot 0.245800
   96         h1      4    bbb     H4     96 0.15710000   1.008000   ; qtot 0.402900
   97         n3      4    bbb     N1     97 -0.74090000  14.010000   ; qtot -0.338000
   98         c3      4    bbb     C3     98 0.51680000  12.010000   ; qtot 0.178800
   99         h1      4    bbb     H5     99 -0.05230000   1.008000   ; qtot 0.126500
  100         h1      4    bbb     H6    100 -0.05230000   1.008000   ; qtot 0.074200
  101         c3      4    bbb     C4    101 0.51680000  12.010000   ; qtot 0.591000
  102         h1      4    bbb     H7    102 -0.05230000   1.008000   ; qtot 0.538700
  103         h1      4    bbb     H8    103 -0.05230000   1.008000   ; qtot 0.486400
  104         c3      4    bbb     C5    104 -0.60390000  12.010000   ; qtot -0.117500
  105         hc      4    bbb     H9    105 0.16730000   1.008000   ; qtot 0.049800
  106         hc      4    bbb    H10    106 0.16730000   1.008000   ; qtot 0.217100
  107         c3      4    bbb     C6    107 -0.60390000  12.010000   ; qtot -0.386800
  108         hc      4    bbb    H11    108 0.16730000   1.008000   ; qtot -0.219500
  109         hc      4    bbb    H12    109 0.16730000   1.008000   ; qtot -0.052200
  110          c      4    bbb     C7    110 0.72110000  12.010000   ; qtot 0.668900
  111          c      4    bbb     C8    111 0.72110000  12.010000   ; qtot 1.390000
  112          o      4    bbb     O1    112 -0.61950000  16.000000   ; qtot 0.770500
  113          o      4    bbb     O2    113 -0.61950000  16.000000   ; qtot 0.151000
  114          n      4    bbb     N4    114 -0.46580000  14.010000   ; qtot -0.314800
  115         hn      4    bbb    H21    115 0.31480000   1.008000   ; qtot -0.000000
; residue    5 bbb rtp bbb q -0.0
  116         c3      5    bbb     C1    116 0.44180000  12.010000   ; qtot 0.441800
  117         h1      5    bbb     H1    117 -0.03530000   1.008000   ; qtot 0.406500
  118         h1      5    bbb     H2    118 -0.03530000   1.008000   ; qtot 0.371200
  119         c3      5    bbb     C2    119 -0.28250000  12.010000   ; qtot 0.088700
  120         h1      5    bbb     H3    120 0.15710000   1.008000   ; qtot 0.245800
  121         h1      5    bbb     H4    121 0.15710000   1.008000   ; qtot 0.402900
  122         n3      5    bbb     N1    122 -0.74090000  14.010000   ; qtot -0.338000
  123         c3      5    bbb     C3    123 0.51680000  12.010000   ; qtot 0.178800
  124         h1      5    bbb     H5    124 -0.05230000   1.008000   ; qtot 0.126500
  125         h1      5    bbb     H6    125 -0.05230000   1.008000   ; qtot 0.074200
  126         c3      5    bbb     C4    126 0.51680000  12.010000   ; qtot 0.591000
  127         h1      5    bbb     H7    127 -0.05230000   1.008000   ; qtot 0.538700
  128         h1      5    bbb     H8    128 -0.05230000   1.008000   ; qtot 0.486400
  129         c3      5    bbb     C5    129 -0.60390000  12.010000   ; qtot -0.117500
  130         hc      5    bbb     H9    130 0.16730000   1.008000   ; qtot 0.049800
  131         hc      5    bbb    H10    131 0.16730000   1.008000   ; qtot 0.217100
  132         c3      5    bbb     C6    132 -0.60390000  12.010000   ; qtot -0.386800
  133         hc      5    bbb    H11    133 0.16730000   1.008000   ; qtot -0.219500
  134         hc      5    bbb    H12    134 0.16730000   1.008000   ; qtot -0.052200
  135          c      5    bbb     C7    135 0.72110000  12.010000   ; qtot 0.668900
  136          c      5    bbb     C8    136 0.72110000  12.010000   ; qtot 1.390000
  137          o      5    bbb     O1    137 -0.61950000  16.000000   ; qtot 0.770500
  138          o      5    bbb     O2    138 -0.61950000  16.000000   ; qtot 0.151000
  139          n      5    bbb     N4    139 -0.46580000  14.010000   ; qtot -0.314800
  140         hn      5    bbb    H21    140 0.31480000   1.008000   ; qtot -0.000000
; residue    6 bbb rtp bbb q -0.0
  141         c3      6    bbb     C1    141 0.44180000  12.010000   ; qtot 0.441800
  142         h1      6    bbb     H1    142 -0.03530000   1.008000   ; qtot 0.406500
  143         h1      6    bbb     H2    143 -0.03530000   1.008000   ; qtot 0.371200
  144         c3      6    bbb     C2    144 -0.28250000  12.010000   ; qtot 0.088700
  145         h1      6    bbb     H3    145 0.15710000   1.008000   ; qtot 0.245800
  146         h1      6    bbb     H4    146 0.15710000   1.008000   ; qtot 0.402900
  147         n3      6    bbb     N1    147 -0.74090000  14.010000   ; qtot -0.338000
  148         c3      6    bbb     C3    148 0.51680000  12.010000   ; qtot 0.178800
  149         h1      6    bbb     H5    149 -0.05230000   1.008000   ; qtot 0.126500
  150         h1      6    bbb     H6    150 -0.05230000   1.008000   ; qtot 0.074200
  151         c3      6    bbb     C4    151 0.51680000  12.010000   ; qtot 0.591000
  152         h1      6    bbb     H7    152 -0.05230000   1.008000   ; qtot 0.538700
  153         h1      6    bbb     H8    153 -0.05230000   1.008000   ; qtot 0.486400
  154         c3      6    bbb     C5    154 -0.60390000  12.010000   ; qtot -0.117500
  155         hc      6    bbb     H9    155 0.16730000   1.008000   ; qtot 0.049800
  156         hc      6    bbb    H10    156 0.16730000   1.008000   ; qtot 0.217100
  157         c3      6    bbb     C6    157 -0.60390000  12.010000   ; qtot -0.386800
  158         hc      6    bbb    H11    158 0.16730000   1.008000   ; qtot -0.219500
  159         hc      6    bbb    H12    159 0.16730000   1.008000   ; qtot -0.052200
  160          c      6    bbb     C7    160 0.72110000  12.010000   ; qtot 0.668900
  161          c      6    bbb     C8    161 0.72110000  12.010000   ; qtot 1.390000
  162          o      6    bbb     O1    162 -0.61950000  16.000000   ; qtot 0.770500
  163          o      6    bbb     O2    163 -0.61950000  16.000000   ; qtot 0.151000
  164          n      6    bbb     N4    164 -0.46580000  14.010000   ; qtot -0.314800
  165         hn      6    bbb    H21    165 0.31480000   1.008000   ; qtot -0.000000
; residue    7 bbb rtp bbb q -0.0
  166         c3      7    bbb     C1    166 0.44180000  12.010000   ; qtot 0.441800
  167         h1      7    bbb     H1    167 -0.03530000   1.008000   ; qtot 0.406500
  168         h1      7    bbb     H2    168 -0.03530000   1.008000   ; qtot 0.371200
  169         c3      7    bbb     C2    169 -0.28250000  12.010000   ; qtot 0.088700
  170         h1      7    bbb     H3    170 0.15710000   1.008000   ; qtot 0.245800
  171         h1      7    bbb     H4    171 0.15710000   1.008000   ; qtot 0.402900
  172         n3      7    bbb     N1    172 -0.74090000  14.010000   ; qtot -0.338000
  173         c3      7    bbb     C3    173 0.51680000  12.010000   ; qtot 0.178800
  174         h1      7    bbb     H5    174 -0.05230000   1.008000   ; qtot 0.126500
  175         h1      7    bbb     H6    175 -0.05230000   1.008000   ; qtot 0.074200
  176         c3      7    bbb     C4    176 0.51680000  12.010000   ; qtot 0.591000
  177         h1      7    bbb     H7    177 -0.05230000   1.008000   ; qtot 0.538700
  178         h1      7    bbb     H8    178 -0.05230000   1.008000   ; qtot 0.486400
  179         c3      7    bbb     C5    179 -0.60390000  12.010000   ; qtot -0.117500
  180         hc      7    bbb     H9    180 0.16730000   1.008000   ; qtot 0.049800
  181         hc      7    bbb    H10    181 0.16730000   1.008000   ; qtot 0.217100
  182         c3      7    bbb     C6    182 -0.60390000  12.010000   ; qtot -0.386800
  183         hc      7    bbb    H11    183 0.16730000   1.008000   ; qtot -0.219500
  184         hc      7    bbb    H12    184 0.16730000   1.008000   ; qtot -0.052200
  185          c      7    bbb     C7    185 0.72110000  12.010000   ; qtot 0.668900
  186          c      7    bbb     C8    186 0.72110000  12.010000   ; qtot 1.390000
  187          o      7    bbb     O1    187 -0.61950000  16.000000   ; qtot 0.770500
  188          o      7    bbb     O2    188 -0.61950000  16.000000   ; qtot 0.151000
  189          n      7    bbb     N4    189 -0.46580000  14.010000   ; qtot -0.314800
  190         hn      7    bbb    H21    190 0.31480000   1.008000   ; qtot -0.000000
; residue    8 bbb rtp bbb q -0.0
  191         c3      8    bbb     C1    191 0.44180000  12.010000   ; qtot 0.441800
  192         h1      8    bbb     H1    192 -0.03530000   1.008000   ; qtot 0.406500
  193         h1      8    bbb     H2    193 -0.03530000   1.008000   ; qtot 0.371200
  194         c3      8    bbb     C2    194 -0.28250000  12.010000   ; qtot 0.088700
  195         h1      8    bbb     H3    195 0.15710000   1.008000   ; qtot 0.245800
  196         h1      8    bbb     H4    196 0.15710000   1.008000   ; qtot 0.402900
  197         n3      8    bbb     N1    197 -0.74090000  14.010000   ; qtot -0.338000
  198         c3      8    bbb     C3    198 0.51680000  12.010000   ; qtot 0.178800
  199         h1      8    bbb     H5    199 -0.05230000   1.008000   ; qtot 0.126500
  200         h1      8    bbb     H6    200 -0.05230000   1.008000   ; qtot 0.074200
  201         c3      8    bbb     C4    201 0.51680000  12.010000   ; qtot 0.591000
  202         h1      8    bbb     H7    202 -0.05230000   1.008000   ; qtot 0.538700
  203         h1      8    bbb     H8    203 -0.05230000   1.008000   ; qtot 0.486400
  204         c3      8    bbb     C5    204 -0.60390000  12.010000   ; qtot -0.117500
  205         hc      8    bbb     H9    205 0.16730000   1.008000   ; qtot 0.049800
  206         hc      8    bbb    H10    206 0.16730000   1.008000   ; qtot 0.217100
  207         c3      8    bbb     C6    207 -0.60390000  12.010000   ; qtot -0.386800
  208         hc      8    bbb    H11    208 0.16730000   1.008000   ; qtot -0.219500
  209         hc      8    bbb    H12    209 0.16730000   1.008000   ; qtot -0.052200
  210          c      8    bbb     C7    210 0.72110000  12.010000   ; qtot 0.668900
  211          c      8    bbb     C8    211 0.72110000  12.010000   ; qtot 1.390000
  212          o      8    bbb     O1    212 -0.61950000  16.000000   ; qtot 0.770500
  213          o      8    bbb     O2    213 -0.61950000  16.000000   ; qtot 0.151000
  214          n      8    bbb     N4    214 -0.46580000  14.010000   ; qtot -0.314800
  215         hn      8    bbb    H21    215 0.31480000   1.008000   ; qtot -0.000000
; residue    9 bbb rtp bbb q -0.0
  216         c3      9    bbb     C1    216 0.44180000  12.010000   ; qtot 0.441800
  217         h1      9    bbb     H1    217 -0.03530000   1.008000   ; qtot 0.406500
  218         h1      9    bbb     H2    218 -0.03530000   1.008000   ; qtot 0.371200
  219         c3      9    bbb     C2    219 -0.28250000  12.010000   ; qtot 0.088700
  220         h1      9    bbb     H3    220 0.15710000   1.008000   ; qtot 0.245800
  221         h1      9    bbb     H4    221 0.15710000   1.008000   ; qtot 0.402900
  222         n3      9    bbb     N1    222 -0.74090000  14.010000   ; qtot -0.338000
  223         c3      9    bbb     C3    223 0.51680000  12.010000   ; qtot 0.178800
  224         h1      9    bbb     H5    224 -0.05230000   1.008000   ; qtot 0.126500
  225         h1      9    bbb     H6    225 -0.05230000   1.008000   ; qtot 0.074200
  226         c3      9    bbb     C4    226 0.51680000  12.010000   ; qtot 0.591000
  227         h1      9    bbb     H7    227 -0.05230000   1.008000   ; qtot 0.538700
  228         h1      9    bbb     H8    228 -0.05230000   1.008000   ; qtot 0.486400
  229         c3      9    bbb     C5    229 -0.60390000  12.010000   ; qtot -0.117500
  230         hc      9    bbb     H9    230 0.16730000   1.008000   ; qtot 0.049800
  231         hc      9    bbb    H10    231 0.16730000   1.008000   ; qtot 0.217100
  232         c3      9    bbb     C6    232 -0.60390000  12.010000   ; qtot -0.386800
  233         hc      9    bbb    H11    233 0.16730000   1.008000   ; qtot -0.219500
  234         hc      9    bbb    H12    234 0.16730000   1.008000   ; qtot -0.052200
  235          c      9    bbb     C7    235 0.72110000  12.010000   ; qtot 0.668900
  236          c      9    bbb     C8    236 0.72110000  12.010000   ; qtot 1.390000
  237          o      9    bbb     O1    237 -0.61950000  16.000000   ; qtot 0.770500
  238          o      9    bbb     O2    238 -0.61950000  16.000000   ; qtot 0.151000
  239          n      9    bbb     N4    239 -0.46580000  14.010000   ; qtot -0.314800
  240         hn      9    bbb    H21    240 0.31480000   1.008000   ; qtot -0.000000
; residue   10 bbb rtp bbb q -0.0
  241         c3     10    bbb     C1    241 0.44180000  12.010000   ; qtot 0.441800
  242         h1     10    bbb     H1    242 -0.03530000   1.008000   ; qtot 0.406500
  243         h1     10    bbb     H2    243 -0.03530000   1.008000   ; qtot 0.371200
  244         c3     10    bbb     C2    244 -0.28250000  12.010000   ; qtot 0.088700
  245         h1     10    bbb     H3    245 0.15710000   1.008000   ; qtot 0.245800
  246         h1     10    bbb     H4    246 0.15710000   1.008000   ; qtot 0.402900
  247         n3     10    bbb     N1    247 -0.74090000  14.010000   ; qtot -0.338000
  248         c3     10    bbb     C3    248 0.51680000  12.010000   ; qtot 0.178800
  249         h1     10    bbb     H5    249 -0.05230000   1.008000   ; qtot 0.126500
  250         h1     10    bbb     H6    250 -0.05230000   1.008000   ; qtot 0.074200
  251         c3     10    bbb     C4    251 0.51680000  12.010000   ; qtot 0.591000
  252         h1     10    bbb     H7    252 -0.05230000   1.008000   ; qtot 0.538700
  253         h1     10    bbb     H8    253 -0.05230000   1.008000   ; qtot 0.486400
  254         c3     10    bbb     C5    254 -0.60390000  12.010000   ; qtot -0.117500
  255         hc     10    bbb     H9    255 0.16730000   1.008000   ; qtot 0.049800
  256         hc     10    bbb    H10    256 0.16730000   1.008000   ; qtot 0.217100
  257         c3     10    bbb     C6    257 -0.60390000  12.010000   ; qtot -0.386800
  258         hc     10    bbb    H11    258 0.16730000   1.008000   ; qtot -0.219500
  259         hc     10    bbb    H12    259 0.16730000   1.008000   ; qtot -0.052200
  260          c     10    bbb     C7    260 0.72110000  12.010000   ; qtot 0.668900
  261          c     10    bbb     C8    261 0.72110000  12.010000   ; qtot 1.390000
  262          o     10    bbb     O1    262 -0.61950000  16.000000   ; qtot 0.770500
  263          o     10    bbb     O2    263 -0.61950000  16.000000   ; qtot 0.151000
  264          n     10    bbb     N4    264 -0.46580000  14.010000   ; qtot -0.314800
  265         hn     10    bbb    H21    265 0.31480000   1.008000   ; qtot -0.000000
; residue   11 bbb rtp bbb q -0.0
  266         c3     11    bbb     C1    266 0.44180000  12.010000   ; qtot 0.441800
  267         h1     11    bbb     H1    267 -0.03530000   1.008000   ; qtot 0.406500
  268         h1     11    bbb     H2    268 -0.03530000   1.008000   ; qtot 0.371200
  269         c3     11    bbb     C2    269 -0.28250000  12.010000   ; qtot 0.088700
  270         h1     11    bbb     H3    270 0.15710000   1.008000   ; qtot 0.245800
  271         h1     11    bbb     H4    271 0.15710000   1.008000   ; qtot 0.402900
  272         n3     11    bbb     N1    272 -0.74090000  14.010000   ; qtot -0.338000
  273         c3     11    bbb     C3    273 0.51680000  12.010000   ; qtot 0.178800
  274         h1     11    bbb     H5    274 -0.05230000   1.008000   ; qtot 0.126500
  275         h1     11    bbb     H6    275 -0.05230000   1.008000   ; qtot 0.074200
  276         c3     11    bbb     C4    276 0.51680000  12.010000   ; qtot 0.591000
  277         h1     11    bbb     H7    277 -0.05230000   1.008000   ; qtot 0.538700
  278         h1     11    bbb     H8    278 -0.05230000   1.008000   ; qtot 0.486400
  279         c3     11    bbb     C5    279 -0.60390000  12.010000   ; qtot -0.117500
  280         hc     11    bbb     H9    280 0.16730000   1.008000   ; qtot 0.049800
  281         hc     11    bbb    H10    281 0.16730000   1.008000   ; qtot 0.217100
  282         c3     11    bbb     C6    282 -0.60390000  12.010000   ; qtot -0.386800
  283         hc     11    bbb    H11    283 0.16730000   1.008000   ; qtot -0.219500
  284         hc     11    bbb    H12    284 0.16730000   1.008000   ; qtot -0.052200
  285          c     11    bbb     C7    285 0.72110000  12.010000   ; qtot 0.668900
  286          c     11    bbb     C8    286 0.72110000  12.010000   ; qtot 1.390000
  287          o     11    bbb     O1    287 -0.61950000  16.000000   ; qtot 0.770500
  288          o     11    bbb     O2    288 -0.61950000  16.000000   ; qtot 0.151000
  289          n     11    bbb     N4    289 -0.46580000  14.010000   ; qtot -0.314800
  290         hn     11    bbb    H21    290 0.31480000   1.008000   ; qtot -0.000000
; residue   12 bbb rtp bbb q -0.0
  291         c3     12    bbb     C1    291 0.44180000  12.010000   ; qtot 0.441800
  292         h1     12    bbb     H1    292 -0.03530000   1.008000   ; qtot 0.406500
  293         h1     12    bbb     H2    293 -0.03530000   1.008000   ; qtot 0.371200
  294         c3     12    bbb     C2    294 -0.28250000  12.010000   ; qtot 0.088700
  295         h1     12    bbb     H3    295 0.15710000   1.008000   ; qtot 0.245800
  296         h1     12    bbb     H4    296 0.15710000   1.008000   ; qtot 0.402900
  297         n3     12    bbb     N1    297 -0.74090000  14.010000   ; qtot -0.338000
  298         c3     12    bbb     C3    298 0.51680000  12.010000   ; qtot 0.178800
  299         h1     12    bbb     H5    299 -0.05230000   1.008000   ; qtot 0.126500
  300         h1     12    bbb     H6    300 -0.05230000   1.008000   ; qtot 0.074200
  301         c3     12    bbb     C4    301 0.51680000  12.010000   ; qtot 0.591000
  302         h1     12    bbb     H7    302 -0.05230000   1.008000   ; qtot 0.538700
  303         h1     12    bbb     H8    303 -0.05230000   1.008000   ; qtot 0.486400
  304         c3     12    bbb     C5    304 -0.60390000  12.010000   ; qtot -0.117500
  305         hc     12    bbb     H9    305 0.16730000   1.008000   ; qtot 0.049800
  306         hc     12    bbb    H10    306 0.16730000   1.008000   ; qtot 0.217100
  307         c3     12    bbb     C6    307 -0.60390000  12.010000   ; qtot -0.386800
  308         hc     12    bbb    H11    308 0.16730000   1.008000   ; qtot -0.219500
  309         hc     12    bbb    H12    309 0.16730000   1.008000   ; qtot -0.052200
  310          c     12    bbb     C7    310 0.72110000  12.010000   ; qtot 0.668900
  311          c     12    bbb     C8    311 0.72110000  12.010000   ; qtot 1.390000
  312          o     12    bbb     O1    312 -0.61950000  16.000000   ; qtot 0.770500
  313          o     12    bbb     O2    313 -0.61950000  16.000000   ; qtot 0.151000
  314          n     12    bbb     N4    314 -0.46580000  14.010000   ; qtot -0.314800
  315         hn     12    bbb    H21    315 0.31480000   1.008000   ; qtot -0.000000
; residue   13 bbb rtp bbb q -0.0
  316         c3     13    bbb     C1    316 0.44180000  12.010000   ; qtot 0.441800
  317         h1     13    bbb     H1    317 -0.03530000   1.008000   ; qtot 0.406500
  318         h1     13    bbb     H2    318 -0.03530000   1.008000   ; qtot 0.371200
  319         c3     13    bbb     C2    319 -0.28250000  12.010000   ; qtot 0.088700
  320         h1     13    bbb     H3    320 0.15710000   1.008000   ; qtot 0.245800
  321         h1     13    bbb     H4    321 0.15710000   1.008000   ; qtot 0.402900
  322         n3     13    bbb     N1    322 -0.74090000  14.010000   ; qtot -0.338000
  323         c3     13    bbb     C3    323 0.51680000  12.010000   ; qtot 0.178800
  324         h1     13    bbb     H5    324 -0.05230000   1.008000   ; qtot 0.126500
  325         h1     13    bbb     H6    325 -0.05230000   1.008000   ; qtot 0.074200
  326         c3     13    bbb     C4    326 0.51680000  12.010000   ; qtot 0.591000
  327         h1     13    bbb     H7    327 -0.05230000   1.008000   ; qtot 0.538700
  328         h1     13    bbb     H8    328 -0.05230000   1.008000   ; qtot 0.486400
  329         c3     13    bbb     C5    329 -0.60390000  12.010000   ; qtot -0.117500
  330         hc     13    bbb     H9    330 0.16730000   1.008000   ; qtot 0.049800
  331         hc     13    bbb    H10    331 0.16730000   1.008000   ; qtot 0.217100
  332         c3     13    bbb     C6    332 -0.60390000  12.010000   ; qtot -0.386800
  333         hc     13    bbb    H11    333 0.16730000   1.008000   ; qtot -0.219500
  334         hc     13    bbb    H12    334 0.16730000   1.008000   ; qtot -0.052200
  335          c     13    bbb     C7    335 0.72110000  12.010000   ; qtot 0.668900
  336          c     13    bbb     C8    336 0.72110000  12.010000   ; qtot 1.390000
  337          o     13    bbb     O1    337 -0.61950000  16.000000   ; qtot 0.770500
  338          o     13    bbb     O2    338 -0.61950000  16.000000   ; qtot 0.151000
  339          n     13    bbb     N4    339 -0.46580000  14.010000   ; qtot -0.314800
  340         hn     13    bbb    H21    340 0.31480000   1.008000   ; qtot -0.000000
; residue   14 bbb rtp bbb q -0.0
  341         c3     14    bbb     C1    341 0.44180000  12.010000   ; qtot 0.441800
  342         h1     14    bbb     H1    342 -0.03530000   1.008000   ; qtot 0.406500
  343         h1     14    bbb     H2    343 -0.03530000   1.008000   ; qtot 0.371200
  344         c3     14    bbb     C2    344 -0.28250000  12.010000   ; qtot 0.088700
  345         h1     14    bbb     H3    345 0.15710000   1.008000   ; qtot 0.245800
  346         h1     14    bbb     H4    346 0.15710000   1.008000   ; qtot 0.402900
  347         n3     14    bbb     N1    347 -0.74090000  14.010000   ; qtot -0.338000
  348         c3     14    bbb     C3    348 0.51680000  12.010000   ; qtot 0.178800
  349         h1     14    bbb     H5    349 -0.05230000   1.008000   ; qtot 0.126500
  350         h1     14    bbb     H6    350 -0.05230000   1.008000   ; qtot 0.074200
  351         c3     14    bbb     C4    351 0.51680000  12.010000   ; qtot 0.591000
  352         h1     14    bbb     H7    352 -0.05230000   1.008000   ; qtot 0.538700
  353         h1     14    bbb     H8    353 -0.05230000   1.008000   ; qtot 0.486400
  354         c3     14    bbb     C5    354 -0.60390000  12.010000   ; qtot -0.117500
  355         hc     14    bbb     H9    355 0.16730000   1.008000   ; qtot 0.049800
  356         hc     14    bbb    H10    356 0.16730000   1.008000   ; qtot 0.217100
  357         c3     14    bbb     C6    357 -0.60390000  12.010000   ; qtot -0.386800
  358         hc     14    bbb    H11    358 0.16730000   1.008000   ; qtot -0.219500
  359         hc     14    bbb    H12    359 0.16730000   1.008000   ; qtot -0.052200
  360          c     14    bbb     C7    360 0.72110000  12.010000   ; qtot 0.668900
  361          c     14    bbb     C8    361 0.72110000  12.010000   ; qtot 1.390000
  362          o     14    bbb     O1    362 -0.61950000  16.000000   ; qtot 0.770500
  363          o     14    bbb     O2    363 -0.61950000  16.000000   ; qtot 0.151000
  364          n     14    bbb     N4    364 -0.46580000  14.010000   ; qtot -0.314800
  365         hn     14    bbb    H21    365 0.31480000   1.008000   ; qtot -0.000000
; residue   15 bbb rtp bbb q -0.0
  366         c3     15    bbb     C1    366 0.44180000  12.010000   ; qtot 0.441800
  367         h1     15    bbb     H1    367 -0.03530000   1.008000   ; qtot 0.406500
  368         h1     15    bbb     H2    368 -0.03530000   1.008000   ; qtot 0.371200
  369         c3     15    bbb     C2    369 -0.28250000  12.010000   ; qtot 0.088700
  370         h1     15    bbb     H3    370 0.15710000   1.008000   ; qtot 0.245800
  371         h1     15    bbb     H4    371 0.15710000   1.008000   ; qtot 0.402900
  372         n3     15    bbb     N1    372 -0.74090000  14.010000   ; qtot -0.338000
  373         c3     15    bbb     C3    373 0.51680000  12.010000   ; qtot 0.178800
  374         h1     15    bbb     H5    374 -0.05230000   1.008000   ; qtot 0.126500
  375         h1     15    bbb     H6    375 -0.05230000   1.008000   ; qtot 0.074200
  376         c3     15    bbb     C4    376 0.51680000  12.010000   ; qtot 0.591000
  377         h1     15    bbb     H7    377 -0.05230000   1.008000   ; qtot 0.538700
  378         h1     15    bbb     H8    378 -0.05230000   1.008000   ; qtot 0.486400
  379         c3     15    bbb     C5    379 -0.60390000  12.010000   ; qtot -0.117500
  380         hc     15    bbb     H9    380 0.16730000   1.008000   ; qtot 0.049800
  381         hc     15    bbb    H10    381 0.16730000   1.008000   ; qtot 0.217100
  382         c3     15    bbb     C6    382 -0.60390000  12.010000   ; qtot -0.386800
  383         hc     15    bbb    H11    383 0.16730000   1.008000   ; qtot -0.219500
  384         hc     15    bbb    H12    384 0.16730000   1.008000   ; qtot -0.052200
  385          c     15    bbb     C7    385 0.72110000  12.010000   ; qtot 0.668900
  386          c     15    bbb     C8    386 0.72110000  12.010000   ; qtot 1.390000
  387          o     15    bbb     O1    387 -0.61950000  16.000000   ; qtot 0.770500
  388          o     15    bbb     O2    388 -0.61950000  16.000000   ; qtot 0.151000
  389          n     15    bbb     N4    389 -0.46580000  14.010000   ; qtot -0.314800
  390         hn     15    bbb    H21    390 0.31480000   1.008000   ; qtot -0.000000
; residue   16 bbb rtp bbb q -0.0
  391         c3     16    bbb     C1    391 0.44180000  12.010000   ; qtot 0.441800
  392         h1     16    bbb     H1    392 -0.03530000   1.008000   ; qtot 0.406500
  393         h1     16    bbb     H2    393 -0.03530000   1.008000   ; qtot 0.371200
  394         c3     16    bbb     C2    394 -0.28250000  12.010000   ; qtot 0.088700
  395         h1     16    bbb     H3    395 0.15710000   1.008000   ; qtot 0.245800
  396         h1     16    bbb     H4    396 0.15710000   1.008000   ; qtot 0.402900
  397         n3     16    bbb     N1    397 -0.74090000  14.010000   ; qtot -0.338000
  398         c3     16    bbb     C3    398 0.51680000  12.010000   ; qtot 0.178800
  399         h1     16    bbb     H5    399 -0.05230000   1.008000   ; qtot 0.126500
  400         h1     16    bbb     H6    400 -0.05230000   1.008000   ; qtot 0.074200
  401         c3     16    bbb     C4    401 0.51680000  12.010000   ; qtot 0.591000
  402         h1     16    bbb     H7    402 -0.05230000   1.008000   ; qtot 0.538700
  403         h1     16    bbb     H8    403 -0.05230000   1.008000   ; qtot 0.486400
  404         c3     16    bbb     C5    404 -0.60390000  12.010000   ; qtot -0.117500
  405         hc     16    bbb     H9    405 0.16730000   1.008000   ; qtot 0.049800
  406         hc     16    bbb    H10    406 0.16730000   1.008000   ; qtot 0.217100
  407         c3     16    bbb     C6    407 -0.60390000  12.010000   ; qtot -0.386800
  408         hc     16    bbb    H11    408 0.16730000   1.008000   ; qtot -0.219500
  409         hc     16    bbb    H12    409 0.16730000   1.008000   ; qtot -0.052200
  410          c     16    bbb     C7    410 0.72110000  12.010000   ; qtot 0.668900
  411          c     16    bbb     C8    411 0.72110000  12.010000   ; qtot 1.390000
  412          o     16    bbb     O1    412 -0.61950000  16.000000   ; qtot 0.770500
  413          o     16    bbb     O2    413 -0.61950000  16.000000   ; qtot 0.151000
  414          n     16    bbb     N4    414 -0.46580000  14.010000   ; qtot -0.314800
  415         hn     16    bbb    H21    415 0.31480000   1.008000   ; qtot -0.000000
; residue   17 bbb rtp bbb q -0.0
  416         c3     17    bbb     C1    416 0.44180000  12.010000   ; qtot 0.441800
  417         h1     17    bbb     H1    417 -0.03530000   1.008000   ; qtot 0.406500
  418         h1     17    bbb     H2    418 -0.03530000   1.008000   ; qtot 0.371200
  419         c3     17    bbb     C2    419 -0.28250000  12.010000   ; qtot 0.088700
  420         h1     17    bbb     H3    420 0.15710000   1.008000   ; qtot 0.245800
  421         h1     17    bbb     H4    421 0.15710000   1.008000   ; qtot 0.402900
  422         n3     17    bbb     N1    422 -0.74090000  14.010000   ; qtot -0.338000
  423         c3     17    bbb     C3    423 0.51680000  12.010000   ; qtot 0.178800
  424         h1     17    bbb     H5    424 -0.05230000   1.008000   ; qtot 0.126500
  425         h1     17    bbb     H6    425 -0.05230000   1.008000   ; qtot 0.074200
  426         c3     17    bbb     C4    426 0.51680000  12.010000   ; qtot 0.591000
  427         h1     17    bbb     H7    427 -0.05230000   1.008000   ; qtot 0.538700
  428         h1     17    bbb     H8    428 -0.05230000   1.008000   ; qtot 0.486400
  429         c3     17    bbb     C5    429 -0.60390000  12.010000   ; qtot -0.117500
  430         hc     17    bbb     H9    430 0.16730000   1.008000   ; qtot 0.049800
  431         hc     17    bbb    H10    431 0.16730000   1.008000   ; qtot 0.217100
  432         c3     17    bbb     C6    432 -0.60390000  12.010000   ; qtot -0.386800
  433         hc     17    bbb    H11    433 0.16730000   1.008000   ; qtot -0.219500
  434         hc     17    bbb    H12    434 0.16730000   1.008000   ; qtot -0.052200
  435          c     17    bbb     C7    435 0.72110000  12.010000   ; qtot 0.668900
  436          c     17    bbb     C8    436 0.72110000  12.010000   ; qtot 1.390000
  437          o     17    bbb     O1    437 -0.61950000  16.000000   ; qtot 0.770500
  438          o     17    bbb     O2    438 -0.61950000  16.000000   ; qtot 0.151000
  439          n     17    bbb     N4    439 -0.46580000  14.010000   ; qtot -0.314800
  440         hn     17    bbb    H21    440 0.31480000   1.008000   ; qtot -0.000000
; residue   18 bbb rtp bbb q -0.0
  441         c3     18    bbb     C1    441 0.44180000  12.010000   ; qtot 0.441800
  442         h1     18    bbb     H1    442 -0.03530000   1.008000   ; qtot 0.406500
  443         h1     18    bbb     H2    443 -0.03530000   1.008000   ; qtot 0.371200
  444         c3     18    bbb     C2    444 -0.28250000  12.010000   ; qtot 0.088700
  445         h1     18    bbb     H3    445 0.15710000   1.008000   ; qtot 0.245800
  446         h1     18    bbb     H4    446 0.15710000   1.008000   ; qtot 0.402900
  447         n3     18    bbb     N1    447 -0.74090000  14.010000   ; qtot -0.338000
  448         c3     18    bbb     C3    448 0.51680000  12.010000   ; qtot 0.178800
  449         h1     18    bbb     H5    449 -0.05230000   1.008000   ; qtot 0.126500
  450         h1     18    bbb     H6    450 -0.05230000   1.008000   ; qtot 0.074200
  451         c3     18    bbb     C4    451 0.51680000  12.010000   ; qtot 0.591000
  452         h1     18    bbb     H7    452 -0.05230000   1.008000   ; qtot 0.538700
  453         h1     18    bbb     H8    453 -0.05230000   1.008000   ; qtot 0.486400
  454         c3     18    bbb     C5    454 -0.60390000  12.010000   ; qtot -0.117500
  455         hc     18    bbb     H9    455 0.16730000   1.008000   ; qtot 0.049800
  456         hc     18    bbb    H10    456 0.16730000   1.008000   ; qtot 0.217100
  457         c3     18    bbb     C6    457 -0.60390000  12.010000   ; qtot -0.386800
  458         hc     18    bbb    H11    458 0.16730000   1.008000   ; qtot -0.219500
  459         hc     18    bbb    H12    459 0.16730000   1.008000   ; qtot -0.052200
  460          c     18    bbb     C7    460 0.72110000  12.010000   ; qtot 0.668900
  461          c     18    bbb     C8    461 0.72110000  12.010000   ; qtot 1.390000
  462          o     18    bbb     O1    462 -0.61950000  16.000000   ; qtot 0.770500
  463          o     18    bbb     O2    463 -0.61950000  16.000000   ; qtot 0.151000
  464          n     18    bbb     N4    464 -0.46580000  14.010000   ; qtot -0.314800
  465         hn     18    bbb    H21    465 0.31480000   1.008000   ; qtot -0.000000
; residue   19 bbb rtp bbb q -0.0
  466         c3     19    bbb     C1    466 0.44180000  12.010000   ; qtot 0.441800
  467         h1     19    bbb     H1    467 -0.03530000   1.008000   ; qtot 0.406500
  468         h1     19    bbb     H2    468 -0.03530000   1.008000   ; qtot 0.371200
  469         c3     19    bbb     C2    469 -0.28250000  12.010000   ; qtot 0.088700
  470         h1     19    bbb     H3    470 0.15710000   1.008000   ; qtot 0.245800
  471         h1     19    bbb     H4    471 0.15710000   1.008000   ; qtot 0.402900
  472         n3     19    bbb     N1    472 -0.74090000  14.010000   ; qtot -0.338000
  473         c3     19    bbb     C3    473 0.51680000  12.010000   ; qtot 0.178800
  474         h1     19    bbb     H5    474 -0.05230000   1.008000   ; qtot 0.126500
  475         h1     19    bbb     H6    475 -0.05230000   1.008000   ; qtot 0.074200
  476         c3     19    bbb     C4    476 0.51680000  12.010000   ; qtot 0.591000
  477         h1     19    bbb     H7    477 -0.05230000   1.008000   ; qtot 0.538700
  478         h1     19    bbb     H8    478 -0.05230000   1.008000   ; qtot 0.486400
  479         c3     19    bbb     C5    479 -0.60390000  12.010000   ; qtot -0.117500
  480         hc     19    bbb     H9    480 0.16730000   1.008000   ; qtot 0.049800
  481         hc     19    bbb    H10    481 0.16730000   1.008000   ; qtot 0.217100
  482         c3     19    bbb     C6    482 -0.60390000  12.010000   ; qtot -0.386800
  483         hc     19    bbb    H11    483 0.16730000   1.008000   ; qtot -0.219500
  484         hc     19    bbb    H12    484 0.16730000   1.008000   ; qtot -0.052200
  485          c     19    bbb     C7    485 0.72110000  12.010000   ; qtot 0.668900
  486          c     19    bbb     C8    486 0.72110000  12.010000   ; qtot 1.390000
  487          o     19    bbb     O1    487 -0.61950000  16.000000   ; qtot 0.770500
  488          o     19    bbb     O2    488 -0.61950000  16.000000   ; qtot 0.151000
  489          n     19    bbb     N4    489 -0.46580000  14.010000   ; qtot -0.314800
  490         hn     19    bbb    H21    490 0.31480000   1.008000   ; qtot -0.000000
; residue   20 bbb rtp bbb q -0.0
  491         c3     20    bbb     C1    491 0.44180000  12.010000   ; qtot 0.441800
  492         h1     20    bbb     H1    492 -0.03530000   1.008000   ; qtot 0.406500
  493         h1     20    bbb     H2    493 -0.03530000   1.008000   ; qtot 0.371200
  494         c3     20    bbb     C2    494 -0.28250000  12.010000   ; qtot 0.088700
  495         h1     20    bbb     H3    495 0.15710000   1.008000   ; qtot 0.245800
  496         h1     20    bbb     H4    496 0.15710000   1.008000   ; qtot 0.402900
  497         n3     20    bbb     N1    497 -0.74090000  14.010000   ; qtot -0.338000
  498         c3     20    bbb     C3    498 0.51680000  12.010000   ; qtot 0.178800
  499         h1     20    bbb     H5    499 -0.05230000   1.008000   ; qtot 0.126500
  500         h1     20    bbb     H6    500 -0.05230000   1.008000   ; qtot 0.074200
  501         c3     20    bbb     C4    501 0.51680000  12.010000   ; qtot 0.591000
  502         h1     20    bbb     H7    502 -0.05230000   1.008000   ; qtot 0.538700
  503         h1     20    bbb     H8    503 -0.05230000   1.008000   ; qtot 0.486400
  504         c3     20    bbb     C5    504 -0.60390000  12.010000   ; qtot -0.117500
  505         hc     20    bbb     H9    505 0.16730000   1.008000   ; qtot 0.049800
  506         hc     20    bbb    H10    506 0.16730000   1.008000   ; qtot 0.217100
  507         c3     20    bbb     C6    507 -0.60390000  12.010000   ; qtot -0.386800
  508         hc     20    bbb    H11    508 0.16730000   1.008000   ; qtot -0.219500
  509         hc     20    bbb    H12    509 0.16730000   1.008000   ; qtot -0.052200
  510          c     20    bbb     C7    510 0.72110000  12.010000   ; qtot 0.668900
  511          c     20    bbb     C8    511 0.72110000  12.010000   ; qtot 1.390000
  512          o     20    bbb     O1    512 -0.61950000  16.000000   ; qtot 0.770500
  513          o     20    bbb     O2    513 -0.61950000  16.000000   ; qtot 0.151000
  514          n     20    bbb     N4    514 -0.46580000  14.010000   ; qtot -0.314800
  515         hn     20    bbb    H21    515 0.31480000   1.008000   ; qtot -0.000000
; residue   21 bbb rtp bbb q -0.0
  516         c3     21    bbb     C1    516 0.44180000  12.010000   ; qtot 0.441800
  517         h1     21    bbb     H1    517 -0.03530000   1.008000   ; qtot 0.406500
  518         h1     21    bbb     H2    518 -0.03530000   1.008000   ; qtot 0.371200
  519         c3     21    bbb     C2    519 -0.28250000  12.010000   ; qtot 0.088700
  520         h1     21    bbb     H3    520 0.15710000   1.008000   ; qtot 0.245800
  521         h1     21    bbb     H4    521 0.15710000   1.008000   ; qtot 0.402900
  522         n3     21    bbb     N1    522 -0.74090000  14.010000   ; qtot -0.338000
  523         c3     21    bbb     C3    523 0.51680000  12.010000   ; qtot 0.178800
  524         h1     21    bbb     H5    524 -0.05230000   1.008000   ; qtot 0.126500
  525         h1     21    bbb     H6    525 -0.05230000   1.008000   ; qtot 0.074200
  526         c3     21    bbb     C4    526 0.51680000  12.010000   ; qtot 0.591000
  527         h1     21    bbb     H7    527 -0.05230000   1.008000   ; qtot 0.538700
  528         h1     21    bbb     H8    528 -0.05230000   1.008000   ; qtot 0.486400
  529         c3     21    bbb     C5    529 -0.60390000  12.010000   ; qtot -0.117500
  530         hc     21    bbb     H9    530 0.16730000   1.008000   ; qtot 0.049800
  531         hc     21    bbb    H10    531 0.16730000   1.008000   ; qtot 0.217100
  532         c3     21    bbb     C6    532 -0.60390000  12.010000   ; qtot -0.386800
  533         hc     21    bbb    H11    533 0.16730000   1.008000   ; qtot -0.219500
  534         hc     21    bbb    H12    534 0.16730000   1.008000   ; qtot -0.052200
  535          c     21    bbb     C7    535 0.72110000  12.010000   ; qtot 0.668900
  536          c     21    bbb     C8    536 0.72110000  12.010000   ; qtot 1.390000
  537          o     21    bbb     O1    537 -0.61950000  16.000000   ; qtot 0.770500
  538          o     21    bbb     O2    538 -0.61950000  16.000000   ; qtot 0.151000
  539          n     21    bbb     N4    539 -0.46580000  14.010000   ; qtot -0.314800
  540         hn     21    bbb    H21    540 0.31480000   1.008000   ; qtot -0.000000
; residue   22 bbb rtp bbb q -0.0
  541         c3     22    bbb     C1    541 0.44180000  12.010000   ; qtot 0.441800
  542         h1     22    bbb     H1    542 -0.03530000   1.008000   ; qtot 0.406500
  543         h1     22    bbb     H2    543 -0.03530000   1.008000   ; qtot 0.371200
  544         c3     22    bbb     C2    544 -0.28250000  12.010000   ; qtot 0.088700
  545         h1     22    bbb     H3    545 0.15710000   1.008000   ; qtot 0.245800
  546         h1     22    bbb     H4    546 0.15710000   1.008000   ; qtot 0.402900
  547         n3     22    bbb     N1    547 -0.74090000  14.010000   ; qtot -0.338000
  548         c3     22    bbb     C3    548 0.51680000  12.010000   ; qtot 0.178800
  549         h1     22    bbb     H5    549 -0.05230000   1.008000   ; qtot 0.126500
  550         h1     22    bbb     H6    550 -0.05230000   1.008000   ; qtot 0.074200
  551         c3     22    bbb     C4    551 0.51680000  12.010000   ; qtot 0.591000
  552         h1     22    bbb     H7    552 -0.05230000   1.008000   ; qtot 0.538700
  553         h1     22    bbb     H8    553 -0.05230000   1.008000   ; qtot 0.486400
  554         c3     22    bbb     C5    554 -0.60390000  12.010000   ; qtot -0.117500
  555         hc     22    bbb     H9    555 0.16730000   1.008000   ; qtot 0.049800
  556         hc     22    bbb    H10    556 0.16730000   1.008000   ; qtot 0.217100
  557         c3     22    bbb     C6    557 -0.60390000  12.010000   ; qtot -0.386800
  558         hc     22    bbb    H11    558 0.16730000   1.008000   ; qtot -0.219500
  559         hc     22    bbb    H12    559 0.16730000   1.008000   ; qtot -0.052200
  560          c     22    bbb     C7    560 0.72110000  12.010000   ; qtot 0.668900
  561          c     22    bbb     C8    561 0.72110000  12.010000   ; qtot 1.390000
  562          o     22    bbb     O1    562 -0.61950000  16.000000   ; qtot 0.770500
  563          o     22    bbb     O2    563 -0.61950000  16.000000   ; qtot 0.151000
  564          n     22    bbb     N4    564 -0.46580000  14.010000   ; qtot -0.314800
  565         hn     22    bbb    H21    565 0.31480000   1.008000   ; qtot -0.000000
; residue   23 bbb rtp bbb q -0.0
  566         c3     23    bbb     C1    566 0.44180000  12.010000   ; qtot 0.441800
  567         h1     23    bbb     H1    567 -0.03530000   1.008000   ; qtot 0.406500
  568         h1     23    bbb     H2    568 -0.03530000   1.008000   ; qtot 0.371200
  569         c3     23    bbb     C2    569 -0.28250000  12.010000   ; qtot 0.088700
  570         h1     23    bbb     H3    570 0.15710000   1.008000   ; qtot 0.245800
  571         h1     23    bbb     H4    571 0.15710000   1.008000   ; qtot 0.402900
  572         n3     23    bbb     N1    572 -0.74090000  14.010000   ; qtot -0.338000
  573         c3     23    bbb     C3    573 0.51680000  12.010000   ; qtot 0.178800
  574         h1     23    bbb     H5    574 -0.05230000   1.008000   ; qtot 0.126500
  575         h1     23    bbb     H6    575 -0.05230000   1.008000   ; qtot 0.074200
  576         c3     23    bbb     C4    576 0.51680000  12.010000   ; qtot 0.591000
  577         h1     23    bbb     H7    577 -0.05230000   1.008000   ; qtot 0.538700
  578         h1     23    bbb     H8    578 -0.05230000   1.008000   ; qtot 0.486400
  579         c3     23    bbb     C5    579 -0.60390000  12.010000   ; qtot -0.117500
  580         hc     23    bbb     H9    580 0.16730000   1.008000   ; qtot 0.049800
  581         hc     23    bbb    H10    581 0.16730000   1.008000   ; qtot 0.217100
  582         c3     23    bbb     C6    582 -0.60390000  12.010000   ; qtot -0.386800
  583         hc     23    bbb    H11    583 0.16730000   1.008000   ; qtot -0.219500
  584         hc     23    bbb    H12    584 0.16730000   1.008000   ; qtot -0.052200
  585          c     23    bbb     C7    585 0.72110000  12.010000   ; qtot 0.668900
  586          c     23    bbb     C8    586 0.72110000  12.010000   ; qtot 1.390000
  587          o     23    bbb     O1    587 -0.61950000  16.000000   ; qtot 0.770500
  588          o     23    bbb     O2    588 -0.61950000  16.000000   ; qtot 0.151000
  589          n     23    bbb     N4    589 -0.46580000  14.010000   ; qtot -0.314800
  590         hn     23    bbb    H21    590 0.31480000   1.008000   ; qtot -0.000000
; residue   24 bbb rtp bbb q -0.0
  591         c3     24    bbb     C1    591 0.44180000  12.010000   ; qtot 0.441800
  592         h1     24    bbb     H1    592 -0.03530000   1.008000   ; qtot 0.406500
  593         h1     24    bbb     H2    593 -0.03530000   1.008000   ; qtot 0.371200
  594         c3     24    bbb     C2    594 -0.28250000  12.010000   ; qtot 0.088700
  595         h1     24    bbb     H3    595 0.15710000   1.008000   ; qtot 0.245800
  596         h1     24    bbb     H4    596 0.15710000   1.008000   ; qtot 0.402900
  597         n3     24    bbb     N1    597 -0.74090000  14.010000   ; qtot -0.338000
  598         c3     24    bbb     C3    598 0.51680000  12.010000   ; qtot 0.178800
  599         h1     24    bbb     H5    599 -0.05230000   1.008000   ; qtot 0.126500
  600         h1     24    bbb     H6    600 -0.05230000   1.008000   ; qtot 0.074200
  601         c3     24    bbb     C4    601 0.51680000  12.010000   ; qtot 0.591000
  602         h1     24    bbb     H7    602 -0.05230000   1.008000   ; qtot 0.538700
  603         h1     24    bbb     H8    603 -0.05230000   1.008000   ; qtot 0.486400
  604         c3     24    bbb     C5    604 -0.60390000  12.010000   ; qtot -0.117500
  605         hc     24    bbb     H9    605 0.16730000   1.008000   ; qtot 0.049800
  606         hc     24    bbb    H10    606 0.16730000   1.008000   ; qtot 0.217100
  607         c3     24    bbb     C6    607 -0.60390000  12.010000   ; qtot -0.386800
  608         hc     24    bbb    H11    608 0.16730000   1.008000   ; qtot -0.219500
  609         hc     24    bbb    H12    609 0.16730000   1.008000   ; qtot -0.052200
  610          c     24    bbb     C7    610 0.72110000  12.010000   ; qtot 0.668900
  611          c     24    bbb     C8    611 0.72110000  12.010000   ; qtot 1.390000
  612          o     24    bbb     O1    612 -0.61950000  16.000000   ; qtot 0.770500
  613          o     24    bbb     O2    613 -0.61950000  16.000000   ; qtot 0.151000
  614          n     24    bbb     N4    614 -0.46580000  14.010000   ; qtot -0.314800
  615         hn     24    bbb    H21    615 0.31480000   1.008000   ; qtot -0.000000
; residue   25 bbb rtp bbb q -0.0
  616         c3     25    bbb     C1    616 0.44180000  12.010000   ; qtot 0.441800
  617         h1     25    bbb     H1    617 -0.03530000   1.008000   ; qtot 0.406500
  618         h1     25    bbb     H2    618 -0.03530000   1.008000   ; qtot 0.371200
  619         c3     25    bbb     C2    619 -0.28250000  12.010000   ; qtot 0.088700
  620         h1     25    bbb     H3    620 0.15710000   1.008000   ; qtot 0.245800
  621         h1     25    bbb     H4    621 0.15710000   1.008000   ; qtot 0.402900
  622         n3     25    bbb     N1    622 -0.74090000  14.010000   ; qtot -0.338000
  623         c3     25    bbb     C3    623 0.51680000  12.010000   ; qtot 0.178800
  624         h1     25    bbb     H5    624 -0.05230000   1.008000   ; qtot 0.126500
  625         h1     25    bbb     H6    625 -0.05230000   1.008000   ; qtot 0.074200
  626         c3     25    bbb     C4    626 0.51680000  12.010000   ; qtot 0.591000
  627         h1     25    bbb     H7    627 -0.05230000   1.008000   ; qtot 0.538700
  628         h1     25    bbb     H8    628 -0.05230000   1.008000   ; qtot 0.486400
  629         c3     25    bbb     C5    629 -0.60390000  12.010000   ; qtot -0.117500
  630         hc     25    bbb     H9    630 0.16730000   1.008000   ; qtot 0.049800
  631         hc     25    bbb    H10    631 0.16730000   1.008000   ; qtot 0.217100
  632         c3     25    bbb     C6    632 -0.60390000  12.010000   ; qtot -0.386800
  633         hc     25    bbb    H11    633 0.16730000   1.008000   ; qtot -0.219500
  634         hc     25    bbb    H12    634 0.16730000   1.008000   ; qtot -0.052200
  635          c     25    bbb     C7    635 0.72110000  12.010000   ; qtot 0.668900
  636          c     25    bbb     C8    636 0.72110000  12.010000   ; qtot 1.390000
  637          o     25    bbb     O1    637 -0.61950000  16.000000   ; qtot 0.770500
  638          o     25    bbb     O2    638 -0.61950000  16.000000   ; qtot 0.151000
  639          n     25    bbb     N4    639 -0.46580000  14.010000   ; qtot -0.314800
  640         hn     25    bbb    H21    640 0.31480000   1.008000   ; qtot -0.000000
; residue   26 bbb rtp bbb q -0.0
  641         c3     26    bbb     C1    641 0.44180000  12.010000   ; qtot 0.441800
  642         h1     26    bbb     H1    642 -0.03530000   1.008000   ; qtot 0.406500
  643         h1     26    bbb     H2    643 -0.03530000   1.008000   ; qtot 0.371200
  644         c3     26    bbb     C2    644 -0.28250000  12.010000   ; qtot 0.088700
  645         h1     26    bbb     H3    645 0.15710000   1.008000   ; qtot 0.245800
  646         h1     26    bbb     H4    646 0.15710000   1.008000   ; qtot 0.402900
  647         n3     26    bbb     N1    647 -0.74090000  14.010000   ; qtot -0.338000
  648         c3     26    bbb     C3    648 0.51680000  12.010000   ; qtot 0.178800
  649         h1     26    bbb     H5    649 -0.05230000   1.008000   ; qtot 0.126500
  650         h1     26    bbb     H6    650 -0.05230000   1.008000   ; qtot 0.074200
  651         c3     26    bbb     C4    651 0.51680000  12.010000   ; qtot 0.591000
  652         h1     26    bbb     H7    652 -0.05230000   1.008000   ; qtot 0.538700
  653         h1     26    bbb     H8    653 -0.05230000   1.008000   ; qtot 0.486400
  654         c3     26    bbb     C5    654 -0.60390000  12.010000   ; qtot -0.117500
  655         hc     26    bbb     H9    655 0.16730000   1.008000   ; qtot 0.049800
  656         hc     26    bbb    H10    656 0.16730000   1.008000   ; qtot 0.217100
  657         c3     26    bbb     C6    657 -0.60390000  12.010000   ; qtot -0.386800
  658         hc     26    bbb    H11    658 0.16730000   1.008000   ; qtot -0.219500
  659         hc     26    bbb    H12    659 0.16730000   1.008000   ; qtot -0.052200
  660          c     26    bbb     C7    660 0.72110000  12.010000   ; qtot 0.668900
  661          c     26    bbb     C8    661 0.72110000  12.010000   ; qtot 1.390000
  662          o     26    bbb     O1    662 -0.61950000  16.000000   ; qtot 0.770500
  663          o     26    bbb     O2    663 -0.61950000  16.000000   ; qtot 0.151000
  664          n     26    bbb     N4    664 -0.46580000  14.010000   ; qtot -0.314800
  665         hn     26    bbb    H21    665 0.31480000   1.008000   ; qtot -0.000000
; residue   27 bbb rtp bbb q -0.0
  666         c3     27    bbb     C1    666 0.44180000  12.010000   ; qtot 0.441800
  667         h1     27    bbb     H1    667 -0.03530000   1.008000   ; qtot 0.406500
  668         h1     27    bbb     H2    668 -0.03530000   1.008000   ; qtot 0.371200
  669         c3     27    bbb     C2    669 -0.28250000  12.010000   ; qtot 0.088700
  670         h1     27    bbb     H3    670 0.15710000   1.008000   ; qtot 0.245800
  671         h1     27    bbb     H4    671 0.15710000   1.008000   ; qtot 0.402900
  672         n3     27    bbb     N1    672 -0.74090000  14.010000   ; qtot -0.338000
  673         c3     27    bbb     C3    673 0.51680000  12.010000   ; qtot 0.178800
  674         h1     27    bbb     H5    674 -0.05230000   1.008000   ; qtot 0.126500
  675         h1     27    bbb     H6    675 -0.05230000   1.008000   ; qtot 0.074200
  676         c3     27    bbb     C4    676 0.51680000  12.010000   ; qtot 0.591000
  677         h1     27    bbb     H7    677 -0.05230000   1.008000   ; qtot 0.538700
  678         h1     27    bbb     H8    678 -0.05230000   1.008000   ; qtot 0.486400
  679         c3     27    bbb     C5    679 -0.60390000  12.010000   ; qtot -0.117500
  680         hc     27    bbb     H9    680 0.16730000   1.008000   ; qtot 0.049800
  681         hc     27    bbb    H10    681 0.16730000   1.008000   ; qtot 0.217100
  682         c3     27    bbb     C6    682 -0.60390000  12.010000   ; qtot -0.386800
  683         hc     27    bbb    H11    683 0.16730000   1.008000   ; qtot -0.219500
  684         hc     27    bbb    H12    684 0.16730000   1.008000   ; qtot -0.052200
  685          c     27    bbb     C7    685 0.72110000  12.010000   ; qtot 0.668900
  686          c     27    bbb     C8    686 0.72110000  12.010000   ; qtot 1.390000
  687          o     27    bbb     O1    687 -0.61950000  16.000000   ; qtot 0.770500
  688          o     27    bbb     O2    688 -0.61950000  16.000000   ; qtot 0.151000
  689          n     27    bbb     N4    689 -0.46580000  14.010000   ; qtot -0.314800
  690         hn     27    bbb    H21    690 0.31480000   1.008000   ; qtot -0.000000
; residue   28 bbb rtp bbb q -0.0
  691         c3     28    bbb     C1    691 0.44180000  12.010000   ; qtot 0.441800
  692         h1     28    bbb     H1    692 -0.03530000   1.008000   ; qtot 0.406500
  693         h1     28    bbb     H2    693 -0.03530000   1.008000   ; qtot 0.371200
  694         c3     28    bbb     C2    694 -0.28250000  12.010000   ; qtot 0.088700
  695         h1     28    bbb     H3    695 0.15710000   1.008000   ; qtot 0.245800
  696         h1     28    bbb     H4    696 0.15710000   1.008000   ; qtot 0.402900
  697         n3     28    bbb     N1    697 -0.74090000  14.010000   ; qtot -0.338000
  698         c3     28    bbb     C3    698 0.51680000  12.010000   ; qtot 0.178800
  699         h1     28    bbb     H5    699 -0.05230000   1.008000   ; qtot 0.126500
  700         h1     28    bbb     H6    700 -0.05230000   1.008000   ; qtot 0.074200
  701         c3     28    bbb     C4    701 0.51680000  12.010000   ; qtot 0.591000
  702         h1     28    bbb     H7    702 -0.05230000   1.008000   ; qtot 0.538700
  703         h1     28    bbb     H8    703 -0.05230000   1.008000   ; qtot 0.486400
  704         c3     28    bbb     C5    704 -0.60390000  12.010000   ; qtot -0.117500
  705         hc     28    bbb     H9    705 0.16730000   1.008000   ; qtot 0.049800
  706         hc     28    bbb    H10    706 0.16730000   1.008000   ; qtot 0.217100
  707         c3     28    bbb     C6    707 -0.60390000  12.010000   ; qtot -0.386800
  708         hc     28    bbb    H11    708 0.16730000   1.008000   ; qtot -0.219500
  709         hc     28    bbb    H12    709 0.16730000   1.008000   ; qtot -0.052200
  710          c     28    bbb     C7    710 0.72110000  12.010000   ; qtot 0.668900
  711          c     28    bbb     C8    711 0.72110000  12.010000   ; qtot 1.390000
  712          o     28    bbb     O1    712 -0.61950000  16.000000   ; qtot 0.770500
  713          o     28    bbb     O2    713 -0.61950000  16.000000   ; qtot 0.151000
  714          n     28    bbb     N4    714 -0.46580000  14.010000   ; qtot -0.314800
  715         hn     28    bbb    H21    715 0.31480000   1.008000   ; qtot -0.000000
; residue   29 bbb rtp bbb q -0.0
  716         c3     29    bbb     C1    716 0.44180000  12.010000   ; qtot 0.441800
  717         h1     29    bbb     H1    717 -0.03530000   1.008000   ; qtot 0.406500
  718         h1     29    bbb     H2    718 -0.03530000   1.008000   ; qtot 0.371200
  719         c3     29    bbb     C2    719 -0.28250000  12.010000   ; qtot 0.088700
  720         h1     29    bbb     H3    720 0.15710000   1.008000   ; qtot 0.245800
  721         h1     29    bbb     H4    721 0.15710000   1.008000   ; qtot 0.402900
  722         n3     29    bbb     N1    722 -0.74090000  14.010000   ; qtot -0.338000
  723         c3     29    bbb     C3    723 0.51680000  12.010000   ; qtot 0.178800
  724         h1     29    bbb     H5    724 -0.05230000   1.008000   ; qtot 0.126500
  725         h1     29    bbb     H6    725 -0.05230000   1.008000   ; qtot 0.074200
  726         c3     29    bbb     C4    726 0.51680000  12.010000   ; qtot 0.591000
  727         h1     29    bbb     H7    727 -0.05230000   1.008000   ; qtot 0.538700
  728         h1     29    bbb     H8    728 -0.05230000   1.008000   ; qtot 0.486400
  729         c3     29    bbb     C5    729 -0.60390000  12.010000   ; qtot -0.117500
  730         hc     29    bbb     H9    730 0.16730000   1.008000   ; qtot 0.049800
  731         hc     29    bbb    H10    731 0.16730000   1.008000   ; qtot 0.217100
  732         c3     29    bbb     C6    732 -0.60390000  12.010000   ; qtot -0.386800
  733         hc     29    bbb    H11    733 0.16730000   1.008000   ; qtot -0.219500
  734         hc     29    bbb    H12    734 0.16730000   1.008000   ; qtot -0.052200
  735          c     29    bbb     C7    735 0.72110000  12.010000   ; qtot 0.668900
  736          c     29    bbb     C8    736 0.72110000  12.010000   ; qtot 1.390000
  737          o     29    bbb     O1    737 -0.61950000  16.000000   ; qtot 0.770500
  738          o     29    bbb     O2    738 -0.61950000  16.000000   ; qtot 0.151000
  739          n     29    bbb     N4    739 -0.46580000  14.010000   ; qtot -0.314800
  740         hn     29    bbb    H21    740 0.31480000   1.008000   ; qtot -0.000000
; residue   30 bbb rtp bbb q -0.0
  741         c3     30    bbb     C1    741 0.44180000  12.010000   ; qtot 0.441800
  742         h1     30    bbb     H1    742 -0.03530000   1.008000   ; qtot 0.406500
  743         h1     30    bbb     H2    743 -0.03530000   1.008000   ; qtot 0.371200
  744         c3     30    bbb     C2    744 -0.28250000  12.010000   ; qtot 0.088700
  745         h1     30    bbb     H3    745 0.15710000   1.008000   ; qtot 0.245800
  746         h1     30    bbb     H4    746 0.15710000   1.008000   ; qtot 0.402900
  747         n3     30    bbb     N1    747 -0.74090000  14.010000   ; qtot -0.338000
  748         c3     30    bbb     C3    748 0.51680000  12.010000   ; qtot 0.178800
  749         h1     30    bbb     H5    749 -0.05230000   1.008000   ; qtot 0.126500
  750         h1     30    bbb     H6    750 -0.05230000   1.008000   ; qtot 0.074200
  751         c3     30    bbb     C4    751 0.51680000  12.010000   ; qtot 0.591000
  752         h1     30    bbb     H7    752 -0.05230000   1.008000   ; qtot 0.538700
  753         h1     30    bbb     H8    753 -0.05230000   1.008000   ; qtot 0.486400
  754         c3     30    bbb     C5    754 -0.60390000  12.010000   ; qtot -0.117500
  755         hc     30    bbb     H9    755 0.16730000   1.008000   ; qtot 0.049800
  756         hc     30    bbb    H10    756 0.16730000   1.008000   ; qtot 0.217100
  757         c3     30    bbb     C6    757 -0.60390000  12.010000   ; qtot -0.386800
  758         hc     30    bbb    H11    758 0.16730000   1.008000   ; qtot -0.219500
  759         hc     30    bbb    H12    759 0.16730000   1.008000   ; qtot -0.052200
  760          c     30    bbb     C7    760 0.72110000  12.010000   ; qtot 0.668900
  761          c     30    bbb     C8    761 0.72110000  12.010000   ; qtot 1.390000
  762          o     30    bbb     O1    762 -0.61950000  16.000000   ; qtot 0.770500
  763          o     30    bbb     O2    763 -0.61950000  16.000000   ; qtot 0.151000
  764          n     30    bbb     N4    764 -0.46580000  14.010000   ; qtot -0.314800
  765         hn     30    bbb    H21    765 0.31480000   1.008000   ; qtot -0.000000
; residue   31 bbb rtp bbb q -0.0
  766         c3     31    bbb     C1    766 0.44180000  12.010000   ; qtot 0.441800
  767         h1     31    bbb     H1    767 -0.03530000   1.008000   ; qtot 0.406500
  768         h1     31    bbb     H2    768 -0.03530000   1.008000   ; qtot 0.371200
  769         c3     31    bbb     C2    769 -0.28250000  12.010000   ; qtot 0.088700
  770         h1     31    bbb     H3    770 0.15710000   1.008000   ; qtot 0.245800
  771         h1     31    bbb     H4    771 0.15710000   1.008000   ; qtot 0.402900
  772         n3     31    bbb     N1    772 -0.74090000  14.010000   ; qtot -0.338000
  773         c3     31    bbb     C3    773 0.51680000  12.010000   ; qtot 0.178800
  774         h1     31    bbb     H5    774 -0.05230000   1.008000   ; qtot 0.126500
  775         h1     31    bbb     H6    775 -0.05230000   1.008000   ; qtot 0.074200
  776         c3     31    bbb     C4    776 0.51680000  12.010000   ; qtot 0.591000
  777         h1     31    bbb     H7    777 -0.05230000   1.008000   ; qtot 0.538700
  778         h1     31    bbb     H8    778 -0.05230000   1.008000   ; qtot 0.486400
  779         c3     31    bbb     C5    779 -0.60390000  12.010000   ; qtot -0.117500
  780         hc     31    bbb     H9    780 0.16730000   1.008000   ; qtot 0.049800
  781         hc     31    bbb    H10    781 0.16730000   1.008000   ; qtot 0.217100
  782         c3     31    bbb     C6    782 -0.60390000  12.010000   ; qtot -0.386800
  783         hc     31    bbb    H11    783 0.16730000   1.008000   ; qtot -0.219500
  784         hc     31    bbb    H12    784 0.16730000   1.008000   ; qtot -0.052200
  785          c     31    bbb     C7    785 0.72110000  12.010000   ; qtot 0.668900
  786          c     31    bbb     C8    786 0.72110000  12.010000   ; qtot 1.390000
  787          o     31    bbb     O1    787 -0.61950000  16.000000   ; qtot 0.770500
  788          o     31    bbb     O2    788 -0.61950000  16.000000   ; qtot 0.151000
  789          n     31    bbb     N4    789 -0.46580000  14.010000   ; qtot -0.314800
  790         hn     31    bbb    H21    790 0.31480000   1.008000   ; qtot -0.000000
; residue   32 bbb rtp bbb q -0.0
  791         c3     32    bbb     C1    791 0.44180000  12.010000   ; qtot 0.441800
  792         h1     32    bbb     H1    792 -0.03530000   1.008000   ; qtot 0.406500
  793         h1     32    bbb     H2    793 -0.03530000   1.008000   ; qtot 0.371200
  794         c3     32    bbb     C2    794 -0.28250000  12.010000   ; qtot 0.088700
  795         h1     32    bbb     H3    795 0.15710000   1.008000   ; qtot 0.245800
  796         h1     32    bbb     H4    796 0.15710000   1.008000   ; qtot 0.402900
  797         n3     32    bbb     N1    797 -0.74090000  14.010000   ; qtot -0.338000
  798         c3     32    bbb     C3    798 0.51680000  12.010000   ; qtot 0.178800
  799         h1     32    bbb     H5    799 -0.05230000   1.008000   ; qtot 0.126500
  800         h1     32    bbb     H6    800 -0.05230000   1.008000   ; qtot 0.074200
  801         c3     32    bbb     C4    801 0.51680000  12.010000   ; qtot 0.591000
  802         h1     32    bbb     H7    802 -0.05230000   1.008000   ; qtot 0.538700
  803         h1     32    bbb     H8    803 -0.05230000   1.008000   ; qtot 0.486400
  804         c3     32    bbb     C5    804 -0.60390000  12.010000   ; qtot -0.117500
  805         hc     32    bbb     H9    805 0.16730000   1.008000   ; qtot 0.049800
  806         hc     32    bbb    H10    806 0.16730000   1.008000   ; qtot 0.217100
  807         c3     32    bbb     C6    807 -0.60390000  12.010000   ; qtot -0.386800
  808         hc     32    bbb    H11    808 0.16730000   1.008000   ; qtot -0.219500
  809         hc     32    bbb    H12    809 0.16730000   1.008000   ; qtot -0.052200
  810          c     32    bbb     C7    810 0.72110000  12.010000   ; qtot 0.668900
  811          c     32    bbb     C8    811 0.72110000  12.010000   ; qtot 1.390000
  812          o     32    bbb     O1    812 -0.61950000  16.000000   ; qtot 0.770500
  813          o     32    bbb     O2    813 -0.61950000  16.000000   ; qtot 0.151000
  814          n     32    bbb     N4    814 -0.46580000  14.010000   ; qtot -0.314800
  815         hn     32    bbb    H21    815 0.31480000   1.008000   ; qtot -0.000000
; residue   33 bbb rtp bbb q -0.0
  816         c3     33    bbb     C1    816 0.44180000  12.010000   ; qtot 0.441800
  817         h1     33    bbb     H1    817 -0.03530000   1.008000   ; qtot 0.406500
  818         h1     33    bbb     H2    818 -0.03530000   1.008000   ; qtot 0.371200
  819         c3     33    bbb     C2    819 -0.28250000  12.010000   ; qtot 0.088700
  820         h1     33    bbb     H3    820 0.15710000   1.008000   ; qtot 0.245800
  821         h1     33    bbb     H4    821 0.15710000   1.008000   ; qtot 0.402900
  822         n3     33    bbb     N1    822 -0.74090000  14.010000   ; qtot -0.338000
  823         c3     33    bbb     C3    823 0.51680000  12.010000   ; qtot 0.178800
  824         h1     33    bbb     H5    824 -0.05230000   1.008000   ; qtot 0.126500
  825         h1     33    bbb     H6    825 -0.05230000   1.008000   ; qtot 0.074200
  826         c3     33    bbb     C4    826 0.51680000  12.010000   ; qtot 0.591000
  827         h1     33    bbb     H7    827 -0.05230000   1.008000   ; qtot 0.538700
  828         h1     33    bbb     H8    828 -0.05230000   1.008000   ; qtot 0.486400
  829         c3     33    bbb     C5    829 -0.60390000  12.010000   ; qtot -0.117500
  830         hc     33    bbb     H9    830 0.16730000   1.008000   ; qtot 0.049800
  831         hc     33    bbb    H10    831 0.16730000   1.008000   ; qtot 0.217100
  832         c3     33    bbb     C6    832 -0.60390000  12.010000   ; qtot -0.386800
  833         hc     33    bbb    H11    833 0.16730000   1.008000   ; qtot -0.219500
  834         hc     33    bbb    H12    834 0.16730000   1.008000   ; qtot -0.052200
  835          c     33    bbb     C7    835 0.72110000  12.010000   ; qtot 0.668900
  836          c     33    bbb     C8    836 0.72110000  12.010000   ; qtot 1.390000
  837          o     33    bbb     O1    837 -0.61950000  16.000000   ; qtot 0.770500
  838          o     33    bbb     O2    838 -0.61950000  16.000000   ; qtot 0.151000
  839          n     33    bbb     N4    839 -0.46580000  14.010000   ; qtot -0.314800
  840         hn     33    bbb    H21    840 0.31480000   1.008000   ; qtot -0.000000
; residue   34 bbb rtp bbb q -0.0
  841         c3     34    bbb     C1    841 0.44180000  12.010000   ; qtot 0.441800
  842         h1     34    bbb     H1    842 -0.03530000   1.008000   ; qtot 0.406500
  843         h1     34    bbb     H2    843 -0.03530000   1.008000   ; qtot 0.371200
  844         c3     34    bbb     C2    844 -0.28250000  12.010000   ; qtot 0.088700
  845         h1     34    bbb     H3    845 0.15710000   1.008000   ; qtot 0.245800
  846         h1     34    bbb     H4    846 0.15710000   1.008000   ; qtot 0.402900
  847         n3     34    bbb     N1    847 -0.74090000  14.010000   ; qtot -0.338000
  848         c3     34    bbb     C3    848 0.51680000  12.010000   ; qtot 0.178800
  849         h1     34    bbb     H5    849 -0.05230000   1.008000   ; qtot 0.126500
  850         h1     34    bbb     H6    850 -0.05230000   1.008000   ; qtot 0.074200
  851         c3     34    bbb     C4    851 0.51680000  12.010000   ; qtot 0.591000
  852         h1     34    bbb     H7    852 -0.05230000   1.008000   ; qtot 0.538700
  853         h1     34    bbb     H8    853 -0.05230000   1.008000   ; qtot 0.486400
  854         c3     34    bbb     C5    854 -0.60390000  12.010000   ; qtot -0.117500
  855         hc     34    bbb     H9    855 0.16730000   1.008000   ; qtot 0.049800
  856         hc     34    bbb    H10    856 0.16730000   1.008000   ; qtot 0.217100
  857         c3     34    bbb     C6    857 -0.60390000  12.010000   ; qtot -0.386800
  858         hc     34    bbb    H11    858 0.16730000   1.008000   ; qtot -0.219500
  859         hc     34    bbb    H12    859 0.16730000   1.008000   ; qtot -0.052200
  860          c     34    bbb     C7    860 0.72110000  12.010000   ; qtot 0.668900
  861          c     34    bbb     C8    861 0.72110000  12.010000   ; qtot 1.390000
  862          o     34    bbb     O1    862 -0.61950000  16.000000   ; qtot 0.770500
  863          o     34    bbb     O2    863 -0.61950000  16.000000   ; qtot 0.151000
  864          n     34    bbb     N4    864 -0.46580000  14.010000   ; qtot -0.314800
  865         hn     34    bbb    H21    865 0.31480000   1.008000   ; qtot -0.000000
; residue   35 bbb rtp bbb q -0.0
  866         c3     35    bbb     C1    866 0.44180000  12.010000   ; qtot 0.441800
  867         h1     35    bbb     H1    867 -0.03530000   1.008000   ; qtot 0.406500
  868         h1     35    bbb     H2    868 -0.03530000   1.008000   ; qtot 0.371200
  869         c3     35    bbb     C2    869 -0.28250000  12.010000   ; qtot 0.088700
  870         h1     35    bbb     H3    870 0.15710000   1.008000   ; qtot 0.245800
  871         h1     35    bbb     H4    871 0.15710000   1.008000   ; qtot 0.402900
  872         n3     35    bbb     N1    872 -0.74090000  14.010000   ; qtot -0.338000
  873         c3     35    bbb     C3    873 0.51680000  12.010000   ; qtot 0.178800
  874         h1     35    bbb     H5    874 -0.05230000   1.008000   ; qtot 0.126500
  875         h1     35    bbb     H6    875 -0.05230000   1.008000   ; qtot 0.074200
  876         c3     35    bbb     C4    876 0.51680000  12.010000   ; qtot 0.591000
  877         h1     35    bbb     H7    877 -0.05230000   1.008000   ; qtot 0.538700
  878         h1     35    bbb     H8    878 -0.05230000   1.008000   ; qtot 0.486400
  879         c3     35    bbb     C5    879 -0.60390000  12.010000   ; qtot -0.117500
  880         hc     35    bbb     H9    880 0.16730000   1.008000   ; qtot 0.049800
  881         hc     35    bbb    H10    881 0.16730000   1.008000   ; qtot 0.217100
  882         c3     35    bbb     C6    882 -0.60390000  12.010000   ; qtot -0.386800
  883         hc     35    bbb    H11    883 0.16730000   1.008000   ; qtot -0.219500
  884         hc     35    bbb    H12    884 0.16730000   1.008000   ; qtot -0.052200
  885          c     35    bbb     C7    885 0.72110000  12.010000   ; qtot 0.668900
  886          c     35    bbb     C8    886 0.72110000  12.010000   ; qtot 1.390000
  887          o     35    bbb     O1    887 -0.61950000  16.000000   ; qtot 0.770500
  888          o     35    bbb     O2    888 -0.61950000  16.000000   ; qtot 0.151000
  889          n     35    bbb     N4    889 -0.46580000  14.010000   ; qtot -0.314800
  890         hn     35    bbb    H21    890 0.31480000   1.008000   ; qtot -0.000000
; residue   36 bbb rtp bbb q -0.0
  891         c3     36    bbb     C1    891 0.44180000  12.010000   ; qtot 0.441800
  892         h1     36    bbb     H1    892 -0.03530000   1.008000   ; qtot 0.406500
  893         h1     36    bbb     H2    893 -0.03530000   1.008000   ; qtot 0.371200
  894         c3     36    bbb     C2    894 -0.28250000  12.010000   ; qtot 0.088700
  895         h1     36    bbb     H3    895 0.15710000   1.008000   ; qtot 0.245800
  896         h1     36    bbb     H4    896 0.15710000   1.008000   ; qtot 0.402900
  897         n3     36    bbb     N1    897 -0.74090000  14.010000   ; qtot -0.338000
  898         c3     36    bbb     C3    898 0.51680000  12.010000   ; qtot 0.178800
  899         h1     36    bbb     H5    899 -0.05230000   1.008000   ; qtot 0.126500
  900         h1     36    bbb     H6    900 -0.05230000   1.008000   ; qtot 0.074200
  901         c3     36    bbb     C4    901 0.51680000  12.010000   ; qtot 0.591000
  902         h1     36    bbb     H7    902 -0.05230000   1.008000   ; qtot 0.538700
  903         h1     36    bbb     H8    903 -0.05230000   1.008000   ; qtot 0.486400
  904         c3     36    bbb     C5    904 -0.60390000  12.010000   ; qtot -0.117500
  905         hc     36    bbb     H9    905 0.16730000   1.008000   ; qtot 0.049800
  906         hc     36    bbb    H10    906 0.16730000   1.008000   ; qtot 0.217100
  907         c3     36    bbb     C6    907 -0.60390000  12.010000   ; qtot -0.386800
  908         hc     36    bbb    H11    908 0.16730000   1.008000   ; qtot -0.219500
  909         hc     36    bbb    H12    909 0.16730000   1.008000   ; qtot -0.052200
  910          c     36    bbb     C7    910 0.72110000  12.010000   ; qtot 0.668900
  911          c     36    bbb     C8    911 0.72110000  12.010000   ; qtot 1.390000
  912          o     36    bbb     O1    912 -0.61950000  16.000000   ; qtot 0.770500
  913          o     36    bbb     O2    913 -0.61950000  16.000000   ; qtot 0.151000
  914          n     36    bbb     N4    914 -0.46580000  14.010000   ; qtot -0.314800
  915         hn     36    bbb    H21    915 0.31480000   1.008000   ; qtot -0.000000
; residue   37 bbb rtp bbb q -0.0
  916         c3     37    bbb     C1    916 0.44180000  12.010000   ; qtot 0.441800
  917         h1     37    bbb     H1    917 -0.03530000   1.008000   ; qtot 0.406500
  918         h1     37    bbb     H2    918 -0.03530000   1.008000   ; qtot 0.371200
  919         c3     37    bbb     C2    919 -0.28250000  12.010000   ; qtot 0.088700
  920         h1     37    bbb     H3    920 0.15710000   1.008000   ; qtot 0.245800
  921         h1     37    bbb     H4    921 0.15710000   1.008000   ; qtot 0.402900
  922         n3     37    bbb     N1    922 -0.74090000  14.010000   ; qtot -0.338000
  923         c3     37    bbb     C3    923 0.51680000  12.010000   ; qtot 0.178800
  924         h1     37    bbb     H5    924 -0.05230000   1.008000   ; qtot 0.126500
  925         h1     37    bbb     H6    925 -0.05230000   1.008000   ; qtot 0.074200
  926         c3     37    bbb     C4    926 0.51680000  12.010000   ; qtot 0.591000
  927         h1     37    bbb     H7    927 -0.05230000   1.008000   ; qtot 0.538700
  928         h1     37    bbb     H8    928 -0.05230000   1.008000   ; qtot 0.486400
  929         c3     37    bbb     C5    929 -0.60390000  12.010000   ; qtot -0.117500
  930         hc     37    bbb     H9    930 0.16730000   1.008000   ; qtot 0.049800
  931         hc     37    bbb    H10    931 0.16730000   1.008000   ; qtot 0.217100
  932         c3     37    bbb     C6    932 -0.60390000  12.010000   ; qtot -0.386800
  933         hc     37    bbb    H11    933 0.16730000   1.008000   ; qtot -0.219500
  934         hc     37    bbb    H12    934 0.16730000   1.008000   ; qtot -0.052200
  935          c     37    bbb     C7    935 0.72110000  12.010000   ; qtot 0.668900
  936          c     37    bbb     C8    936 0.72110000  12.010000   ; qtot 1.390000
  937          o     37    bbb     O1    937 -0.61950000  16.000000   ; qtot 0.770500
  938          o     37    bbb     O2    938 -0.61950000  16.000000   ; qtot 0.151000
  939          n     37    bbb     N4    939 -0.46580000  14.010000   ; qtot -0.314800
  940         hn     37    bbb    H21    940 0.31480000   1.008000   ; qtot -0.000000
; residue   38 bbb rtp bbb q -0.0
  941         c3     38    bbb     C1    941 0.44180000  12.010000   ; qtot 0.441800
  942         h1     38    bbb     H1    942 -0.03530000   1.008000   ; qtot 0.406500
  943         h1     38    bbb     H2    943 -0.03530000   1.008000   ; qtot 0.371200
  944         c3     38    bbb     C2    944 -0.28250000  12.010000   ; qtot 0.088700
  945         h1     38    bbb     H3    945 0.15710000   1.008000   ; qtot 0.245800
  946         h1     38    bbb     H4    946 0.15710000   1.008000   ; qtot 0.402900
  947         n3     38    bbb     N1    947 -0.74090000  14.010000   ; qtot -0.338001
  948         c3     38    bbb     C3    948 0.51680000  12.010000   ; qtot 0.178799
  949         h1     38    bbb     H5    949 -0.05230000   1.008000   ; qtot 0.126499
  950         h1     38    bbb     H6    950 -0.05230000   1.008000   ; qtot 0.074199
  951         c3     38    bbb     C4    951 0.51680000  12.010000   ; qtot 0.590999
  952         h1     38    bbb     H7    952 -0.05230000   1.008000   ; qtot 0.538699
  953         h1     38    bbb     H8    953 -0.05230000   1.008000   ; qtot 0.486399
  954         c3     38    bbb     C5    954 -0.60390000  12.010000   ; qtot -0.117501
  955         hc     38    bbb     H9    955 0.16730000   1.008000   ; qtot 0.049799
  956         hc     38    bbb    H10    956 0.16730000   1.008000   ; qtot 0.217099
  957         c3     38    bbb     C6    957 -0.60390000  12.010000   ; qtot -0.386801
  958         hc     38    bbb    H11    958 0.16730000   1.008000   ; qtot -0.219501
  959         hc     38    bbb    H12    959 0.16730000   1.008000   ; qtot -0.052201
  960          c     38    bbb     C7    960 0.72110000  12.010000   ; qtot 0.668899
  961          c     38    bbb     C8    961 0.72110000  12.010000   ; qtot 1.389999
  962          o     38    bbb     O1    962 -0.61950000  16.000000   ; qtot 0.770499
  963          o     38    bbb     O2    963 -0.61950000  16.000000   ; qtot 0.150999
  964          n     38    bbb     N4    964 -0.46580000  14.010000   ; qtot -0.314801
  965         hn     38    bbb    H21    965 0.31480000   1.008000   ; qtot -0.000001
; residue   39 bbb rtp bbb q -0.0
  966         c3     39    bbb     C1    966 0.44180000  12.010000   ; qtot 0.441799
  967         h1     39    bbb     H1    967 -0.03530000   1.008000   ; qtot 0.406499
  968         h1     39    bbb     H2    968 -0.03530000   1.008000   ; qtot 0.371199
  969         c3     39    bbb     C2    969 -0.28250000  12.010000   ; qtot 0.088699
  970         h1     39    bbb     H3    970 0.15710000   1.008000   ; qtot 0.245799
  971         h1     39    bbb     H4    971 0.15710000   1.008000   ; qtot 0.402899
  972         n3     39    bbb     N1    972 -0.74090000  14.010000   ; qtot -0.338001
  973         c3     39    bbb     C3    973 0.51680000  12.010000   ; qtot 0.178799
  974         h1     39    bbb     H5    974 -0.05230000   1.008000   ; qtot 0.126499
  975         h1     39    bbb     H6    975 -0.05230000   1.008000   ; qtot 0.074199
  976         c3     39    bbb     C4    976 0.51680000  12.010000   ; qtot 0.590999
  977         h1     39    bbb     H7    977 -0.05230000   1.008000   ; qtot 0.538699
  978         h1     39    bbb     H8    978 -0.05230000   1.008000   ; qtot 0.486399
  979         c3     39    bbb     C5    979 -0.60390000  12.010000   ; qtot -0.117501
  980         hc     39    bbb     H9    980 0.16730000   1.008000   ; qtot 0.049799
  981         hc     39    bbb    H10    981 0.16730000   1.008000   ; qtot 0.217099
  982         c3     39    bbb     C6    982 -0.60390000  12.010000   ; qtot -0.386801
  983         hc     39    bbb    H11    983 0.16730000   1.008000   ; qtot -0.219501
  984         hc     39    bbb    H12    984 0.16730000   1.008000   ; qtot -0.052201
  985          c     39    bbb     C7    985 0.72110000  12.010000   ; qtot 0.668899
  986          c     39    bbb     C8    986 0.72110000  12.010000   ; qtot 1.389999
  987          o     39    bbb     O1    987 -0.61950000  16.000000   ; qtot 0.770499
  988          o     39    bbb     O2    988 -0.61950000  16.000000   ; qtot 0.150999
  989          n     39    bbb     N4    989 -0.46580000  14.010000   ; qtot -0.314801
  990         hn     39    bbb    H21    990 0.31480000   1.008000   ; qtot -0.000001
; residue   40 bbb rtp bbb q -0.0
  991         c3     40    bbb     C1    991 0.44180000  12.010000   ; qtot 0.441799
  992         h1     40    bbb     H1    992 -0.03530000   1.008000   ; qtot 0.406499
  993         h1     40    bbb     H2    993 -0.03530000   1.008000   ; qtot 0.371199
  994         c3     40    bbb     C2    994 -0.28250000  12.010000   ; qtot 0.088699
  995         h1     40    bbb     H3    995 0.15710000   1.008000   ; qtot 0.245799
  996         h1     40    bbb     H4    996 0.15710000   1.008000   ; qtot 0.402899
  997         n3     40    bbb     N1    997 -0.74090000  14.010000   ; qtot -0.338001
  998         c3     40    bbb     C3    998 0.51680000  12.010000   ; qtot 0.178799
  999         h1     40    bbb     H5    999 -0.05230000   1.008000   ; qtot 0.126499
 1000         h1     40    bbb     H6   1000 -0.05230000   1.008000   ; qtot 0.074199
 1001         c3     40    bbb     C4   1001 0.51680000  12.010000   ; qtot 0.590999
 1002         h1     40    bbb     H7   1002 -0.05230000   1.008000   ; qtot 0.538699
 1003         h1     40    bbb     H8   1003 -0.05230000   1.008000   ; qtot 0.486399
 1004         c3     40    bbb     C5   1004 -0.60390000  12.010000   ; qtot -0.117501
 1005         hc     40    bbb     H9   1005 0.16730000   1.008000   ; qtot 0.049799
 1006         hc     40    bbb    H10   1006 0.16730000   1.008000   ; qtot 0.217099
 1007         c3     40    bbb     C6   1007 -0.60390000  12.010000   ; qtot -0.386801
 1008         hc     40    bbb    H11   1008 0.16730000   1.008000   ; qtot -0.219501
 1009         hc     40    bbb    H12   1009 0.16730000   1.008000   ; qtot -0.052201
 1010          c     40    bbb     C7   1010 0.72110000  12.010000   ; qtot 0.668899
 1011          c     40    bbb     C8   1011 0.72110000  12.010000   ; qtot 1.389999
 1012          o     40    bbb     O1   1012 -0.61950000  16.000000   ; qtot 0.770499
 1013          o     40    bbb     O2   1013 -0.61950000  16.000000   ; qtot 0.150999
 1014          n     40    bbb     N4   1014 -0.46580000  14.010000   ; qtot -0.314801
 1015         hn     40    bbb    H21   1015 0.31480000   1.008000   ; qtot -0.000001
; residue   41 bbb rtp bbb q -0.0
 1016         c3     41    bbb     C1   1016 0.44180000  12.010000   ; qtot 0.441799
 1017         h1     41    bbb     H1   1017 -0.03530000   1.008000   ; qtot 0.406499
 1018         h1     41    bbb     H2   1018 -0.03530000   1.008000   ; qtot 0.371199
 1019         c3     41    bbb     C2   1019 -0.28250000  12.010000   ; qtot 0.088699
 1020         h1     41    bbb     H3   1020 0.15710000   1.008000   ; qtot 0.245799
 1021         h1     41    bbb     H4   1021 0.15710000   1.008000   ; qtot 0.402899
 1022         n3     41    bbb     N1   1022 -0.74090000  14.010000   ; qtot -0.338001
 1023         c3     41    bbb     C3   1023 0.51680000  12.010000   ; qtot 0.178799
 1024         h1     41    bbb     H5   1024 -0.05230000   1.008000   ; qtot 0.126499
 1025         h1     41    bbb     H6   1025 -0.05230000   1.008000   ; qtot 0.074199
 1026         c3     41    bbb     C4   1026 0.51680000  12.010000   ; qtot 0.590999
 1027         h1     41    bbb     H7   1027 -0.05230000   1.008000   ; qtot 0.538699
 1028         h1     41    bbb     H8   1028 -0.05230000   1.008000   ; qtot 0.486399
 1029         c3     41    bbb     C5   1029 -0.60390000  12.010000   ; qtot -0.117501
 1030         hc     41    bbb     H9   1030 0.16730000   1.008000   ; qtot 0.049799
 1031         hc     41    bbb    H10   1031 0.16730000   1.008000   ; qtot 0.217099
 1032         c3     41    bbb     C6   1032 -0.60390000  12.010000   ; qtot -0.386801
 1033         hc     41    bbb    H11   1033 0.16730000   1.008000   ; qtot -0.219501
 1034         hc     41    bbb    H12   1034 0.16730000   1.008000   ; qtot -0.052201
 1035          c     41    bbb     C7   1035 0.72110000  12.010000   ; qtot 0.668899
 1036          c     41    bbb     C8   1036 0.72110000  12.010000   ; qtot 1.389999
 1037          o     41    bbb     O1   1037 -0.61950000  16.000000   ; qtot 0.770499
 1038          o     41    bbb     O2   1038 -0.61950000  16.000000   ; qtot 0.150999
 1039          n     41    bbb     N4   1039 -0.46580000  14.010000   ; qtot -0.314801
 1040         hn     41    bbb    H21   1040 0.31480000   1.008000   ; qtot -0.000001
; residue   42 bbb rtp bbb q -0.0
 1041         c3     42    bbb     C1   1041 0.44180000  12.010000   ; qtot 0.441799
 1042         h1     42    bbb     H1   1042 -0.03530000   1.008000   ; qtot 0.406499
 1043         h1     42    bbb     H2   1043 -0.03530000   1.008000   ; qtot 0.371199
 1044         c3     42    bbb     C2   1044 -0.28250000  12.010000   ; qtot 0.088699
 1045         h1     42    bbb     H3   1045 0.15710000   1.008000   ; qtot 0.245799
 1046         h1     42    bbb     H4   1046 0.15710000   1.008000   ; qtot 0.402899
 1047         n3     42    bbb     N1   1047 -0.74090000  14.010000   ; qtot -0.338001
 1048         c3     42    bbb     C3   1048 0.51680000  12.010000   ; qtot 0.178799
 1049         h1     42    bbb     H5   1049 -0.05230000   1.008000   ; qtot 0.126499
 1050         h1     42    bbb     H6   1050 -0.05230000   1.008000   ; qtot 0.074199
 1051         c3     42    bbb     C4   1051 0.51680000  12.010000   ; qtot 0.590999
 1052         h1     42    bbb     H7   1052 -0.05230000   1.008000   ; qtot 0.538699
 1053         h1     42    bbb     H8   1053 -0.05230000   1.008000   ; qtot 0.486399
 1054         c3     42    bbb     C5   1054 -0.60390000  12.010000   ; qtot -0.117501
 1055         hc     42    bbb     H9   1055 0.16730000   1.008000   ; qtot 0.049799
 1056         hc     42    bbb    H10   1056 0.16730000   1.008000   ; qtot 0.217099
 1057         c3     42    bbb     C6   1057 -0.60390000  12.010000   ; qtot -0.386801
 1058         hc     42    bbb    H11   1058 0.16730000   1.008000   ; qtot -0.219501
 1059         hc     42    bbb    H12   1059 0.16730000   1.008000   ; qtot -0.052201
 1060          c     42    bbb     C7   1060 0.72110000  12.010000   ; qtot 0.668899
 1061          c     42    bbb     C8   1061 0.72110000  12.010000   ; qtot 1.389999
 1062          o     42    bbb     O1   1062 -0.61950000  16.000000   ; qtot 0.770499
 1063          o     42    bbb     O2   1063 -0.61950000  16.000000   ; qtot 0.150999
 1064          n     42    bbb     N4   1064 -0.46580000  14.010000   ; qtot -0.314801
 1065         hn     42    bbb    H21   1065 0.31480000   1.008000   ; qtot -0.000001
; residue   43 bbb rtp bbb q -0.0
 1066         c3     43    bbb     C1   1066 0.44180000  12.010000   ; qtot 0.441799
 1067         h1     43    bbb     H1   1067 -0.03530000   1.008000   ; qtot 0.406499
 1068         h1     43    bbb     H2   1068 -0.03530000   1.008000   ; qtot 0.371199
 1069         c3     43    bbb     C2   1069 -0.28250000  12.010000   ; qtot 0.088699
 1070         h1     43    bbb     H3   1070 0.15710000   1.008000   ; qtot 0.245799
 1071         h1     43    bbb     H4   1071 0.15710000   1.008000   ; qtot 0.402899
 1072         n3     43    bbb     N1   1072 -0.74090000  14.010000   ; qtot -0.338001
 1073         c3     43    bbb     C3   1073 0.51680000  12.010000   ; qtot 0.178799
 1074         h1     43    bbb     H5   1074 -0.05230000   1.008000   ; qtot 0.126499
 1075         h1     43    bbb     H6   1075 -0.05230000   1.008000   ; qtot 0.074199
 1076         c3     43    bbb     C4   1076 0.51680000  12.010000   ; qtot 0.590999
 1077         h1     43    bbb     H7   1077 -0.05230000   1.008000   ; qtot 0.538699
 1078         h1     43    bbb     H8   1078 -0.05230000   1.008000   ; qtot 0.486399
 1079         c3     43    bbb     C5   1079 -0.60390000  12.010000   ; qtot -0.117501
 1080         hc     43    bbb     H9   1080 0.16730000   1.008000   ; qtot 0.049799
 1081         hc     43    bbb    H10   1081 0.16730000   1.008000   ; qtot 0.217099
 1082         c3     43    bbb     C6   1082 -0.60390000  12.010000   ; qtot -0.386801
 1083         hc     43    bbb    H11   1083 0.16730000   1.008000   ; qtot -0.219501
 1084         hc     43    bbb    H12   1084 0.16730000   1.008000   ; qtot -0.052201
 1085          c     43    bbb     C7   1085 0.72110000  12.010000   ; qtot 0.668899
 1086          c     43    bbb     C8   1086 0.72110000  12.010000   ; qtot 1.389999
 1087          o     43    bbb     O1   1087 -0.61950000  16.000000   ; qtot 0.770499
 1088          o     43    bbb     O2   1088 -0.61950000  16.000000   ; qtot 0.150999
 1089          n     43    bbb     N4   1089 -0.46580000  14.010000   ; qtot -0.314801
 1090         hn     43    bbb    H21   1090 0.31480000   1.008000   ; qtot -0.000001
; residue   44 bbb rtp bbb q -0.0
 1091         c3     44    bbb     C1   1091 0.44180000  12.010000   ; qtot 0.441799
 1092         h1     44    bbb     H1   1092 -0.03530000   1.008000   ; qtot 0.406499
 1093         h1     44    bbb     H2   1093 -0.03530000   1.008000   ; qtot 0.371199
 1094         c3     44    bbb     C2   1094 -0.28250000  12.010000   ; qtot 0.088699
 1095         h1     44    bbb     H3   1095 0.15710000   1.008000   ; qtot 0.245799
 1096         h1     44    bbb     H4   1096 0.15710000   1.008000   ; qtot 0.402899
 1097         n3     44    bbb     N1   1097 -0.74090000  14.010000   ; qtot -0.338001
 1098         c3     44    bbb     C3   1098 0.51680000  12.010000   ; qtot 0.178799
 1099         h1     44    bbb     H5   1099 -0.05230000   1.008000   ; qtot 0.126499
 1100         h1     44    bbb     H6   1100 -0.05230000   1.008000   ; qtot 0.074199
 1101         c3     44    bbb     C4   1101 0.51680000  12.010000   ; qtot 0.590999
 1102         h1     44    bbb     H7   1102 -0.05230000   1.008000   ; qtot 0.538699
 1103         h1     44    bbb     H8   1103 -0.05230000   1.008000   ; qtot 0.486399
 1104         c3     44    bbb     C5   1104 -0.60390000  12.010000   ; qtot -0.117501
 1105         hc     44    bbb     H9   1105 0.16730000   1.008000   ; qtot 0.049799
 1106         hc     44    bbb    H10   1106 0.16730000   1.008000   ; qtot 0.217099
 1107         c3     44    bbb     C6   1107 -0.60390000  12.010000   ; qtot -0.386801
 1108         hc     44    bbb    H11   1108 0.16730000   1.008000   ; qtot -0.219501
 1109         hc     44    bbb    H12   1109 0.16730000   1.008000   ; qtot -0.052201
 1110          c     44    bbb     C7   1110 0.72110000  12.010000   ; qtot 0.668899
 1111          c     44    bbb     C8   1111 0.72110000  12.010000   ; qtot 1.389999
 1112          o     44    bbb     O1   1112 -0.61950000  16.000000   ; qtot 0.770499
 1113          o     44    bbb     O2   1113 -0.61950000  16.000000   ; qtot 0.150999
 1114          n     44    bbb     N4   1114 -0.46580000  14.010000   ; qtot -0.314801
 1115         hn     44    bbb    H21   1115 0.31480000   1.008000   ; qtot -0.000001
; residue   45 bbb rtp bbb q -0.0
 1116         c3     45    bbb     C1   1116 0.44180000  12.010000   ; qtot 0.441799
 1117         h1     45    bbb     H1   1117 -0.03530000   1.008000   ; qtot 0.406499
 1118         h1     45    bbb     H2   1118 -0.03530000   1.008000   ; qtot 0.371199
 1119         c3     45    bbb     C2   1119 -0.28250000  12.010000   ; qtot 0.088699
 1120         h1     45    bbb     H3   1120 0.15710000   1.008000   ; qtot 0.245799
 1121         h1     45    bbb     H4   1121 0.15710000   1.008000   ; qtot 0.402899
 1122         n3     45    bbb     N1   1122 -0.74090000  14.010000   ; qtot -0.338001
 1123         c3     45    bbb     C3   1123 0.51680000  12.010000   ; qtot 0.178799
 1124         h1     45    bbb     H5   1124 -0.05230000   1.008000   ; qtot 0.126499
 1125         h1     45    bbb     H6   1125 -0.05230000   1.008000   ; qtot 0.074199
 1126         c3     45    bbb     C4   1126 0.51680000  12.010000   ; qtot 0.590999
 1127         h1     45    bbb     H7   1127 -0.05230000   1.008000   ; qtot 0.538699
 1128         h1     45    bbb     H8   1128 -0.05230000   1.008000   ; qtot 0.486399
 1129         c3     45    bbb     C5   1129 -0.60390000  12.010000   ; qtot -0.117501
 1130         hc     45    bbb     H9   1130 0.16730000   1.008000   ; qtot 0.049799
 1131         hc     45    bbb    H10   1131 0.16730000   1.008000   ; qtot 0.217099
 1132         c3     45    bbb     C6   1132 -0.60390000  12.010000   ; qtot -0.386801
 1133         hc     45    bbb    H11   1133 0.16730000   1.008000   ; qtot -0.219501
 1134         hc     45    bbb    H12   1134 0.16730000   1.008000   ; qtot -0.052201
 1135          c     45    bbb     C7   1135 0.72110000  12.010000   ; qtot 0.668899
 1136          c     45    bbb     C8   1136 0.72110000  12.010000   ; qtot 1.389999
 1137          o     45    bbb     O1   1137 -0.61950000  16.000000   ; qtot 0.770499
 1138          o     45    bbb     O2   1138 -0.61950000  16.000000   ; qtot 0.150999
 1139          n     45    bbb     N4   1139 -0.46580000  14.010000   ; qtot -0.314801
 1140         hn     45    bbb    H21   1140 0.31480000   1.008000   ; qtot -0.000001
; residue   46 bbb rtp bbb q -0.0
 1141         c3     46    bbb     C1   1141 0.44180000  12.010000   ; qtot 0.441799
 1142         h1     46    bbb     H1   1142 -0.03530000   1.008000   ; qtot 0.406499
 1143         h1     46    bbb     H2   1143 -0.03530000   1.008000   ; qtot 0.371199
 1144         c3     46    bbb     C2   1144 -0.28250000  12.010000   ; qtot 0.088699
 1145         h1     46    bbb     H3   1145 0.15710000   1.008000   ; qtot 0.245799
 1146         h1     46    bbb     H4   1146 0.15710000   1.008000   ; qtot 0.402899
 1147         n3     46    bbb     N1   1147 -0.74090000  14.010000   ; qtot -0.338001
 1148         c3     46    bbb     C3   1148 0.51680000  12.010000   ; qtot 0.178799
 1149         h1     46    bbb     H5   1149 -0.05230000   1.008000   ; qtot 0.126499
 1150         h1     46    bbb     H6   1150 -0.05230000   1.008000   ; qtot 0.074199
 1151         c3     46    bbb     C4   1151 0.51680000  12.010000   ; qtot 0.590999
 1152         h1     46    bbb     H7   1152 -0.05230000   1.008000   ; qtot 0.538699
 1153         h1     46    bbb     H8   1153 -0.05230000   1.008000   ; qtot 0.486399
 1154         c3     46    bbb     C5   1154 -0.60390000  12.010000   ; qtot -0.117501
 1155         hc     46    bbb     H9   1155 0.16730000   1.008000   ; qtot 0.049799
 1156         hc     46    bbb    H10   1156 0.16730000   1.008000   ; qtot 0.217099
 1157         c3     46    bbb     C6   1157 -0.60390000  12.010000   ; qtot -0.386801
 1158         hc     46    bbb    H11   1158 0.16730000   1.008000   ; qtot -0.219501
 1159         hc     46    bbb    H12   1159 0.16730000   1.008000   ; qtot -0.052201
 1160          c     46    bbb     C7   1160 0.72110000  12.010000   ; qtot 0.668899
 1161          c     46    bbb     C8   1161 0.72110000  12.010000   ; qtot 1.389999
 1162          o     46    bbb     O1   1162 -0.61950000  16.000000   ; qtot 0.770499
 1163          o     46    bbb     O2   1163 -0.61950000  16.000000   ; qtot 0.150999
 1164          n     46    bbb     N4   1164 -0.46580000  14.010000   ; qtot -0.314801
 1165         hn     46    bbb    H21   1165 0.31480000   1.008000   ; qtot -0.000001
; residue   47 bbb rtp bbb q -0.0
 1166         c3     47    bbb     C1   1166 0.44180000  12.010000   ; qtot 0.441799
 1167         h1     47    bbb     H1   1167 -0.03530000   1.008000   ; qtot 0.406499
 1168         h1     47    bbb     H2   1168 -0.03530000   1.008000   ; qtot 0.371199
 1169         c3     47    bbb     C2   1169 -0.28250000  12.010000   ; qtot 0.088699
 1170         h1     47    bbb     H3   1170 0.15710000   1.008000   ; qtot 0.245799
 1171         h1     47    bbb     H4   1171 0.15710000   1.008000   ; qtot 0.402899
 1172         n3     47    bbb     N1   1172 -0.74090000  14.010000   ; qtot -0.338001
 1173         c3     47    bbb     C3   1173 0.51680000  12.010000   ; qtot 0.178799
 1174         h1     47    bbb     H5   1174 -0.05230000   1.008000   ; qtot 0.126499
 1175         h1     47    bbb     H6   1175 -0.05230000   1.008000   ; qtot 0.074199
 1176         c3     47    bbb     C4   1176 0.51680000  12.010000   ; qtot 0.590999
 1177         h1     47    bbb     H7   1177 -0.05230000   1.008000   ; qtot 0.538699
 1178         h1     47    bbb     H8   1178 -0.05230000   1.008000   ; qtot 0.486399
 1179         c3     47    bbb     C5   1179 -0.60390000  12.010000   ; qtot -0.117501
 1180         hc     47    bbb     H9   1180 0.16730000   1.008000   ; qtot 0.049799
 1181         hc     47    bbb    H10   1181 0.16730000   1.008000   ; qtot 0.217099
 1182         c3     47    bbb     C6   1182 -0.60390000  12.010000   ; qtot -0.386801
 1183         hc     47    bbb    H11   1183 0.16730000   1.008000   ; qtot -0.219501
 1184         hc     47    bbb    H12   1184 0.16730000   1.008000   ; qtot -0.052201
 1185          c     47    bbb     C7   1185 0.72110000  12.010000   ; qtot 0.668899
 1186          c     47    bbb     C8   1186 0.72110000  12.010000   ; qtot 1.389999
 1187          o     47    bbb     O1   1187 -0.61950000  16.000000   ; qtot 0.770499
 1188          o     47    bbb     O2   1188 -0.61950000  16.000000   ; qtot 0.150999
 1189          n     47    bbb     N4   1189 -0.46580000  14.010000   ; qtot -0.314801
 1190         hn     47    bbb    H21   1190 0.31480000   1.008000   ; qtot -0.000001
; residue   48 bbb rtp bbb q -0.0
 1191         c3     48    bbb     C1   1191 0.44180000  12.010000   ; qtot 0.441799
 1192         h1     48    bbb     H1   1192 -0.03530000   1.008000   ; qtot 0.406499
 1193         h1     48    bbb     H2   1193 -0.03530000   1.008000   ; qtot 0.371199
 1194         c3     48    bbb     C2   1194 -0.28250000  12.010000   ; qtot 0.088699
 1195         h1     48    bbb     H3   1195 0.15710000   1.008000   ; qtot 0.245799
 1196         h1     48    bbb     H4   1196 0.15710000   1.008000   ; qtot 0.402899
 1197         n3     48    bbb     N1   1197 -0.74090000  14.010000   ; qtot -0.338001
 1198         c3     48    bbb     C3   1198 0.51680000  12.010000   ; qtot 0.178799
 1199         h1     48    bbb     H5   1199 -0.05230000   1.008000   ; qtot 0.126499
 1200         h1     48    bbb     H6   1200 -0.05230000   1.008000   ; qtot 0.074199
 1201         c3     48    bbb     C4   1201 0.51680000  12.010000   ; qtot 0.590999
 1202         h1     48    bbb     H7   1202 -0.05230000   1.008000   ; qtot 0.538699
 1203         h1     48    bbb     H8   1203 -0.05230000   1.008000   ; qtot 0.486399
 1204         c3     48    bbb     C5   1204 -0.60390000  12.010000   ; qtot -0.117501
 1205         hc     48    bbb     H9   1205 0.16730000   1.008000   ; qtot 0.049799
 1206         hc     48    bbb    H10   1206 0.16730000   1.008000   ; qtot 0.217099
 1207         c3     48    bbb     C6   1207 -0.60390000  12.010000   ; qtot -0.386801
 1208         hc     48    bbb    H11   1208 0.16730000   1.008000   ; qtot -0.219501
 1209         hc     48    bbb    H12   1209 0.16730000   1.008000   ; qtot -0.052201
 1210          c     48    bbb     C7   1210 0.72110000  12.010000   ; qtot 0.668899
 1211          c     48    bbb     C8   1211 0.72110000  12.010000   ; qtot 1.389999
 1212          o     48    bbb     O1   1212 -0.61950000  16.000000   ; qtot 0.770499
 1213          o     48    bbb     O2   1213 -0.61950000  16.000000   ; qtot 0.150999
 1214          n     48    bbb     N4   1214 -0.46580000  14.010000   ; qtot -0.314801
 1215         hn     48    bbb    H21   1215 0.31480000   1.008000   ; qtot -0.000001
; residue   49 bbb rtp bbb q -0.0
 1216         c3     49    bbb     C1   1216 0.44180000  12.010000   ; qtot 0.441799
 1217         h1     49    bbb     H1   1217 -0.03530000   1.008000   ; qtot 0.406499
 1218         h1     49    bbb     H2   1218 -0.03530000   1.008000   ; qtot 0.371199
 1219         c3     49    bbb     C2   1219 -0.28250000  12.010000   ; qtot 0.088699
 1220         h1     49    bbb     H3   1220 0.15710000   1.008000   ; qtot 0.245799
 1221         h1     49    bbb     H4   1221 0.15710000   1.008000   ; qtot 0.402899
 1222         n3     49    bbb     N1   1222 -0.74090000  14.010000   ; qtot -0.338001
 1223         c3     49    bbb     C3   1223 0.51680000  12.010000   ; qtot 0.178799
 1224         h1     49    bbb     H5   1224 -0.05230000   1.008000   ; qtot 0.126499
 1225         h1     49    bbb     H6   1225 -0.05230000   1.008000   ; qtot 0.074199
 1226         c3     49    bbb     C4   1226 0.51680000  12.010000   ; qtot 0.590999
 1227         h1     49    bbb     H7   1227 -0.05230000   1.008000   ; qtot 0.538699
 1228         h1     49    bbb     H8   1228 -0.05230000   1.008000   ; qtot 0.486399
 1229         c3     49    bbb     C5   1229 -0.60390000  12.010000   ; qtot -0.117501
 1230         hc     49    bbb     H9   1230 0.16730000   1.008000   ; qtot 0.049799
 1231         hc     49    bbb    H10   1231 0.16730000   1.008000   ; qtot 0.217099
 1232         c3     49    bbb     C6   1232 -0.60390000  12.010000   ; qtot -0.386801
 1233         hc     49    bbb    H11   1233 0.16730000   1.008000   ; qtot -0.219501
 1234         hc     49    bbb    H12   1234 0.16730000   1.008000   ; qtot -0.052201
 1235          c     49    bbb     C7   1235 0.72110000  12.010000   ; qtot 0.668899
 1236          c     49    bbb     C8   1236 0.72110000  12.010000   ; qtot 1.389999
 1237          o     49    bbb     O1   1237 -0.61950000  16.000000   ; qtot 0.770499
 1238          o     49    bbb     O2   1238 -0.61950000  16.000000   ; qtot 0.150999
 1239          n     49    bbb     N4   1239 -0.46580000  14.010000   ; qtot -0.314801
 1240         hn     49    bbb    H21   1240 0.31480000   1.008000   ; qtot -0.000001
; residue   50 bbb rtp bbb q -0.0
 1241         c3     50    bbb     C1   1241 0.44180000  12.010000   ; qtot 0.441799
 1242         h1     50    bbb     H1   1242 -0.03530000   1.008000   ; qtot 0.406499
 1243         h1     50    bbb     H2   1243 -0.03530000   1.008000   ; qtot 0.371199
 1244         c3     50    bbb     C2   1244 -0.28250000  12.010000   ; qtot 0.088699
 1245         h1     50    bbb     H3   1245 0.15710000   1.008000   ; qtot 0.245799
 1246         h1     50    bbb     H4   1246 0.15710000   1.008000   ; qtot 0.402899
 1247         n3     50    bbb     N1   1247 -0.74090000  14.010000   ; qtot -0.338001
 1248         c3     50    bbb     C3   1248 0.51680000  12.010000   ; qtot 0.178799
 1249         h1     50    bbb     H5   1249 -0.05230000   1.008000   ; qtot 0.126499
 1250         h1     50    bbb     H6   1250 -0.05230000   1.008000   ; qtot 0.074199
 1251         c3     50    bbb     C4   1251 0.51680000  12.010000   ; qtot 0.590999
 1252         h1     50    bbb     H7   1252 -0.05230000   1.008000   ; qtot 0.538699
 1253         h1     50    bbb     H8   1253 -0.05230000   1.008000   ; qtot 0.486399
 1254         c3     50    bbb     C5   1254 -0.60390000  12.010000   ; qtot -0.117501
 1255         hc     50    bbb     H9   1255 0.16730000   1.008000   ; qtot 0.049799
 1256         hc     50    bbb    H10   1256 0.16730000   1.008000   ; qtot 0.217099
 1257         c3     50    bbb     C6   1257 -0.60390000  12.010000   ; qtot -0.386801
 1258         hc     50    bbb    H11   1258 0.16730000   1.008000   ; qtot -0.219501
 1259         hc     50    bbb    H12   1259 0.16730000   1.008000   ; qtot -0.052201
 1260          c     50    bbb     C7   1260 0.72110000  12.010000   ; qtot 0.668899
 1261          c     50    bbb     C8   1261 0.72110000  12.010000   ; qtot 1.389999
 1262          o     50    bbb     O1   1262 -0.61950000  16.000000   ; qtot 0.770499
 1263          o     50    bbb     O2   1263 -0.61950000  16.000000   ; qtot 0.150999
 1264          n     50    bbb     N4   1264 -0.46580000  14.010000   ; qtot -0.314801
 1265         hn     50    bbb    H21   1265 0.31480000   1.008000   ; qtot -0.000001
; residue   51 bbb rtp bbb q -0.0
 1266         c3     51    bbb     C1   1266 0.44180000  12.010000   ; qtot 0.441799
 1267         h1     51    bbb     H1   1267 -0.03530000   1.008000   ; qtot 0.406499
 1268         h1     51    bbb     H2   1268 -0.03530000   1.008000   ; qtot 0.371199
 1269         c3     51    bbb     C2   1269 -0.28250000  12.010000   ; qtot 0.088699
 1270         h1     51    bbb     H3   1270 0.15710000   1.008000   ; qtot 0.245799
 1271         h1     51    bbb     H4   1271 0.15710000   1.008000   ; qtot 0.402899
 1272         n3     51    bbb     N1   1272 -0.74090000  14.010000   ; qtot -0.338001
 1273         c3     51    bbb     C3   1273 0.51680000  12.010000   ; qtot 0.178799
 1274         h1     51    bbb     H5   1274 -0.05230000   1.008000   ; qtot 0.126499
 1275         h1     51    bbb     H6   1275 -0.05230000   1.008000   ; qtot 0.074199
 1276         c3     51    bbb     C4   1276 0.51680000  12.010000   ; qtot 0.590999
 1277         h1     51    bbb     H7   1277 -0.05230000   1.008000   ; qtot 0.538699
 1278         h1     51    bbb     H8   1278 -0.05230000   1.008000   ; qtot 0.486399
 1279         c3     51    bbb     C5   1279 -0.60390000  12.010000   ; qtot -0.117501
 1280         hc     51    bbb     H9   1280 0.16730000   1.008000   ; qtot 0.049799
 1281         hc     51    bbb    H10   1281 0.16730000   1.008000   ; qtot 0.217099
 1282         c3     51    bbb     C6   1282 -0.60390000  12.010000   ; qtot -0.386801
 1283         hc     51    bbb    H11   1283 0.16730000   1.008000   ; qtot -0.219501
 1284         hc     51    bbb    H12   1284 0.16730000   1.008000   ; qtot -0.052201
 1285          c     51    bbb     C7   1285 0.72110000  12.010000   ; qtot 0.668899
 1286          c     51    bbb     C8   1286 0.72110000  12.010000   ; qtot 1.389999
 1287          o     51    bbb     O1   1287 -0.61950000  16.000000   ; qtot 0.770499
 1288          o     51    bbb     O2   1288 -0.61950000  16.000000   ; qtot 0.150999
 1289          n     51    bbb     N4   1289 -0.46580000  14.010000   ; qtot -0.314801
 1290         hn     51    bbb    H21   1290 0.31480000   1.008000   ; qtot -0.000001
; residue   52 bbb rtp bbb q -0.0
 1291         c3     52    bbb     C1   1291 0.44180000  12.010000   ; qtot 0.441799
 1292         h1     52    bbb     H1   1292 -0.03530000   1.008000   ; qtot 0.406499
 1293         h1     52    bbb     H2   1293 -0.03530000   1.008000   ; qtot 0.371199
 1294         c3     52    bbb     C2   1294 -0.28250000  12.010000   ; qtot 0.088699
 1295         h1     52    bbb     H3   1295 0.15710000   1.008000   ; qtot 0.245799
 1296         h1     52    bbb     H4   1296 0.15710000   1.008000   ; qtot 0.402899
 1297         n3     52    bbb     N1   1297 -0.74090000  14.010000   ; qtot -0.338001
 1298         c3     52    bbb     C3   1298 0.51680000  12.010000   ; qtot 0.178799
 1299         h1     52    bbb     H5   1299 -0.05230000   1.008000   ; qtot 0.126499
 1300         h1     52    bbb     H6   1300 -0.05230000   1.008000   ; qtot 0.074199
 1301         c3     52    bbb     C4   1301 0.51680000  12.010000   ; qtot 0.590999
 1302         h1     52    bbb     H7   1302 -0.05230000   1.008000   ; qtot 0.538699
 1303         h1     52    bbb     H8   1303 -0.05230000   1.008000   ; qtot 0.486399
 1304         c3     52    bbb     C5   1304 -0.60390000  12.010000   ; qtot -0.117501
 1305         hc     52    bbb     H9   1305 0.16730000   1.008000   ; qtot 0.049799
 1306         hc     52    bbb    H10   1306 0.16730000   1.008000   ; qtot 0.217099
 1307         c3     52    bbb     C6   1307 -0.60390000  12.010000   ; qtot -0.386801
 1308         hc     52    bbb    H11   1308 0.16730000   1.008000   ; qtot -0.219501
 1309         hc     52    bbb    H12   1309 0.16730000   1.008000   ; qtot -0.052201
 1310          c     52    bbb     C7   1310 0.72110000  12.010000   ; qtot 0.668899
 1311          c     52    bbb     C8   1311 0.72110000  12.010000   ; qtot 1.389999
 1312          o     52    bbb     O1   1312 -0.61950000  16.000000   ; qtot 0.770499
 1313          o     52    bbb     O2   1313 -0.61950000  16.000000   ; qtot 0.150999
 1314          n     52    bbb     N4   1314 -0.46580000  14.010000   ; qtot -0.314801
 1315         hn     52    bbb    H21   1315 0.31480000   1.008000   ; qtot -0.000001
; residue   53 bbb rtp bbb q -0.0
 1316         c3     53    bbb     C1   1316 0.44180000  12.010000   ; qtot 0.441799
 1317         h1     53    bbb     H1   1317 -0.03530000   1.008000   ; qtot 0.406499
 1318         h1     53    bbb     H2   1318 -0.03530000   1.008000   ; qtot 0.371199
 1319         c3     53    bbb     C2   1319 -0.28250000  12.010000   ; qtot 0.088699
 1320         h1     53    bbb     H3   1320 0.15710000   1.008000   ; qtot 0.245799
 1321         h1     53    bbb     H4   1321 0.15710000   1.008000   ; qtot 0.402899
 1322         n3     53    bbb     N1   1322 -0.74090000  14.010000   ; qtot -0.338001
 1323         c3     53    bbb     C3   1323 0.51680000  12.010000   ; qtot 0.178799
 1324         h1     53    bbb     H5   1324 -0.05230000   1.008000   ; qtot 0.126499
 1325         h1     53    bbb     H6   1325 -0.05230000   1.008000   ; qtot 0.074199
 1326         c3     53    bbb     C4   1326 0.51680000  12.010000   ; qtot 0.590999
 1327         h1     53    bbb     H7   1327 -0.05230000   1.008000   ; qtot 0.538699
 1328         h1     53    bbb     H8   1328 -0.05230000   1.008000   ; qtot 0.486399
 1329         c3     53    bbb     C5   1329 -0.60390000  12.010000   ; qtot -0.117501
 1330         hc     53    bbb     H9   1330 0.16730000   1.008000   ; qtot 0.049799
 1331         hc     53    bbb    H10   1331 0.16730000   1.008000   ; qtot 0.217099
 1332         c3     53    bbb     C6   1332 -0.60390000  12.010000   ; qtot -0.386801
 1333         hc     53    bbb    H11   1333 0.16730000   1.008000   ; qtot -0.219501
 1334         hc     53    bbb    H12   1334 0.16730000   1.008000   ; qtot -0.052201
 1335          c     53    bbb     C7   1335 0.72110000  12.010000   ; qtot 0.668899
 1336          c     53    bbb     C8   1336 0.72110000  12.010000   ; qtot 1.389999
 1337          o     53    bbb     O1   1337 -0.61950000  16.000000   ; qtot 0.770499
 1338          o     53    bbb     O2   1338 -0.61950000  16.000000   ; qtot 0.150999
 1339          n     53    bbb     N4   1339 -0.46580000  14.010000   ; qtot -0.314801
 1340         hn     53    bbb    H21   1340 0.31480000   1.008000   ; qtot -0.000001
; residue   54 bbb rtp bbb q -0.0
 1341         c3     54    bbb     C1   1341 0.44180000  12.010000   ; qtot 0.441799
 1342         h1     54    bbb     H1   1342 -0.03530000   1.008000   ; qtot 0.406499
 1343         h1     54    bbb     H2   1343 -0.03530000   1.008000   ; qtot 0.371199
 1344         c3     54    bbb     C2   1344 -0.28250000  12.010000   ; qtot 0.088699
 1345         h1     54    bbb     H3   1345 0.15710000   1.008000   ; qtot 0.245799
 1346         h1     54    bbb     H4   1346 0.15710000   1.008000   ; qtot 0.402899
 1347         n3     54    bbb     N1   1347 -0.74090000  14.010000   ; qtot -0.338001
 1348         c3     54    bbb     C3   1348 0.51680000  12.010000   ; qtot 0.178799
 1349         h1     54    bbb     H5   1349 -0.05230000   1.008000   ; qtot 0.126499
 1350         h1     54    bbb     H6   1350 -0.05230000   1.008000   ; qtot 0.074199
 1351         c3     54    bbb     C4   1351 0.51680000  12.010000   ; qtot 0.590999
 1352         h1     54    bbb     H7   1352 -0.05230000   1.008000   ; qtot 0.538699
 1353         h1     54    bbb     H8   1353 -0.05230000   1.008000   ; qtot 0.486399
 1354         c3     54    bbb     C5   1354 -0.60390000  12.010000   ; qtot -0.117501
 1355         hc     54    bbb     H9   1355 0.16730000   1.008000   ; qtot 0.049799
 1356         hc     54    bbb    H10   1356 0.16730000   1.008000   ; qtot 0.217099
 1357         c3     54    bbb     C6   1357 -0.60390000  12.010000   ; qtot -0.386801
 1358         hc     54    bbb    H11   1358 0.16730000   1.008000   ; qtot -0.219501
 1359         hc     54    bbb    H12   1359 0.16730000   1.008000   ; qtot -0.052201
 1360          c     54    bbb     C7   1360 0.72110000  12.010000   ; qtot 0.668899
 1361          c     54    bbb     C8   1361 0.72110000  12.010000   ; qtot 1.389999
 1362          o     54    bbb     O1   1362 -0.61950000  16.000000   ; qtot 0.770499
 1363          o     54    bbb     O2   1363 -0.61950000  16.000000   ; qtot 0.150999
 1364          n     54    bbb     N4   1364 -0.46580000  14.010000   ; qtot -0.314801
 1365         hn     54    bbb    H21   1365 0.31480000   1.008000   ; qtot -0.000001
; residue   55 bbb rtp bbb q -0.0
 1366         c3     55    bbb     C1   1366 0.44180000  12.010000   ; qtot 0.441799
 1367         h1     55    bbb     H1   1367 -0.03530000   1.008000   ; qtot 0.406499
 1368         h1     55    bbb     H2   1368 -0.03530000   1.008000   ; qtot 0.371199
 1369         c3     55    bbb     C2   1369 -0.28250000  12.010000   ; qtot 0.088699
 1370         h1     55    bbb     H3   1370 0.15710000   1.008000   ; qtot 0.245799
 1371         h1     55    bbb     H4   1371 0.15710000   1.008000   ; qtot 0.402899
 1372         n3     55    bbb     N1   1372 -0.74090000  14.010000   ; qtot -0.338001
 1373         c3     55    bbb     C3   1373 0.51680000  12.010000   ; qtot 0.178799
 1374         h1     55    bbb     H5   1374 -0.05230000   1.008000   ; qtot 0.126499
 1375         h1     55    bbb     H6   1375 -0.05230000   1.008000   ; qtot 0.074199
 1376         c3     55    bbb     C4   1376 0.51680000  12.010000   ; qtot 0.590999
 1377         h1     55    bbb     H7   1377 -0.05230000   1.008000   ; qtot 0.538699
 1378         h1     55    bbb     H8   1378 -0.05230000   1.008000   ; qtot 0.486399
 1379         c3     55    bbb     C5   1379 -0.60390000  12.010000   ; qtot -0.117501
 1380         hc     55    bbb     H9   1380 0.16730000   1.008000   ; qtot 0.049799
 1381         hc     55    bbb    H10   1381 0.16730000   1.008000   ; qtot 0.217099
 1382         c3     55    bbb     C6   1382 -0.60390000  12.010000   ; qtot -0.386801
 1383         hc     55    bbb    H11   1383 0.16730000   1.008000   ; qtot -0.219501
 1384         hc     55    bbb    H12   1384 0.16730000   1.008000   ; qtot -0.052201
 1385          c     55    bbb     C7   1385 0.72110000  12.010000   ; qtot 0.668899
 1386          c     55    bbb     C8   1386 0.72110000  12.010000   ; qtot 1.389999
 1387          o     55    bbb     O1   1387 -0.61950000  16.000000   ; qtot 0.770499
 1388          o     55    bbb     O2   1388 -0.61950000  16.000000   ; qtot 0.150999
 1389          n     55    bbb     N4   1389 -0.46580000  14.010000   ; qtot -0.314801
 1390         hn     55    bbb    H21   1390 0.31480000   1.008000   ; qtot -0.000001
; residue   56 bbb rtp bbb q -0.0
 1391         c3     56    bbb     C1   1391 0.44180000  12.010000   ; qtot 0.441799
 1392         h1     56    bbb     H1   1392 -0.03530000   1.008000   ; qtot 0.406499
 1393         h1     56    bbb     H2   1393 -0.03530000   1.008000   ; qtot 0.371199
 1394         c3     56    bbb     C2   1394 -0.28250000  12.010000   ; qtot 0.088699
 1395         h1     56    bbb     H3   1395 0.15710000   1.008000   ; qtot 0.245799
 1396         h1     56    bbb     H4   1396 0.15710000   1.008000   ; qtot 0.402899
 1397         n3     56    bbb     N1   1397 -0.74090000  14.010000   ; qtot -0.338001
 1398         c3     56    bbb     C3   1398 0.51680000  12.010000   ; qtot 0.178799
 1399         h1     56    bbb     H5   1399 -0.05230000   1.008000   ; qtot 0.126499
 1400         h1     56    bbb     H6   1400 -0.05230000   1.008000   ; qtot 0.074199
 1401         c3     56    bbb     C4   1401 0.51680000  12.010000   ; qtot 0.590999
 1402         h1     56    bbb     H7   1402 -0.05230000   1.008000   ; qtot 0.538699
 1403         h1     56    bbb     H8   1403 -0.05230000   1.008000   ; qtot 0.486399
 1404         c3     56    bbb     C5   1404 -0.60390000  12.010000   ; qtot -0.117501
 1405         hc     56    bbb     H9   1405 0.16730000   1.008000   ; qtot 0.049799
 1406         hc     56    bbb    H10   1406 0.16730000   1.008000   ; qtot 0.217099
 1407         c3     56    bbb     C6   1407 -0.60390000  12.010000   ; qtot -0.386801
 1408         hc     56    bbb    H11   1408 0.16730000   1.008000   ; qtot -0.219501
 1409         hc     56    bbb    H12   1409 0.16730000   1.008000   ; qtot -0.052201
 1410          c     56    bbb     C7   1410 0.72110000  12.010000   ; qtot 0.668899
 1411          c     56    bbb     C8   1411 0.72110000  12.010000   ; qtot 1.389999
 1412          o     56    bbb     O1   1412 -0.61950000  16.000000   ; qtot 0.770499
 1413          o     56    bbb     O2   1413 -0.61950000  16.000000   ; qtot 0.150999
 1414          n     56    bbb     N4   1414 -0.46580000  14.010000   ; qtot -0.314801
 1415         hn     56    bbb    H21   1415 0.31480000   1.008000   ; qtot -0.000001
; residue   57 bbb rtp bbb q -0.0
 1416         c3     57    bbb     C1   1416 0.44180000  12.010000   ; qtot 0.441799
 1417         h1     57    bbb     H1   1417 -0.03530000   1.008000   ; qtot 0.406499
 1418         h1     57    bbb     H2   1418 -0.03530000   1.008000   ; qtot 0.371199
 1419         c3     57    bbb     C2   1419 -0.28250000  12.010000   ; qtot 0.088699
 1420         h1     57    bbb     H3   1420 0.15710000   1.008000   ; qtot 0.245799
 1421         h1     57    bbb     H4   1421 0.15710000   1.008000   ; qtot 0.402899
 1422         n3     57    bbb     N1   1422 -0.74090000  14.010000   ; qtot -0.338001
 1423         c3     57    bbb     C3   1423 0.51680000  12.010000   ; qtot 0.178799
 1424         h1     57    bbb     H5   1424 -0.05230000   1.008000   ; qtot 0.126499
 1425         h1     57    bbb     H6   1425 -0.05230000   1.008000   ; qtot 0.074199
 1426         c3     57    bbb     C4   1426 0.51680000  12.010000   ; qtot 0.590999
 1427         h1     57    bbb     H7   1427 -0.05230000   1.008000   ; qtot 0.538699
 1428         h1     57    bbb     H8   1428 -0.05230000   1.008000   ; qtot 0.486399
 1429         c3     57    bbb     C5   1429 -0.60390000  12.010000   ; qtot -0.117501
 1430         hc     57    bbb     H9   1430 0.16730000   1.008000   ; qtot 0.049799
 1431         hc     57    bbb    H10   1431 0.16730000   1.008000   ; qtot 0.217099
 1432         c3     57    bbb     C6   1432 -0.60390000  12.010000   ; qtot -0.386801
 1433         hc     57    bbb    H11   1433 0.16730000   1.008000   ; qtot -0.219501
 1434         hc     57    bbb    H12   1434 0.16730000   1.008000   ; qtot -0.052201
 1435          c     57    bbb     C7   1435 0.72110000  12.010000   ; qtot 0.668899
 1436          c     57    bbb     C8   1436 0.72110000  12.010000   ; qtot 1.389999
 1437          o     57    bbb     O1   1437 -0.61950000  16.000000   ; qtot 0.770499
 1438          o     57    bbb     O2   1438 -0.61950000  16.000000   ; qtot 0.150999
 1439          n     57    bbb     N4   1439 -0.46580000  14.010000   ; qtot -0.314801
 1440         hn     57    bbb    H21   1440 0.31480000   1.008000   ; qtot -0.000001
; residue   58 bbb rtp bbb q -0.0
 1441         c3     58    bbb     C1   1441 0.44180000  12.010000   ; qtot 0.441799
 1442         h1     58    bbb     H1   1442 -0.03530000   1.008000   ; qtot 0.406499
 1443         h1     58    bbb     H2   1443 -0.03530000   1.008000   ; qtot 0.371199
 1444         c3     58    bbb     C2   1444 -0.28250000  12.010000   ; qtot 0.088699
 1445         h1     58    bbb     H3   1445 0.15710000   1.008000   ; qtot 0.245799
 1446         h1     58    bbb     H4   1446 0.15710000   1.008000   ; qtot 0.402899
 1447         n3     58    bbb     N1   1447 -0.74090000  14.010000   ; qtot -0.338001
 1448         c3     58    bbb     C3   1448 0.51680000  12.010000   ; qtot 0.178799
 1449         h1     58    bbb     H5   1449 -0.05230000   1.008000   ; qtot 0.126499
 1450         h1     58    bbb     H6   1450 -0.05230000   1.008000   ; qtot 0.074199
 1451         c3     58    bbb     C4   1451 0.51680000  12.010000   ; qtot 0.590999
 1452         h1     58    bbb     H7   1452 -0.05230000   1.008000   ; qtot 0.538699
 1453         h1     58    bbb     H8   1453 -0.05230000   1.008000   ; qtot 0.486399
 1454         c3     58    bbb     C5   1454 -0.60390000  12.010000   ; qtot -0.117501
 1455         hc     58    bbb     H9   1455 0.16730000   1.008000   ; qtot 0.049799
 1456         hc     58    bbb    H10   1456 0.16730000   1.008000   ; qtot 0.217099
 1457         c3     58    bbb     C6   1457 -0.60390000  12.010000   ; qtot -0.386801
 1458         hc     58    bbb    H11   1458 0.16730000   1.008000   ; qtot -0.219501
 1459         hc     58    bbb    H12   1459 0.16730000   1.008000   ; qtot -0.052201
 1460          c     58    bbb     C7   1460 0.72110000  12.010000   ; qtot 0.668899
 1461          c     58    bbb     C8   1461 0.72110000  12.010000   ; qtot 1.389999
 1462          o     58    bbb     O1   1462 -0.61950000  16.000000   ; qtot 0.770499
 1463          o     58    bbb     O2   1463 -0.61950000  16.000000   ; qtot 0.150999
 1464          n     58    bbb     N4   1464 -0.46580000  14.010000   ; qtot -0.314801
 1465         hn     58    bbb    H21   1465 0.31480000   1.008000   ; qtot -0.000001
; residue   59 bbb rtp bbb q -0.0
 1466         c3     59    bbb     C1   1466 0.44180000  12.010000   ; qtot 0.441799
 1467         h1     59    bbb     H1   1467 -0.03530000   1.008000   ; qtot 0.406499
 1468         h1     59    bbb     H2   1468 -0.03530000   1.008000   ; qtot 0.371199
 1469         c3     59    bbb     C2   1469 -0.28250000  12.010000   ; qtot 0.088699
 1470         h1     59    bbb     H3   1470 0.15710000   1.008000   ; qtot 0.245799
 1471         h1     59    bbb     H4   1471 0.15710000   1.008000   ; qtot 0.402899
 1472         n3     59    bbb     N1   1472 -0.74090000  14.010000   ; qtot -0.338001
 1473         c3     59    bbb     C3   1473 0.51680000  12.010000   ; qtot 0.178799
 1474         h1     59    bbb     H5   1474 -0.05230000   1.008000   ; qtot 0.126499
 1475         h1     59    bbb     H6   1475 -0.05230000   1.008000   ; qtot 0.074199
 1476         c3     59    bbb     C4   1476 0.51680000  12.010000   ; qtot 0.590999
 1477         h1     59    bbb     H7   1477 -0.05230000   1.008000   ; qtot 0.538699
 1478         h1     59    bbb     H8   1478 -0.05230000   1.008000   ; qtot 0.486399
 1479         c3     59    bbb     C5   1479 -0.60390000  12.010000   ; qtot -0.117501
 1480         hc     59    bbb     H9   1480 0.16730000   1.008000   ; qtot 0.049799
 1481         hc     59    bbb    H10   1481 0.16730000   1.008000   ; qtot 0.217099
 1482         c3     59    bbb     C6   1482 -0.60390000  12.010000   ; qtot -0.386801
 1483         hc     59    bbb    H11   1483 0.16730000   1.008000   ; qtot -0.219501
 1484         hc     59    bbb    H12   1484 0.16730000   1.008000   ; qtot -0.052201
 1485          c     59    bbb     C7   1485 0.72110000  12.010000   ; qtot 0.668899
 1486          c     59    bbb     C8   1486 0.72110000  12.010000   ; qtot 1.389999
 1487          o     59    bbb     O1   1487 -0.61950000  16.000000   ; qtot 0.770499
 1488          o     59    bbb     O2   1488 -0.61950000  16.000000   ; qtot 0.150999
 1489          n     59    bbb     N4   1489 -0.46580000  14.010000   ; qtot -0.314801
 1490         hn     59    bbb    H21   1490 0.31480000   1.008000   ; qtot -0.000001
; residue   60 bbb rtp bbb q -0.0
 1491         c3     60    bbb     C1   1491 0.44180000  12.010000   ; qtot 0.441799
 1492         h1     60    bbb     H1   1492 -0.03530000   1.008000   ; qtot 0.406499
 1493         h1     60    bbb     H2   1493 -0.03530000   1.008000   ; qtot 0.371199
 1494         c3     60    bbb     C2   1494 -0.28250000  12.010000   ; qtot 0.088699
 1495         h1     60    bbb     H3   1495 0.15710000   1.008000   ; qtot 0.245799
 1496         h1     60    bbb     H4   1496 0.15710000   1.008000   ; qtot 0.402899
 1497         n3     60    bbb     N1   1497 -0.74090000  14.010000   ; qtot -0.338001
 1498         c3     60    bbb     C3   1498 0.51680000  12.010000   ; qtot 0.178799
 1499         h1     60    bbb     H5   1499 -0.05230000   1.008000   ; qtot 0.126499
 1500         h1     60    bbb     H6   1500 -0.05230000   1.008000   ; qtot 0.074199
 1501         c3     60    bbb     C4   1501 0.51680000  12.010000   ; qtot 0.590999
 1502         h1     60    bbb     H7   1502 -0.05230000   1.008000   ; qtot 0.538699
 1503         h1     60    bbb     H8   1503 -0.05230000   1.008000   ; qtot 0.486399
 1504         c3     60    bbb     C5   1504 -0.60390000  12.010000   ; qtot -0.117501
 1505         hc     60    bbb     H9   1505 0.16730000   1.008000   ; qtot 0.049799
 1506         hc     60    bbb    H10   1506 0.16730000   1.008000   ; qtot 0.217099
 1507         c3     60    bbb     C6   1507 -0.60390000  12.010000   ; qtot -0.386801
 1508         hc     60    bbb    H11   1508 0.16730000   1.008000   ; qtot -0.219501
 1509         hc     60    bbb    H12   1509 0.16730000   1.008000   ; qtot -0.052201
 1510          c     60    bbb     C7   1510 0.72110000  12.010000   ; qtot 0.668899
 1511          c     60    bbb     C8   1511 0.72110000  12.010000   ; qtot 1.389999
 1512          o     60    bbb     O1   1512 -0.61950000  16.000000   ; qtot 0.770499
 1513          o     60    bbb     O2   1513 -0.61950000  16.000000   ; qtot 0.150999
 1514          n     60    bbb     N4   1514 -0.46580000  14.010000   ; qtot -0.314801
 1515         hn     60    bbb    H21   1515 0.31480000   1.008000   ; qtot -0.000001
; residue   61 bbb rtp bbb q -0.0
 1516         c3     61    bbb     C1   1516 0.44180000  12.010000   ; qtot 0.441799
 1517         h1     61    bbb     H1   1517 -0.03530000   1.008000   ; qtot 0.406499
 1518         h1     61    bbb     H2   1518 -0.03530000   1.008000   ; qtot 0.371199
 1519         c3     61    bbb     C2   1519 -0.28250000  12.010000   ; qtot 0.088699
 1520         h1     61    bbb     H3   1520 0.15710000   1.008000   ; qtot 0.245799
 1521         h1     61    bbb     H4   1521 0.15710000   1.008000   ; qtot 0.402899
 1522         n3     61    bbb     N1   1522 -0.74090000  14.010000   ; qtot -0.338001
 1523         c3     61    bbb     C3   1523 0.51680000  12.010000   ; qtot 0.178799
 1524         h1     61    bbb     H5   1524 -0.05230000   1.008000   ; qtot 0.126499
 1525         h1     61    bbb     H6   1525 -0.05230000   1.008000   ; qtot 0.074199
 1526         c3     61    bbb     C4   1526 0.51680000  12.010000   ; qtot 0.590999
 1527         h1     61    bbb     H7   1527 -0.05230000   1.008000   ; qtot 0.538699
 1528         h1     61    bbb     H8   1528 -0.05230000   1.008000   ; qtot 0.486399
 1529         c3     61    bbb     C5   1529 -0.60390000  12.010000   ; qtot -0.117501
 1530         hc     61    bbb     H9   1530 0.16730000   1.008000   ; qtot 0.049799
 1531         hc     61    bbb    H10   1531 0.16730000   1.008000   ; qtot 0.217099
 1532         c3     61    bbb     C6   1532 -0.60390000  12.010000   ; qtot -0.386801
 1533         hc     61    bbb    H11   1533 0.16730000   1.008000   ; qtot -0.219501
 1534         hc     61    bbb    H12   1534 0.16730000   1.008000   ; qtot -0.052201
 1535          c     61    bbb     C7   1535 0.72110000  12.010000   ; qtot 0.668899
 1536          c     61    bbb     C8   1536 0.72110000  12.010000   ; qtot 1.389999
 1537          o     61    bbb     O1   1537 -0.61950000  16.000000   ; qtot 0.770499
 1538          o     61    bbb     O2   1538 -0.61950000  16.000000   ; qtot 0.150999
 1539          n     61    bbb     N4   1539 -0.46580000  14.010000   ; qtot -0.314801
 1540         hn     61    bbb    H21   1540 0.31480000   1.008000   ; qtot -0.000001
; residue   62 bbb rtp bbb q -0.0
 1541         c3     62    bbb     C1   1541 0.44180000  12.010000   ; qtot 0.441799
 1542         h1     62    bbb     H1   1542 -0.03530000   1.008000   ; qtot 0.406499
 1543         h1     62    bbb     H2   1543 -0.03530000   1.008000   ; qtot 0.371199
 1544         c3     62    bbb     C2   1544 -0.28250000  12.010000   ; qtot 0.088699
 1545         h1     62    bbb     H3   1545 0.15710000   1.008000   ; qtot 0.245799
 1546         h1     62    bbb     H4   1546 0.15710000   1.008000   ; qtot 0.402899
 1547         n3     62    bbb     N1   1547 -0.74090000  14.010000   ; qtot -0.338001
 1548         c3     62    bbb     C3   1548 0.51680000  12.010000   ; qtot 0.178799
 1549         h1     62    bbb     H5   1549 -0.05230000   1.008000   ; qtot 0.126499
 1550         h1     62    bbb     H6   1550 -0.05230000   1.008000   ; qtot 0.074199
 1551         c3     62    bbb     C4   1551 0.51680000  12.010000   ; qtot 0.590999
 1552         h1     62    bbb     H7   1552 -0.05230000   1.008000   ; qtot 0.538699
 1553         h1     62    bbb     H8   1553 -0.05230000   1.008000   ; qtot 0.486399
 1554         c3     62    bbb     C5   1554 -0.60390000  12.010000   ; qtot -0.117501
 1555         hc     62    bbb     H9   1555 0.16730000   1.008000   ; qtot 0.049799
 1556         hc     62    bbb    H10   1556 0.16730000   1.008000   ; qtot 0.217099
 1557         c3     62    bbb     C6   1557 -0.60390000  12.010000   ; qtot -0.386801
 1558         hc     62    bbb    H11   1558 0.16730000   1.008000   ; qtot -0.219501
 1559         hc     62    bbb    H12   1559 0.16730000   1.008000   ; qtot -0.052201
 1560          c     62    bbb     C7   1560 0.72110000  12.010000   ; qtot 0.668899
 1561          c     62    bbb     C8   1561 0.72110000  12.010000   ; qtot 1.389999
 1562          o     62    bbb     O1   1562 -0.61950000  16.000000   ; qtot 0.770499
 1563          o     62    bbb     O2   1563 -0.61950000  16.000000   ; qtot 0.150999
 1564          n     62    bbb     N4   1564 -0.46580000  14.010000   ; qtot -0.314801
 1565         hn     62    bbb    H21   1565 0.31480000   1.008000   ; qtot -0.000001
; residue   63 bbb rtp bbb q -0.0
 1566         c3     63    bbb     C1   1566 0.44180000  12.010000   ; qtot 0.441799
 1567         h1     63    bbb     H1   1567 -0.03530000   1.008000   ; qtot 0.406499
 1568         h1     63    bbb     H2   1568 -0.03530000   1.008000   ; qtot 0.371199
 1569         c3     63    bbb     C2   1569 -0.28250000  12.010000   ; qtot 0.088699
 1570         h1     63    bbb     H3   1570 0.15710000   1.008000   ; qtot 0.245799
 1571         h1     63    bbb     H4   1571 0.15710000   1.008000   ; qtot 0.402899
 1572         n3     63    bbb     N1   1572 -0.74090000  14.010000   ; qtot -0.338001
 1573         c3     63    bbb     C3   1573 0.51680000  12.010000   ; qtot 0.178799
 1574         h1     63    bbb     H5   1574 -0.05230000   1.008000   ; qtot 0.126499
 1575         h1     63    bbb     H6   1575 -0.05230000   1.008000   ; qtot 0.074199
 1576         c3     63    bbb     C4   1576 0.51680000  12.010000   ; qtot 0.590999
 1577         h1     63    bbb     H7   1577 -0.05230000   1.008000   ; qtot 0.538699
 1578         h1     63    bbb     H8   1578 -0.05230000   1.008000   ; qtot 0.486399
 1579         c3     63    bbb     C5   1579 -0.60390000  12.010000   ; qtot -0.117501
 1580         hc     63    bbb     H9   1580 0.16730000   1.008000   ; qtot 0.049799
 1581         hc     63    bbb    H10   1581 0.16730000   1.008000   ; qtot 0.217099
 1582         c3     63    bbb     C6   1582 -0.60390000  12.010000   ; qtot -0.386801
 1583         hc     63    bbb    H11   1583 0.16730000   1.008000   ; qtot -0.219501
 1584         hc     63    bbb    H12   1584 0.16730000   1.008000   ; qtot -0.052201
 1585          c     63    bbb     C7   1585 0.72110000  12.010000   ; qtot 0.668899
 1586          c     63    bbb     C8   1586 0.72110000  12.010000   ; qtot 1.389999
 1587          o     63    bbb     O1   1587 -0.61950000  16.000000   ; qtot 0.770499
 1588          o     63    bbb     O2   1588 -0.61950000  16.000000   ; qtot 0.150999
 1589          n     63    bbb     N4   1589 -0.46580000  14.010000   ; qtot -0.314801
 1590         hn     63    bbb    H21   1590 0.31480000   1.008000   ; qtot -0.000001
; residue   64 bbb rtp bbb q -0.0
 1591         c3     64    bbb     C1   1591 0.44180000  12.010000   ; qtot 0.441799
 1592         h1     64    bbb     H1   1592 -0.03530000   1.008000   ; qtot 0.406499
 1593         h1     64    bbb     H2   1593 -0.03530000   1.008000   ; qtot 0.371199
 1594         c3     64    bbb     C2   1594 -0.28250000  12.010000   ; qtot 0.088699
 1595         h1     64    bbb     H3   1595 0.15710000   1.008000   ; qtot 0.245799
 1596         h1     64    bbb     H4   1596 0.15710000   1.008000   ; qtot 0.402899
 1597         n3     64    bbb     N1   1597 -0.74090000  14.010000   ; qtot -0.338001
 1598         c3     64    bbb     C3   1598 0.51680000  12.010000   ; qtot 0.178799
 1599         h1     64    bbb     H5   1599 -0.05230000   1.008000   ; qtot 0.126499
 1600         h1     64    bbb     H6   1600 -0.05230000   1.008000   ; qtot 0.074199
 1601         c3     64    bbb     C4   1601 0.51680000  12.010000   ; qtot 0.590999
 1602         h1     64    bbb     H7   1602 -0.05230000   1.008000   ; qtot 0.538699
 1603         h1     64    bbb     H8   1603 -0.05230000   1.008000   ; qtot 0.486399
 1604         c3     64    bbb     C5   1604 -0.60390000  12.010000   ; qtot -0.117501
 1605         hc     64    bbb     H9   1605 0.16730000   1.008000   ; qtot 0.049799
 1606         hc     64    bbb    H10   1606 0.16730000   1.008000   ; qtot 0.217099
 1607         c3     64    bbb     C6   1607 -0.60390000  12.010000   ; qtot -0.386801
 1608         hc     64    bbb    H11   1608 0.16730000   1.008000   ; qtot -0.219501
 1609         hc     64    bbb    H12   1609 0.16730000   1.008000   ; qtot -0.052201
 1610          c     64    bbb     C7   1610 0.72110000  12.010000   ; qtot 0.668899
 1611          c     64    bbb     C8   1611 0.72110000  12.010000   ; qtot 1.389999
 1612          o     64    bbb     O1   1612 -0.61950000  16.000000   ; qtot 0.770499
 1613          o     64    bbb     O2   1613 -0.61950000  16.000000   ; qtot 0.150999
 1614          n     64    bbb     N4   1614 -0.46580000  14.010000   ; qtot -0.314801
 1615         hn     64    bbb    H21   1615 0.31480000   1.008000   ; qtot -0.000001
; residue   65 bbb rtp bbb q -0.0
 1616         c3     65    bbb     C1   1616 0.44180000  12.010000   ; qtot 0.441799
 1617         h1     65    bbb     H1   1617 -0.03530000   1.008000   ; qtot 0.406499
 1618         h1     65    bbb     H2   1618 -0.03530000   1.008000   ; qtot 0.371199
 1619         c3     65    bbb     C2   1619 -0.28250000  12.010000   ; qtot 0.088699
 1620         h1     65    bbb     H3   1620 0.15710000   1.008000   ; qtot 0.245799
 1621         h1     65    bbb     H4   1621 0.15710000   1.008000   ; qtot 0.402899
 1622         n3     65    bbb     N1   1622 -0.74090000  14.010000   ; qtot -0.338001
 1623         c3     65    bbb     C3   1623 0.51680000  12.010000   ; qtot 0.178799
 1624         h1     65    bbb     H5   1624 -0.05230000   1.008000   ; qtot 0.126499
 1625         h1     65    bbb     H6   1625 -0.05230000   1.008000   ; qtot 0.074199
 1626         c3     65    bbb     C4   1626 0.51680000  12.010000   ; qtot 0.590999
 1627         h1     65    bbb     H7   1627 -0.05230000   1.008000   ; qtot 0.538699
 1628         h1     65    bbb     H8   1628 -0.05230000   1.008000   ; qtot 0.486399
 1629         c3     65    bbb     C5   1629 -0.60390000  12.010000   ; qtot -0.117501
 1630         hc     65    bbb     H9   1630 0.16730000   1.008000   ; qtot 0.049799
 1631         hc     65    bbb    H10   1631 0.16730000   1.008000   ; qtot 0.217099
 1632         c3     65    bbb     C6   1632 -0.60390000  12.010000   ; qtot -0.386801
 1633         hc     65    bbb    H11   1633 0.16730000   1.008000   ; qtot -0.219501
 1634         hc     65    bbb    H12   1634 0.16730000   1.008000   ; qtot -0.052201
 1635          c     65    bbb     C7   1635 0.72110000  12.010000   ; qtot 0.668899
 1636          c     65    bbb     C8   1636 0.72110000  12.010000   ; qtot 1.389999
 1637          o     65    bbb     O1   1637 -0.61950000  16.000000   ; qtot 0.770499
 1638          o     65    bbb     O2   1638 -0.61950000  16.000000   ; qtot 0.150999
 1639          n     65    bbb     N4   1639 -0.46580000  14.010000   ; qtot -0.314801
 1640         hn     65    bbb    H21   1640 0.31480000   1.008000   ; qtot -0.000001
; residue   66 bbb rtp bbb q -0.0
 1641         c3     66    bbb     C1   1641 0.44180000  12.010000   ; qtot 0.441799
 1642         h1     66    bbb     H1   1642 -0.03530000   1.008000   ; qtot 0.406499
 1643         h1     66    bbb     H2   1643 -0.03530000   1.008000   ; qtot 0.371199
 1644         c3     66    bbb     C2   1644 -0.28250000  12.010000   ; qtot 0.088699
 1645         h1     66    bbb     H3   1645 0.15710000   1.008000   ; qtot 0.245799
 1646         h1     66    bbb     H4   1646 0.15710000   1.008000   ; qtot 0.402899
 1647         n3     66    bbb     N1   1647 -0.74090000  14.010000   ; qtot -0.338001
 1648         c3     66    bbb     C3   1648 0.51680000  12.010000   ; qtot 0.178799
 1649         h1     66    bbb     H5   1649 -0.05230000   1.008000   ; qtot 0.126499
 1650         h1     66    bbb     H6   1650 -0.05230000   1.008000   ; qtot 0.074199
 1651         c3     66    bbb     C4   1651 0.51680000  12.010000   ; qtot 0.590999
 1652         h1     66    bbb     H7   1652 -0.05230000   1.008000   ; qtot 0.538699
 1653         h1     66    bbb     H8   1653 -0.05230000   1.008000   ; qtot 0.486399
 1654         c3     66    bbb     C5   1654 -0.60390000  12.010000   ; qtot -0.117501
 1655         hc     66    bbb     H9   1655 0.16730000   1.008000   ; qtot 0.049799
 1656         hc     66    bbb    H10   1656 0.16730000   1.008000   ; qtot 0.217099
 1657         c3     66    bbb     C6   1657 -0.60390000  12.010000   ; qtot -0.386801
 1658         hc     66    bbb    H11   1658 0.16730000   1.008000   ; qtot -0.219501
 1659         hc     66    bbb    H12   1659 0.16730000   1.008000   ; qtot -0.052201
 1660          c     66    bbb     C7   1660 0.72110000  12.010000   ; qtot 0.668899
 1661          c     66    bbb     C8   1661 0.72110000  12.010000   ; qtot 1.389999
 1662          o     66    bbb     O1   1662 -0.61950000  16.000000   ; qtot 0.770499
 1663          o     66    bbb     O2   1663 -0.61950000  16.000000   ; qtot 0.150999
 1664          n     66    bbb     N4   1664 -0.46580000  14.010000   ; qtot -0.314801
 1665         hn     66    bbb    H21   1665 0.31480000   1.008000   ; qtot -0.000001
; residue   67 bbb rtp bbb q -0.0
 1666         c3     67    bbb     C1   1666 0.44180000  12.010000   ; qtot 0.441799
 1667         h1     67    bbb     H1   1667 -0.03530000   1.008000   ; qtot 0.406499
 1668         h1     67    bbb     H2   1668 -0.03530000   1.008000   ; qtot 0.371199
 1669         c3     67    bbb     C2   1669 -0.28250000  12.010000   ; qtot 0.088699
 1670         h1     67    bbb     H3   1670 0.15710000   1.008000   ; qtot 0.245799
 1671         h1     67    bbb     H4   1671 0.15710000   1.008000   ; qtot 0.402899
 1672         n3     67    bbb     N1   1672 -0.74090000  14.010000   ; qtot -0.338001
 1673         c3     67    bbb     C3   1673 0.51680000  12.010000   ; qtot 0.178799
 1674         h1     67    bbb     H5   1674 -0.05230000   1.008000   ; qtot 0.126499
 1675         h1     67    bbb     H6   1675 -0.05230000   1.008000   ; qtot 0.074199
 1676         c3     67    bbb     C4   1676 0.51680000  12.010000   ; qtot 0.590999
 1677         h1     67    bbb     H7   1677 -0.05230000   1.008000   ; qtot 0.538699
 1678         h1     67    bbb     H8   1678 -0.05230000   1.008000   ; qtot 0.486399
 1679         c3     67    bbb     C5   1679 -0.60390000  12.010000   ; qtot -0.117501
 1680         hc     67    bbb     H9   1680 0.16730000   1.008000   ; qtot 0.049799
 1681         hc     67    bbb    H10   1681 0.16730000   1.008000   ; qtot 0.217099
 1682         c3     67    bbb     C6   1682 -0.60390000  12.010000   ; qtot -0.386801
 1683         hc     67    bbb    H11   1683 0.16730000   1.008000   ; qtot -0.219501
 1684         hc     67    bbb    H12   1684 0.16730000   1.008000   ; qtot -0.052201
 1685          c     67    bbb     C7   1685 0.72110000  12.010000   ; qtot 0.668899
 1686          c     67    bbb     C8   1686 0.72110000  12.010000   ; qtot 1.389999
 1687          o     67    bbb     O1   1687 -0.61950000  16.000000   ; qtot 0.770499
 1688          o     67    bbb     O2   1688 -0.61950000  16.000000   ; qtot 0.150999
 1689          n     67    bbb     N4   1689 -0.46580000  14.010000   ; qtot -0.314801
 1690         hn     67    bbb    H21   1690 0.31480000   1.008000   ; qtot -0.000001
; residue   68 bbb rtp bbb q -0.0
 1691         c3     68    bbb     C1   1691 0.44180000  12.010000   ; qtot 0.441799
 1692         h1     68    bbb     H1   1692 -0.03530000   1.008000   ; qtot 0.406499
 1693         h1     68    bbb     H2   1693 -0.03530000   1.008000   ; qtot 0.371199
 1694         c3     68    bbb     C2   1694 -0.28250000  12.010000   ; qtot 0.088699
 1695         h1     68    bbb     H3   1695 0.15710000   1.008000   ; qtot 0.245799
 1696         h1     68    bbb     H4   1696 0.15710000   1.008000   ; qtot 0.402899
 1697         n3     68    bbb     N1   1697 -0.74090000  14.010000   ; qtot -0.338001
 1698         c3     68    bbb     C3   1698 0.51680000  12.010000   ; qtot 0.178799
 1699         h1     68    bbb     H5   1699 -0.05230000   1.008000   ; qtot 0.126499
 1700         h1     68    bbb     H6   1700 -0.05230000   1.008000   ; qtot 0.074199
 1701         c3     68    bbb     C4   1701 0.51680000  12.010000   ; qtot 0.590999
 1702         h1     68    bbb     H7   1702 -0.05230000   1.008000   ; qtot 0.538699
 1703         h1     68    bbb     H8   1703 -0.05230000   1.008000   ; qtot 0.486399
 1704         c3     68    bbb     C5   1704 -0.60390000  12.010000   ; qtot -0.117501
 1705         hc     68    bbb     H9   1705 0.16730000   1.008000   ; qtot 0.049799
 1706         hc     68    bbb    H10   1706 0.16730000   1.008000   ; qtot 0.217099
 1707         c3     68    bbb     C6   1707 -0.60390000  12.010000   ; qtot -0.386801
 1708         hc     68    bbb    H11   1708 0.16730000   1.008000   ; qtot -0.219501
 1709         hc     68    bbb    H12   1709 0.16730000   1.008000   ; qtot -0.052201
 1710          c     68    bbb     C7   1710 0.72110000  12.010000   ; qtot 0.668899
 1711          c     68    bbb     C8   1711 0.72110000  12.010000   ; qtot 1.389999
 1712          o     68    bbb     O1   1712 -0.61950000  16.000000   ; qtot 0.770499
 1713          o     68    bbb     O2   1713 -0.61950000  16.000000   ; qtot 0.150999
 1714          n     68    bbb     N4   1714 -0.46580000  14.010000   ; qtot -0.314801
 1715         hn     68    bbb    H21   1715 0.31480000   1.008000   ; qtot -0.000001
; residue   69 bbb rtp bbb q -0.0
 1716         c3     69    bbb     C1   1716 0.44180000  12.010000   ; qtot 0.441799
 1717         h1     69    bbb     H1   1717 -0.03530000   1.008000   ; qtot 0.406499
 1718         h1     69    bbb     H2   1718 -0.03530000   1.008000   ; qtot 0.371199
 1719         c3     69    bbb     C2   1719 -0.28250000  12.010000   ; qtot 0.088699
 1720         h1     69    bbb     H3   1720 0.15710000   1.008000   ; qtot 0.245799
 1721         h1     69    bbb     H4   1721 0.15710000   1.008000   ; qtot 0.402899
 1722         n3     69    bbb     N1   1722 -0.74090000  14.010000   ; qtot -0.338001
 1723         c3     69    bbb     C3   1723 0.51680000  12.010000   ; qtot 0.178799
 1724         h1     69    bbb     H5   1724 -0.05230000   1.008000   ; qtot 0.126499
 1725         h1     69    bbb     H6   1725 -0.05230000   1.008000   ; qtot 0.074199
 1726         c3     69    bbb     C4   1726 0.51680000  12.010000   ; qtot 0.590999
 1727         h1     69    bbb     H7   1727 -0.05230000   1.008000   ; qtot 0.538699
 1728         h1     69    bbb     H8   1728 -0.05230000   1.008000   ; qtot 0.486399
 1729         c3     69    bbb     C5   1729 -0.60390000  12.010000   ; qtot -0.117501
 1730         hc     69    bbb     H9   1730 0.16730000   1.008000   ; qtot 0.049799
 1731         hc     69    bbb    H10   1731 0.16730000   1.008000   ; qtot 0.217099
 1732         c3     69    bbb     C6   1732 -0.60390000  12.010000   ; qtot -0.386801
 1733         hc     69    bbb    H11   1733 0.16730000   1.008000   ; qtot -0.219501
 1734         hc     69    bbb    H12   1734 0.16730000   1.008000   ; qtot -0.052201
 1735          c     69    bbb     C7   1735 0.72110000  12.010000   ; qtot 0.668899
 1736          c     69    bbb     C8   1736 0.72110000  12.010000   ; qtot 1.389999
 1737          o     69    bbb     O1   1737 -0.61950000  16.000000   ; qtot 0.770499
 1738          o     69    bbb     O2   1738 -0.61950000  16.000000   ; qtot 0.150999
 1739          n     69    bbb     N4   1739 -0.46580000  14.010000   ; qtot -0.314801
 1740         hn     69    bbb    H21   1740 0.31480000   1.008000   ; qtot -0.000001
; residue   70 bbb rtp bbb q -0.0
 1741         c3     70    bbb     C1   1741 0.44180000  12.010000   ; qtot 0.441799
 1742         h1     70    bbb     H1   1742 -0.03530000   1.008000   ; qtot 0.406499
 1743         h1     70    bbb     H2   1743 -0.03530000   1.008000   ; qtot 0.371199
 1744         c3     70    bbb     C2   1744 -0.28250000  12.010000   ; qtot 0.088699
 1745         h1     70    bbb     H3   1745 0.15710000   1.008000   ; qtot 0.245799
 1746         h1     70    bbb     H4   1746 0.15710000   1.008000   ; qtot 0.402899
 1747         n3     70    bbb     N1   1747 -0.74090000  14.010000   ; qtot -0.338001
 1748         c3     70    bbb     C3   1748 0.51680000  12.010000   ; qtot 0.178799
 1749         h1     70    bbb     H5   1749 -0.05230000   1.008000   ; qtot 0.126499
 1750         h1     70    bbb     H6   1750 -0.05230000   1.008000   ; qtot 0.074199
 1751         c3     70    bbb     C4   1751 0.51680000  12.010000   ; qtot 0.590999
 1752         h1     70    bbb     H7   1752 -0.05230000   1.008000   ; qtot 0.538699
 1753         h1     70    bbb     H8   1753 -0.05230000   1.008000   ; qtot 0.486399
 1754         c3     70    bbb     C5   1754 -0.60390000  12.010000   ; qtot -0.117501
 1755         hc     70    bbb     H9   1755 0.16730000   1.008000   ; qtot 0.049799
 1756         hc     70    bbb    H10   1756 0.16730000   1.008000   ; qtot 0.217099
 1757         c3     70    bbb     C6   1757 -0.60390000  12.010000   ; qtot -0.386801
 1758         hc     70    bbb    H11   1758 0.16730000   1.008000   ; qtot -0.219501
 1759         hc     70    bbb    H12   1759 0.16730000   1.008000   ; qtot -0.052201
 1760          c     70    bbb     C7   1760 0.72110000  12.010000   ; qtot 0.668899
 1761          c     70    bbb     C8   1761 0.72110000  12.010000   ; qtot 1.389999
 1762          o     70    bbb     O1   1762 -0.61950000  16.000000   ; qtot 0.770499
 1763          o     70    bbb     O2   1763 -0.61950000  16.000000   ; qtot 0.150999
 1764          n     70    bbb     N4   1764 -0.46580000  14.010000   ; qtot -0.314801
 1765         hn     70    bbb    H21   1765 0.31480000   1.008000   ; qtot -0.000001
; residue   71 bbb rtp bbb q -0.0
 1766         c3     71    bbb     C1   1766 0.44180000  12.010000   ; qtot 0.441799
 1767         h1     71    bbb     H1   1767 -0.03530000   1.008000   ; qtot 0.406499
 1768         h1     71    bbb     H2   1768 -0.03530000   1.008000   ; qtot 0.371199
 1769         c3     71    bbb     C2   1769 -0.28250000  12.010000   ; qtot 0.088699
 1770         h1     71    bbb     H3   1770 0.15710000   1.008000   ; qtot 0.245799
 1771         h1     71    bbb     H4   1771 0.15710000   1.008000   ; qtot 0.402899
 1772         n3     71    bbb     N1   1772 -0.74090000  14.010000   ; qtot -0.338001
 1773         c3     71    bbb     C3   1773 0.51680000  12.010000   ; qtot 0.178799
 1774         h1     71    bbb     H5   1774 -0.05230000   1.008000   ; qtot 0.126499
 1775         h1     71    bbb     H6   1775 -0.05230000   1.008000   ; qtot 0.074199
 1776         c3     71    bbb     C4   1776 0.51680000  12.010000   ; qtot 0.590999
 1777         h1     71    bbb     H7   1777 -0.05230000   1.008000   ; qtot 0.538699
 1778         h1     71    bbb     H8   1778 -0.05230000   1.008000   ; qtot 0.486399
 1779         c3     71    bbb     C5   1779 -0.60390000  12.010000   ; qtot -0.117501
 1780         hc     71    bbb     H9   1780 0.16730000   1.008000   ; qtot 0.049799
 1781         hc     71    bbb    H10   1781 0.16730000   1.008000   ; qtot 0.217099
 1782         c3     71    bbb     C6   1782 -0.60390000  12.010000   ; qtot -0.386801
 1783         hc     71    bbb    H11   1783 0.16730000   1.008000   ; qtot -0.219501
 1784         hc     71    bbb    H12   1784 0.16730000   1.008000   ; qtot -0.052201
 1785          c     71    bbb     C7   1785 0.72110000  12.010000   ; qtot 0.668899
 1786          c     71    bbb     C8   1786 0.72110000  12.010000   ; qtot 1.389999
 1787          o     71    bbb     O1   1787 -0.61950000  16.000000   ; qtot 0.770499
 1788          o     71    bbb     O2   1788 -0.61950000  16.000000   ; qtot 0.150999
 1789          n     71    bbb     N4   1789 -0.46580000  14.010000   ; qtot -0.314801
 1790         hn     71    bbb    H21   1790 0.31480000   1.008000   ; qtot -0.000001
; residue   72 bbb rtp bbb q -0.0
 1791         c3     72    bbb     C1   1791 0.44180000  12.010000   ; qtot 0.441799
 1792         h1     72    bbb     H1   1792 -0.03530000   1.008000   ; qtot 0.406499
 1793         h1     72    bbb     H2   1793 -0.03530000   1.008000   ; qtot 0.371199
 1794         c3     72    bbb     C2   1794 -0.28250000  12.010000   ; qtot 0.088699
 1795         h1     72    bbb     H3   1795 0.15710000   1.008000   ; qtot 0.245799
 1796         h1     72    bbb     H4   1796 0.15710000   1.008000   ; qtot 0.402899
 1797         n3     72    bbb     N1   1797 -0.74090000  14.010000   ; qtot -0.338001
 1798         c3     72    bbb     C3   1798 0.51680000  12.010000   ; qtot 0.178799
 1799         h1     72    bbb     H5   1799 -0.05230000   1.008000   ; qtot 0.126499
 1800         h1     72    bbb     H6   1800 -0.05230000   1.008000   ; qtot 0.074199
 1801         c3     72    bbb     C4   1801 0.51680000  12.010000   ; qtot 0.590999
 1802         h1     72    bbb     H7   1802 -0.05230000   1.008000   ; qtot 0.538699
 1803         h1     72    bbb     H8   1803 -0.05230000   1.008000   ; qtot 0.486399
 1804         c3     72    bbb     C5   1804 -0.60390000  12.010000   ; qtot -0.117501
 1805         hc     72    bbb     H9   1805 0.16730000   1.008000   ; qtot 0.049799
 1806         hc     72    bbb    H10   1806 0.16730000   1.008000   ; qtot 0.217099
 1807         c3     72    bbb     C6   1807 -0.60390000  12.010000   ; qtot -0.386801
 1808         hc     72    bbb    H11   1808 0.16730000   1.008000   ; qtot -0.219501
 1809         hc     72    bbb    H12   1809 0.16730000   1.008000   ; qtot -0.052201
 1810          c     72    bbb     C7   1810 0.72110000  12.010000   ; qtot 0.668899
 1811          c     72    bbb     C8   1811 0.72110000  12.010000   ; qtot 1.389999
 1812          o     72    bbb     O1   1812 -0.61950000  16.000000   ; qtot 0.770499
 1813          o     72    bbb     O2   1813 -0.61950000  16.000000   ; qtot 0.150999
 1814          n     72    bbb     N4   1814 -0.46580000  14.010000   ; qtot -0.314801
 1815         hn     72    bbb    H21   1815 0.31480000   1.008000   ; qtot -0.000001
; residue   73 bbb rtp bbb q -0.0
 1816         c3     73    bbb     C1   1816 0.44180000  12.010000   ; qtot 0.441799
 1817         h1     73    bbb     H1   1817 -0.03530000   1.008000   ; qtot 0.406499
 1818         h1     73    bbb     H2   1818 -0.03530000   1.008000   ; qtot 0.371199
 1819         c3     73    bbb     C2   1819 -0.28250000  12.010000   ; qtot 0.088699
 1820         h1     73    bbb     H3   1820 0.15710000   1.008000   ; qtot 0.245799
 1821         h1     73    bbb     H4   1821 0.15710000   1.008000   ; qtot 0.402899
 1822         n3     73    bbb     N1   1822 -0.74090000  14.010000   ; qtot -0.338001
 1823         c3     73    bbb     C3   1823 0.51680000  12.010000   ; qtot 0.178799
 1824         h1     73    bbb     H5   1824 -0.05230000   1.008000   ; qtot 0.126499
 1825         h1     73    bbb     H6   1825 -0.05230000   1.008000   ; qtot 0.074199
 1826         c3     73    bbb     C4   1826 0.51680000  12.010000   ; qtot 0.590999
 1827         h1     73    bbb     H7   1827 -0.05230000   1.008000   ; qtot 0.538699
 1828         h1     73    bbb     H8   1828 -0.05230000   1.008000   ; qtot 0.486399
 1829         c3     73    bbb     C5   1829 -0.60390000  12.010000   ; qtot -0.117501
 1830         hc     73    bbb     H9   1830 0.16730000   1.008000   ; qtot 0.049799
 1831         hc     73    bbb    H10   1831 0.16730000   1.008000   ; qtot 0.217099
 1832         c3     73    bbb     C6   1832 -0.60390000  12.010000   ; qtot -0.386801
 1833         hc     73    bbb    H11   1833 0.16730000   1.008000   ; qtot -0.219501
 1834         hc     73    bbb    H12   1834 0.16730000   1.008000   ; qtot -0.052201
 1835          c     73    bbb     C7   1835 0.72110000  12.010000   ; qtot 0.668899
 1836          c     73    bbb     C8   1836 0.72110000  12.010000   ; qtot 1.389999
 1837          o     73    bbb     O1   1837 -0.61950000  16.000000   ; qtot 0.770499
 1838          o     73    bbb     O2   1838 -0.61950000  16.000000   ; qtot 0.150999
 1839          n     73    bbb     N4   1839 -0.46580000  14.010000   ; qtot -0.314801
 1840         hn     73    bbb    H21   1840 0.31480000   1.008000   ; qtot -0.000001
; residue   74 bbb rtp bbb q -0.0
 1841         c3     74    bbb     C1   1841 0.44180000  12.010000   ; qtot 0.441799
 1842         h1     74    bbb     H1   1842 -0.03530000   1.008000   ; qtot 0.406499
 1843         h1     74    bbb     H2   1843 -0.03530000   1.008000   ; qtot 0.371199
 1844         c3     74    bbb     C2   1844 -0.28250000  12.010000   ; qtot 0.088699
 1845         h1     74    bbb     H3   1845 0.15710000   1.008000   ; qtot 0.245799
 1846         h1     74    bbb     H4   1846 0.15710000   1.008000   ; qtot 0.402899
 1847         n3     74    bbb     N1   1847 -0.74090000  14.010000   ; qtot -0.338001
 1848         c3     74    bbb     C3   1848 0.51680000  12.010000   ; qtot 0.178799
 1849         h1     74    bbb     H5   1849 -0.05230000   1.008000   ; qtot 0.126499
 1850         h1     74    bbb     H6   1850 -0.05230000   1.008000   ; qtot 0.074199
 1851         c3     74    bbb     C4   1851 0.51680000  12.010000   ; qtot 0.590999
 1852         h1     74    bbb     H7   1852 -0.05230000   1.008000   ; qtot 0.538699
 1853         h1     74    bbb     H8   1853 -0.05230000   1.008000   ; qtot 0.486399
 1854         c3     74    bbb     C5   1854 -0.60390000  12.010000   ; qtot -0.117501
 1855         hc     74    bbb     H9   1855 0.16730000   1.008000   ; qtot 0.049799
 1856         hc     74    bbb    H10   1856 0.16730000   1.008000   ; qtot 0.217099
 1857         c3     74    bbb     C6   1857 -0.60390000  12.010000   ; qtot -0.386801
 1858         hc     74    bbb    H11   1858 0.16730000   1.008000   ; qtot -0.219501
 1859         hc     74    bbb    H12   1859 0.16730000   1.008000   ; qtot -0.052201
 1860          c     74    bbb     C7   1860 0.72110000  12.010000   ; qtot 0.668899
 1861          c     74    bbb     C8   1861 0.72110000  12.010000   ; qtot 1.389999
 1862          o     74    bbb     O1   1862 -0.61950000  16.000000   ; qtot 0.770499
 1863          o     74    bbb     O2   1863 -0.61950000  16.000000   ; qtot 0.150999
 1864          n     74    bbb     N4   1864 -0.46580000  14.010000   ; qtot -0.314801
 1865         hn     74    bbb    H21   1865 0.31480000   1.008000   ; qtot -0.000001
; residue   75 bbb rtp bbb q -0.0
 1866         c3     75    bbb     C1   1866 0.44180000  12.010000   ; qtot 0.441799
 1867         h1     75    bbb     H1   1867 -0.03530000   1.008000   ; qtot 0.406499
 1868         h1     75    bbb     H2   1868 -0.03530000   1.008000   ; qtot 0.371199
 1869         c3     75    bbb     C2   1869 -0.28250000  12.010000   ; qtot 0.088699
 1870         h1     75    bbb     H3   1870 0.15710000   1.008000   ; qtot 0.245799
 1871         h1     75    bbb     H4   1871 0.15710000   1.008000   ; qtot 0.402899
 1872         n3     75    bbb     N1   1872 -0.74090000  14.010000   ; qtot -0.338001
 1873         c3     75    bbb     C3   1873 0.51680000  12.010000   ; qtot 0.178799
 1874         h1     75    bbb     H5   1874 -0.05230000   1.008000   ; qtot 0.126499
 1875         h1     75    bbb     H6   1875 -0.05230000   1.008000   ; qtot 0.074199
 1876         c3     75    bbb     C4   1876 0.51680000  12.010000   ; qtot 0.590999
 1877         h1     75    bbb     H7   1877 -0.05230000   1.008000   ; qtot 0.538699
 1878         h1     75    bbb     H8   1878 -0.05230000   1.008000   ; qtot 0.486399
 1879         c3     75    bbb     C5   1879 -0.60390000  12.010000   ; qtot -0.117501
 1880         hc     75    bbb     H9   1880 0.16730000   1.008000   ; qtot 0.049799
 1881         hc     75    bbb    H10   1881 0.16730000   1.008000   ; qtot 0.217099
 1882         c3     75    bbb     C6   1882 -0.60390000  12.010000   ; qtot -0.386801
 1883         hc     75    bbb    H11   1883 0.16730000   1.008000   ; qtot -0.219501
 1884         hc     75    bbb    H12   1884 0.16730000   1.008000   ; qtot -0.052201
 1885          c     75    bbb     C7   1885 0.72110000  12.010000   ; qtot 0.668899
 1886          c     75    bbb     C8   1886 0.72110000  12.010000   ; qtot 1.389999
 1887          o     75    bbb     O1   1887 -0.61950000  16.000000   ; qtot 0.770499
 1888          o     75    bbb     O2   1888 -0.61950000  16.000000   ; qtot 0.150999
 1889          n     75    bbb     N4   1889 -0.46580000  14.010000   ; qtot -0.314801
 1890         hn     75    bbb    H21   1890 0.31480000   1.008000   ; qtot -0.000001
; residue   76 bbb rtp bbb q -0.0
 1891         c3     76    bbb     C1   1891 0.44180000  12.010000   ; qtot 0.441799
 1892         h1     76    bbb     H1   1892 -0.03530000   1.008000   ; qtot 0.406499
 1893         h1     76    bbb     H2   1893 -0.03530000   1.008000   ; qtot 0.371199
 1894         c3     76    bbb     C2   1894 -0.28250000  12.010000   ; qtot 0.088699
 1895         h1     76    bbb     H3   1895 0.15710000   1.008000   ; qtot 0.245799
 1896         h1     76    bbb     H4   1896 0.15710000   1.008000   ; qtot 0.402899
 1897         n3     76    bbb     N1   1897 -0.74090000  14.010000   ; qtot -0.338001
 1898         c3     76    bbb     C3   1898 0.51680000  12.010000   ; qtot 0.178799
 1899         h1     76    bbb     H5   1899 -0.05230000   1.008000   ; qtot 0.126499
 1900         h1     76    bbb     H6   1900 -0.05230000   1.008000   ; qtot 0.074199
 1901         c3     76    bbb     C4   1901 0.51680000  12.010000   ; qtot 0.590999
 1902         h1     76    bbb     H7   1902 -0.05230000   1.008000   ; qtot 0.538699
 1903         h1     76    bbb     H8   1903 -0.05230000   1.008000   ; qtot 0.486399
 1904         c3     76    bbb     C5   1904 -0.60390000  12.010000   ; qtot -0.117501
 1905         hc     76    bbb     H9   1905 0.16730000   1.008000   ; qtot 0.049799
 1906         hc     76    bbb    H10   1906 0.16730000   1.008000   ; qtot 0.217099
 1907         c3     76    bbb     C6   1907 -0.60390000  12.010000   ; qtot -0.386801
 1908         hc     76    bbb    H11   1908 0.16730000   1.008000   ; qtot -0.219501
 1909         hc     76    bbb    H12   1909 0.16730000   1.008000   ; qtot -0.052201
 1910          c     76    bbb     C7   1910 0.72110000  12.010000   ; qtot 0.668899
 1911          c     76    bbb     C8   1911 0.72110000  12.010000   ; qtot 1.389999
 1912          o     76    bbb     O1   1912 -0.61950000  16.000000   ; qtot 0.770499
 1913          o     76    bbb     O2   1913 -0.61950000  16.000000   ; qtot 0.150999
 1914          n     76    bbb     N4   1914 -0.46580000  14.010000   ; qtot -0.314801
 1915         hn     76    bbb    H21   1915 0.31480000   1.008000   ; qtot -0.000001
; residue   77 bbb rtp bbb q -0.0
 1916         c3     77    bbb     C1   1916 0.44180000  12.010000   ; qtot 0.441799
 1917         h1     77    bbb     H1   1917 -0.03530000   1.008000   ; qtot 0.406499
 1918         h1     77    bbb     H2   1918 -0.03530000   1.008000   ; qtot 0.371199
 1919         c3     77    bbb     C2   1919 -0.28250000  12.010000   ; qtot 0.088699
 1920         h1     77    bbb     H3   1920 0.15710000   1.008000   ; qtot 0.245799
 1921         h1     77    bbb     H4   1921 0.15710000   1.008000   ; qtot 0.402899
 1922         n3     77    bbb     N1   1922 -0.74090000  14.010000   ; qtot -0.338001
 1923         c3     77    bbb     C3   1923 0.51680000  12.010000   ; qtot 0.178799
 1924         h1     77    bbb     H5   1924 -0.05230000   1.008000   ; qtot 0.126499
 1925         h1     77    bbb     H6   1925 -0.05230000   1.008000   ; qtot 0.074199
 1926         c3     77    bbb     C4   1926 0.51680000  12.010000   ; qtot 0.590999
 1927         h1     77    bbb     H7   1927 -0.05230000   1.008000   ; qtot 0.538699
 1928         h1     77    bbb     H8   1928 -0.05230000   1.008000   ; qtot 0.486399
 1929         c3     77    bbb     C5   1929 -0.60390000  12.010000   ; qtot -0.117501
 1930         hc     77    bbb     H9   1930 0.16730000   1.008000   ; qtot 0.049799
 1931         hc     77    bbb    H10   1931 0.16730000   1.008000   ; qtot 0.217099
 1932         c3     77    bbb     C6   1932 -0.60390000  12.010000   ; qtot -0.386801
 1933         hc     77    bbb    H11   1933 0.16730000   1.008000   ; qtot -0.219501
 1934         hc     77    bbb    H12   1934 0.16730000   1.008000   ; qtot -0.052201
 1935          c     77    bbb     C7   1935 0.72110000  12.010000   ; qtot 0.668899
 1936          c     77    bbb     C8   1936 0.72110000  12.010000   ; qtot 1.389999
 1937          o     77    bbb     O1   1937 -0.61950000  16.000000   ; qtot 0.770499
 1938          o     77    bbb     O2   1938 -0.61950000  16.000000   ; qtot 0.150999
 1939          n     77    bbb     N4   1939 -0.46580000  14.010000   ; qtot -0.314801
 1940         hn     77    bbb    H21   1940 0.31480000   1.008000   ; qtot -0.000001
; residue   78 bbb rtp bbb q -0.0
 1941         c3     78    bbb     C1   1941 0.44180000  12.010000   ; qtot 0.441799
 1942         h1     78    bbb     H1   1942 -0.03530000   1.008000   ; qtot 0.406499
 1943         h1     78    bbb     H2   1943 -0.03530000   1.008000   ; qtot 0.371199
 1944         c3     78    bbb     C2   1944 -0.28250000  12.010000   ; qtot 0.088699
 1945         h1     78    bbb     H3   1945 0.15710000   1.008000   ; qtot 0.245799
 1946         h1     78    bbb     H4   1946 0.15710000   1.008000   ; qtot 0.402899
 1947         n3     78    bbb     N1   1947 -0.74090000  14.010000   ; qtot -0.338001
 1948         c3     78    bbb     C3   1948 0.51680000  12.010000   ; qtot 0.178799
 1949         h1     78    bbb     H5   1949 -0.05230000   1.008000   ; qtot 0.126499
 1950         h1     78    bbb     H6   1950 -0.05230000   1.008000   ; qtot 0.074199
 1951         c3     78    bbb     C4   1951 0.51680000  12.010000   ; qtot 0.590999
 1952         h1     78    bbb     H7   1952 -0.05230000   1.008000   ; qtot 0.538699
 1953         h1     78    bbb     H8   1953 -0.05230000   1.008000   ; qtot 0.486399
 1954         c3     78    bbb     C5   1954 -0.60390000  12.010000   ; qtot -0.117501
 1955         hc     78    bbb     H9   1955 0.16730000   1.008000   ; qtot 0.049799
 1956         hc     78    bbb    H10   1956 0.16730000   1.008000   ; qtot 0.217099
 1957         c3     78    bbb     C6   1957 -0.60390000  12.010000   ; qtot -0.386801
 1958         hc     78    bbb    H11   1958 0.16730000   1.008000   ; qtot -0.219501
 1959         hc     78    bbb    H12   1959 0.16730000   1.008000   ; qtot -0.052201
 1960          c     78    bbb     C7   1960 0.72110000  12.010000   ; qtot 0.668899
 1961          c     78    bbb     C8   1961 0.72110000  12.010000   ; qtot 1.389999
 1962          o     78    bbb     O1   1962 -0.61950000  16.000000   ; qtot 0.770499
 1963          o     78    bbb     O2   1963 -0.61950000  16.000000   ; qtot 0.150999
 1964          n     78    bbb     N4   1964 -0.46580000  14.010000   ; qtot -0.314801
 1965         hn     78    bbb    H21   1965 0.31480000   1.008000   ; qtot -0.000001
; residue   79 bbb rtp bbb q -0.0
 1966         c3     79    bbb     C1   1966 0.44180000  12.010000   ; qtot 0.441799
 1967         h1     79    bbb     H1   1967 -0.03530000   1.008000   ; qtot 0.406499
 1968         h1     79    bbb     H2   1968 -0.03530000   1.008000   ; qtot 0.371199
 1969         c3     79    bbb     C2   1969 -0.28250000  12.010000   ; qtot 0.088699
 1970         h1     79    bbb     H3   1970 0.15710000   1.008000   ; qtot 0.245799
 1971         h1     79    bbb     H4   1971 0.15710000   1.008000   ; qtot 0.402899
 1972         n3     79    bbb     N1   1972 -0.74090000  14.010000   ; qtot -0.338001
 1973         c3     79    bbb     C3   1973 0.51680000  12.010000   ; qtot 0.178799
 1974         h1     79    bbb     H5   1974 -0.05230000   1.008000   ; qtot 0.126499
 1975         h1     79    bbb     H6   1975 -0.05230000   1.008000   ; qtot 0.074199
 1976         c3     79    bbb     C4   1976 0.51680000  12.010000   ; qtot 0.590999
 1977         h1     79    bbb     H7   1977 -0.05230000   1.008000   ; qtot 0.538699
 1978         h1     79    bbb     H8   1978 -0.05230000   1.008000   ; qtot 0.486399
 1979         c3     79    bbb     C5   1979 -0.60390000  12.010000   ; qtot -0.117501
 1980         hc     79    bbb     H9   1980 0.16730000   1.008000   ; qtot 0.049799
 1981         hc     79    bbb    H10   1981 0.16730000   1.008000   ; qtot 0.217099
 1982         c3     79    bbb     C6   1982 -0.60390000  12.010000   ; qtot -0.386801
 1983         hc     79    bbb    H11   1983 0.16730000   1.008000   ; qtot -0.219501
 1984         hc     79    bbb    H12   1984 0.16730000   1.008000   ; qtot -0.052201
 1985          c     79    bbb     C7   1985 0.72110000  12.010000   ; qtot 0.668899
 1986          c     79    bbb     C8   1986 0.72110000  12.010000   ; qtot 1.389999
 1987          o     79    bbb     O1   1987 -0.61950000  16.000000   ; qtot 0.770499
 1988          o     79    bbb     O2   1988 -0.61950000  16.000000   ; qtot 0.150999
 1989          n     79    bbb     N4   1989 -0.46580000  14.010000   ; qtot -0.314801
 1990         hn     79    bbb    H21   1990 0.31480000   1.008000   ; qtot -0.000001
; residue   80 bbb rtp bbb q -0.0
 1991         c3     80    bbb     C1   1991 0.44180000  12.010000   ; qtot 0.441799
 1992         h1     80    bbb     H1   1992 -0.03530000   1.008000   ; qtot 0.406499
 1993         h1     80    bbb     H2   1993 -0.03530000   1.008000   ; qtot 0.371199
 1994         c3     80    bbb     C2   1994 -0.28250000  12.010000   ; qtot 0.088699
 1995         h1     80    bbb     H3   1995 0.15710000   1.008000   ; qtot 0.245799
 1996         h1     80    bbb     H4   1996 0.15710000   1.008000   ; qtot 0.402899
 1997         n3     80    bbb     N1   1997 -0.74090000  14.010000   ; qtot -0.338001
 1998         c3     80    bbb     C3   1998 0.51680000  12.010000   ; qtot 0.178799
 1999         h1     80    bbb     H5   1999 -0.05230000   1.008000   ; qtot 0.126499
 2000         h1     80    bbb     H6   2000 -0.05230000   1.008000   ; qtot 0.074199
 2001         c3     80    bbb     C4   2001 0.51680000  12.010000   ; qtot 0.590999
 2002         h1     80    bbb     H7   2002 -0.05230000   1.008000   ; qtot 0.538699
 2003         h1     80    bbb     H8   2003 -0.05230000   1.008000   ; qtot 0.486399
 2004         c3     80    bbb     C5   2004 -0.60390000  12.010000   ; qtot -0.117501
 2005         hc     80    bbb     H9   2005 0.16730000   1.008000   ; qtot 0.049799
 2006         hc     80    bbb    H10   2006 0.16730000   1.008000   ; qtot 0.217099
 2007         c3     80    bbb     C6   2007 -0.60390000  12.010000   ; qtot -0.386801
 2008         hc     80    bbb    H11   2008 0.16730000   1.008000   ; qtot -0.219501
 2009         hc     80    bbb    H12   2009 0.16730000   1.008000   ; qtot -0.052201
 2010          c     80    bbb     C7   2010 0.72110000  12.010000   ; qtot 0.668899
 2011          c     80    bbb     C8   2011 0.72110000  12.010000   ; qtot 1.389999
 2012          o     80    bbb     O1   2012 -0.61950000  16.000000   ; qtot 0.770499
 2013          o     80    bbb     O2   2013 -0.61950000  16.000000   ; qtot 0.150999
 2014          n     80    bbb     N4   2014 -0.46580000  14.010000   ; qtot -0.314801
 2015         hn     80    bbb    H21   2015 0.31480000   1.008000   ; qtot -0.000001
; residue   81 bbb rtp bbb q -0.0
 2016         c3     81    bbb     C1   2016 0.44180000  12.010000   ; qtot 0.441799
 2017         h1     81    bbb     H1   2017 -0.03530000   1.008000   ; qtot 0.406499
 2018         h1     81    bbb     H2   2018 -0.03530000   1.008000   ; qtot 0.371199
 2019         c3     81    bbb     C2   2019 -0.28250000  12.010000   ; qtot 0.088699
 2020         h1     81    bbb     H3   2020 0.15710000   1.008000   ; qtot 0.245799
 2021         h1     81    bbb     H4   2021 0.15710000   1.008000   ; qtot 0.402899
 2022         n3     81    bbb     N1   2022 -0.74090000  14.010000   ; qtot -0.338001
 2023         c3     81    bbb     C3   2023 0.51680000  12.010000   ; qtot 0.178799
 2024         h1     81    bbb     H5   2024 -0.05230000   1.008000   ; qtot 0.126499
 2025         h1     81    bbb     H6   2025 -0.05230000   1.008000   ; qtot 0.074199
 2026         c3     81    bbb     C4   2026 0.51680000  12.010000   ; qtot 0.590999
 2027         h1     81    bbb     H7   2027 -0.05230000   1.008000   ; qtot 0.538699
 2028         h1     81    bbb     H8   2028 -0.05230000   1.008000   ; qtot 0.486399
 2029         c3     81    bbb     C5   2029 -0.60390000  12.010000   ; qtot -0.117501
 2030         hc     81    bbb     H9   2030 0.16730000   1.008000   ; qtot 0.049799
 2031         hc     81    bbb    H10   2031 0.16730000   1.008000   ; qtot 0.217099
 2032         c3     81    bbb     C6   2032 -0.60390000  12.010000   ; qtot -0.386801
 2033         hc     81    bbb    H11   2033 0.16730000   1.008000   ; qtot -0.219501
 2034         hc     81    bbb    H12   2034 0.16730000   1.008000   ; qtot -0.052201
 2035          c     81    bbb     C7   2035 0.72110000  12.010000   ; qtot 0.668899
 2036          c     81    bbb     C8   2036 0.72110000  12.010000   ; qtot 1.389999
 2037          o     81    bbb     O1   2037 -0.61950000  16.000000   ; qtot 0.770499
 2038          o     81    bbb     O2   2038 -0.61950000  16.000000   ; qtot 0.150999
 2039          n     81    bbb     N4   2039 -0.46580000  14.010000   ; qtot -0.314801
 2040         hn     81    bbb    H21   2040 0.31480000   1.008000   ; qtot -0.000001
; residue   82 bbb rtp bbb q -0.0
 2041         c3     82    bbb     C1   2041 0.44180000  12.010000   ; qtot 0.441799
 2042         h1     82    bbb     H1   2042 -0.03530000   1.008000   ; qtot 0.406499
 2043         h1     82    bbb     H2   2043 -0.03530000   1.008000   ; qtot 0.371199
 2044         c3     82    bbb     C2   2044 -0.28250000  12.010000   ; qtot 0.088699
 2045         h1     82    bbb     H3   2045 0.15710000   1.008000   ; qtot 0.245799
 2046         h1     82    bbb     H4   2046 0.15710000   1.008000   ; qtot 0.402899
 2047         n3     82    bbb     N1   2047 -0.74090000  14.010000   ; qtot -0.338001
 2048         c3     82    bbb     C3   2048 0.51680000  12.010000   ; qtot 0.178799
 2049         h1     82    bbb     H5   2049 -0.05230000   1.008000   ; qtot 0.126499
 2050         h1     82    bbb     H6   2050 -0.05230000   1.008000   ; qtot 0.074199
 2051         c3     82    bbb     C4   2051 0.51680000  12.010000   ; qtot 0.590999
 2052         h1     82    bbb     H7   2052 -0.05230000   1.008000   ; qtot 0.538699
 2053         h1     82    bbb     H8   2053 -0.05230000   1.008000   ; qtot 0.486399
 2054         c3     82    bbb     C5   2054 -0.60390000  12.010000   ; qtot -0.117501
 2055         hc     82    bbb     H9   2055 0.16730000   1.008000   ; qtot 0.049799
 2056         hc     82    bbb    H10   2056 0.16730000   1.008000   ; qtot 0.217099
 2057         c3     82    bbb     C6   2057 -0.60390000  12.010000   ; qtot -0.386801
 2058         hc     82    bbb    H11   2058 0.16730000   1.008000   ; qtot -0.219501
 2059         hc     82    bbb    H12   2059 0.16730000   1.008000   ; qtot -0.052201
 2060          c     82    bbb     C7   2060 0.72110000  12.010000   ; qtot 0.668899
 2061          c     82    bbb     C8   2061 0.72110000  12.010000   ; qtot 1.389999
 2062          o     82    bbb     O1   2062 -0.61950000  16.000000   ; qtot 0.770499
 2063          o     82    bbb     O2   2063 -0.61950000  16.000000   ; qtot 0.150999
 2064          n     82    bbb     N4   2064 -0.46580000  14.010000   ; qtot -0.314801
 2065         hn     82    bbb    H21   2065 0.31480000   1.008000   ; qtot -0.000001
; residue   83 bbb rtp bbb q -0.0
 2066         c3     83    bbb     C1   2066 0.44180000  12.010000   ; qtot 0.441799
 2067         h1     83    bbb     H1   2067 -0.03530000   1.008000   ; qtot 0.406499
 2068         h1     83    bbb     H2   2068 -0.03530000   1.008000   ; qtot 0.371199
 2069         c3     83    bbb     C2   2069 -0.28250000  12.010000   ; qtot 0.088699
 2070         h1     83    bbb     H3   2070 0.15710000   1.008000   ; qtot 0.245799
 2071         h1     83    bbb     H4   2071 0.15710000   1.008000   ; qtot 0.402899
 2072         n3     83    bbb     N1   2072 -0.74090000  14.010000   ; qtot -0.338001
 2073         c3     83    bbb     C3   2073 0.51680000  12.010000   ; qtot 0.178799
 2074         h1     83    bbb     H5   2074 -0.05230000   1.008000   ; qtot 0.126499
 2075         h1     83    bbb     H6   2075 -0.05230000   1.008000   ; qtot 0.074199
 2076         c3     83    bbb     C4   2076 0.51680000  12.010000   ; qtot 0.590999
 2077         h1     83    bbb     H7   2077 -0.05230000   1.008000   ; qtot 0.538699
 2078         h1     83    bbb     H8   2078 -0.05230000   1.008000   ; qtot 0.486399
 2079         c3     83    bbb     C5   2079 -0.60390000  12.010000   ; qtot -0.117501
 2080         hc     83    bbb     H9   2080 0.16730000   1.008000   ; qtot 0.049799
 2081         hc     83    bbb    H10   2081 0.16730000   1.008000   ; qtot 0.217099
 2082         c3     83    bbb     C6   2082 -0.60390000  12.010000   ; qtot -0.386801
 2083         hc     83    bbb    H11   2083 0.16730000   1.008000   ; qtot -0.219501
 2084         hc     83    bbb    H12   2084 0.16730000   1.008000   ; qtot -0.052201
 2085          c     83    bbb     C7   2085 0.72110000  12.010000   ; qtot 0.668899
 2086          c     83    bbb     C8   2086 0.72110000  12.010000   ; qtot 1.389999
 2087          o     83    bbb     O1   2087 -0.61950000  16.000000   ; qtot 0.770499
 2088          o     83    bbb     O2   2088 -0.61950000  16.000000   ; qtot 0.150999
 2089          n     83    bbb     N4   2089 -0.46580000  14.010000   ; qtot -0.314801
 2090         hn     83    bbb    H21   2090 0.31480000   1.008000   ; qtot -0.000001
; residue   84 bbb rtp bbb q -0.0
 2091         c3     84    bbb     C1   2091 0.44180000  12.010000   ; qtot 0.441799
 2092         h1     84    bbb     H1   2092 -0.03530000   1.008000   ; qtot 0.406499
 2093         h1     84    bbb     H2   2093 -0.03530000   1.008000   ; qtot 0.371199
 2094         c3     84    bbb     C2   2094 -0.28250000  12.010000   ; qtot 0.088699
 2095         h1     84    bbb     H3   2095 0.15710000   1.008000   ; qtot 0.245799
 2096         h1     84    bbb     H4   2096 0.15710000   1.008000   ; qtot 0.402899
 2097         n3     84    bbb     N1   2097 -0.74090000  14.010000   ; qtot -0.338001
 2098         c3     84    bbb     C3   2098 0.51680000  12.010000   ; qtot 0.178799
 2099         h1     84    bbb     H5   2099 -0.05230000   1.008000   ; qtot 0.126499
 2100         h1     84    bbb     H6   2100 -0.05230000   1.008000   ; qtot 0.074199
 2101         c3     84    bbb     C4   2101 0.51680000  12.010000   ; qtot 0.590999
 2102         h1     84    bbb     H7   2102 -0.05230000   1.008000   ; qtot 0.538699
 2103         h1     84    bbb     H8   2103 -0.05230000   1.008000   ; qtot 0.486399
 2104         c3     84    bbb     C5   2104 -0.60390000  12.010000   ; qtot -0.117501
 2105         hc     84    bbb     H9   2105 0.16730000   1.008000   ; qtot 0.049799
 2106         hc     84    bbb    H10   2106 0.16730000   1.008000   ; qtot 0.217099
 2107         c3     84    bbb     C6   2107 -0.60390000  12.010000   ; qtot -0.386801
 2108         hc     84    bbb    H11   2108 0.16730000   1.008000   ; qtot -0.219501
 2109         hc     84    bbb    H12   2109 0.16730000   1.008000   ; qtot -0.052201
 2110          c     84    bbb     C7   2110 0.72110000  12.010000   ; qtot 0.668899
 2111          c     84    bbb     C8   2111 0.72110000  12.010000   ; qtot 1.389999
 2112          o     84    bbb     O1   2112 -0.61950000  16.000000   ; qtot 0.770499
 2113          o     84    bbb     O2   2113 -0.61950000  16.000000   ; qtot 0.150999
 2114          n     84    bbb     N4   2114 -0.46580000  14.010000   ; qtot -0.314801
 2115         hn     84    bbb    H21   2115 0.31480000   1.008000   ; qtot -0.000001
; residue   85 bbb rtp bbb q -0.0
 2116         c3     85    bbb     C1   2116 0.44180000  12.010000   ; qtot 0.441799
 2117         h1     85    bbb     H1   2117 -0.03530000   1.008000   ; qtot 0.406499
 2118         h1     85    bbb     H2   2118 -0.03530000   1.008000   ; qtot 0.371199
 2119         c3     85    bbb     C2   2119 -0.28250000  12.010000   ; qtot 0.088699
 2120         h1     85    bbb     H3   2120 0.15710000   1.008000   ; qtot 0.245799
 2121         h1     85    bbb     H4   2121 0.15710000   1.008000   ; qtot 0.402899
 2122         n3     85    bbb     N1   2122 -0.74090000  14.010000   ; qtot -0.338001
 2123         c3     85    bbb     C3   2123 0.51680000  12.010000   ; qtot 0.178799
 2124         h1     85    bbb     H5   2124 -0.05230000   1.008000   ; qtot 0.126499
 2125         h1     85    bbb     H6   2125 -0.05230000   1.008000   ; qtot 0.074199
 2126         c3     85    bbb     C4   2126 0.51680000  12.010000   ; qtot 0.590999
 2127         h1     85    bbb     H7   2127 -0.05230000   1.008000   ; qtot 0.538699
 2128         h1     85    bbb     H8   2128 -0.05230000   1.008000   ; qtot 0.486399
 2129         c3     85    bbb     C5   2129 -0.60390000  12.010000   ; qtot -0.117501
 2130         hc     85    bbb     H9   2130 0.16730000   1.008000   ; qtot 0.049799
 2131         hc     85    bbb    H10   2131 0.16730000   1.008000   ; qtot 0.217099
 2132         c3     85    bbb     C6   2132 -0.60390000  12.010000   ; qtot -0.386801
 2133         hc     85    bbb    H11   2133 0.16730000   1.008000   ; qtot -0.219501
 2134         hc     85    bbb    H12   2134 0.16730000   1.008000   ; qtot -0.052201
 2135          c     85    bbb     C7   2135 0.72110000  12.010000   ; qtot 0.668899
 2136          c     85    bbb     C8   2136 0.72110000  12.010000   ; qtot 1.389999
 2137          o     85    bbb     O1   2137 -0.61950000  16.000000   ; qtot 0.770499
 2138          o     85    bbb     O2   2138 -0.61950000  16.000000   ; qtot 0.150999
 2139          n     85    bbb     N4   2139 -0.46580000  14.010000   ; qtot -0.314801
 2140         hn     85    bbb    H21   2140 0.31480000   1.008000   ; qtot -0.000001
; residue   86 bbb rtp bbb q -0.0
 2141         c3     86    bbb     C1   2141 0.44180000  12.010000   ; qtot 0.441799
 2142         h1     86    bbb     H1   2142 -0.03530000   1.008000   ; qtot 0.406499
 2143         h1     86    bbb     H2   2143 -0.03530000   1.008000   ; qtot 0.371199
 2144         c3     86    bbb     C2   2144 -0.28250000  12.010000   ; qtot 0.088699
 2145         h1     86    bbb     H3   2145 0.15710000   1.008000   ; qtot 0.245799
 2146         h1     86    bbb     H4   2146 0.15710000   1.008000   ; qtot 0.402899
 2147         n3     86    bbb     N1   2147 -0.74090000  14.010000   ; qtot -0.338001
 2148         c3     86    bbb     C3   2148 0.51680000  12.010000   ; qtot 0.178799
 2149         h1     86    bbb     H5   2149 -0.05230000   1.008000   ; qtot 0.126499
 2150         h1     86    bbb     H6   2150 -0.05230000   1.008000   ; qtot 0.074199
 2151         c3     86    bbb     C4   2151 0.51680000  12.010000   ; qtot 0.590999
 2152         h1     86    bbb     H7   2152 -0.05230000   1.008000   ; qtot 0.538699
 2153         h1     86    bbb     H8   2153 -0.05230000   1.008000   ; qtot 0.486399
 2154         c3     86    bbb     C5   2154 -0.60390000  12.010000   ; qtot -0.117501
 2155         hc     86    bbb     H9   2155 0.16730000   1.008000   ; qtot 0.049799
 2156         hc     86    bbb    H10   2156 0.16730000   1.008000   ; qtot 0.217099
 2157         c3     86    bbb     C6   2157 -0.60390000  12.010000   ; qtot -0.386801
 2158         hc     86    bbb    H11   2158 0.16730000   1.008000   ; qtot -0.219501
 2159         hc     86    bbb    H12   2159 0.16730000   1.008000   ; qtot -0.052201
 2160          c     86    bbb     C7   2160 0.72110000  12.010000   ; qtot 0.668899
 2161          c     86    bbb     C8   2161 0.72110000  12.010000   ; qtot 1.389999
 2162          o     86    bbb     O1   2162 -0.61950000  16.000000   ; qtot 0.770499
 2163          o     86    bbb     O2   2163 -0.61950000  16.000000   ; qtot 0.150999
 2164          n     86    bbb     N4   2164 -0.46580000  14.010000   ; qtot -0.314801
 2165         hn     86    bbb    H21   2165 0.31480000   1.008000   ; qtot -0.000001
; residue   87 bbb rtp bbb q -0.0
 2166         c3     87    bbb     C1   2166 0.44180000  12.010000   ; qtot 0.441799
 2167         h1     87    bbb     H1   2167 -0.03530000   1.008000   ; qtot 0.406499
 2168         h1     87    bbb     H2   2168 -0.03530000   1.008000   ; qtot 0.371199
 2169         c3     87    bbb     C2   2169 -0.28250000  12.010000   ; qtot 0.088699
 2170         h1     87    bbb     H3   2170 0.15710000   1.008000   ; qtot 0.245799
 2171         h1     87    bbb     H4   2171 0.15710000   1.008000   ; qtot 0.402899
 2172         n3     87    bbb     N1   2172 -0.74090000  14.010000   ; qtot -0.338001
 2173         c3     87    bbb     C3   2173 0.51680000  12.010000   ; qtot 0.178799
 2174         h1     87    bbb     H5   2174 -0.05230000   1.008000   ; qtot 0.126499
 2175         h1     87    bbb     H6   2175 -0.05230000   1.008000   ; qtot 0.074199
 2176         c3     87    bbb     C4   2176 0.51680000  12.010000   ; qtot 0.590999
 2177         h1     87    bbb     H7   2177 -0.05230000   1.008000   ; qtot 0.538699
 2178         h1     87    bbb     H8   2178 -0.05230000   1.008000   ; qtot 0.486399
 2179         c3     87    bbb     C5   2179 -0.60390000  12.010000   ; qtot -0.117501
 2180         hc     87    bbb     H9   2180 0.16730000   1.008000   ; qtot 0.049799
 2181         hc     87    bbb    H10   2181 0.16730000   1.008000   ; qtot 0.217099
 2182         c3     87    bbb     C6   2182 -0.60390000  12.010000   ; qtot -0.386801
 2183         hc     87    bbb    H11   2183 0.16730000   1.008000   ; qtot -0.219501
 2184         hc     87    bbb    H12   2184 0.16730000   1.008000   ; qtot -0.052201
 2185          c     87    bbb     C7   2185 0.72110000  12.010000   ; qtot 0.668899
 2186          c     87    bbb     C8   2186 0.72110000  12.010000   ; qtot 1.389999
 2187          o     87    bbb     O1   2187 -0.61950000  16.000000   ; qtot 0.770499
 2188          o     87    bbb     O2   2188 -0.61950000  16.000000   ; qtot 0.150999
 2189          n     87    bbb     N4   2189 -0.46580000  14.010000   ; qtot -0.314801
 2190         hn     87    bbb    H21   2190 0.31480000   1.008000   ; qtot -0.000001
; residue   88 bbb rtp bbb q -0.0
 2191         c3     88    bbb     C1   2191 0.44180000  12.010000   ; qtot 0.441799
 2192         h1     88    bbb     H1   2192 -0.03530000   1.008000   ; qtot 0.406499
 2193         h1     88    bbb     H2   2193 -0.03530000   1.008000   ; qtot 0.371199
 2194         c3     88    bbb     C2   2194 -0.28250000  12.010000   ; qtot 0.088699
 2195         h1     88    bbb     H3   2195 0.15710000   1.008000   ; qtot 0.245799
 2196         h1     88    bbb     H4   2196 0.15710000   1.008000   ; qtot 0.402899
 2197         n3     88    bbb     N1   2197 -0.74090000  14.010000   ; qtot -0.338001
 2198         c3     88    bbb     C3   2198 0.51680000  12.010000   ; qtot 0.178799
 2199         h1     88    bbb     H5   2199 -0.05230000   1.008000   ; qtot 0.126499
 2200         h1     88    bbb     H6   2200 -0.05230000   1.008000   ; qtot 0.074199
 2201         c3     88    bbb     C4   2201 0.51680000  12.010000   ; qtot 0.590999
 2202         h1     88    bbb     H7   2202 -0.05230000   1.008000   ; qtot 0.538699
 2203         h1     88    bbb     H8   2203 -0.05230000   1.008000   ; qtot 0.486399
 2204         c3     88    bbb     C5   2204 -0.60390000  12.010000   ; qtot -0.117501
 2205         hc     88    bbb     H9   2205 0.16730000   1.008000   ; qtot 0.049799
 2206         hc     88    bbb    H10   2206 0.16730000   1.008000   ; qtot 0.217099
 2207         c3     88    bbb     C6   2207 -0.60390000  12.010000   ; qtot -0.386801
 2208         hc     88    bbb    H11   2208 0.16730000   1.008000   ; qtot -0.219501
 2209         hc     88    bbb    H12   2209 0.16730000   1.008000   ; qtot -0.052201
 2210          c     88    bbb     C7   2210 0.72110000  12.010000   ; qtot 0.668899
 2211          c     88    bbb     C8   2211 0.72110000  12.010000   ; qtot 1.389999
 2212          o     88    bbb     O1   2212 -0.61950000  16.000000   ; qtot 0.770499
 2213          o     88    bbb     O2   2213 -0.61950000  16.000000   ; qtot 0.150999
 2214          n     88    bbb     N4   2214 -0.46580000  14.010000   ; qtot -0.314801
 2215         hn     88    bbb    H21   2215 0.31480000   1.008000   ; qtot -0.000001
; residue   89 bbb rtp bbb q -0.0
 2216         c3     89    bbb     C1   2216 0.44180000  12.010000   ; qtot 0.441799
 2217         h1     89    bbb     H1   2217 -0.03530000   1.008000   ; qtot 0.406499
 2218         h1     89    bbb     H2   2218 -0.03530000   1.008000   ; qtot 0.371199
 2219         c3     89    bbb     C2   2219 -0.28250000  12.010000   ; qtot 0.088699
 2220         h1     89    bbb     H3   2220 0.15710000   1.008000   ; qtot 0.245799
 2221         h1     89    bbb     H4   2221 0.15710000   1.008000   ; qtot 0.402899
 2222         n3     89    bbb     N1   2222 -0.74090000  14.010000   ; qtot -0.338001
 2223         c3     89    bbb     C3   2223 0.51680000  12.010000   ; qtot 0.178799
 2224         h1     89    bbb     H5   2224 -0.05230000   1.008000   ; qtot 0.126499
 2225         h1     89    bbb     H6   2225 -0.05230000   1.008000   ; qtot 0.074199
 2226         c3     89    bbb     C4   2226 0.51680000  12.010000   ; qtot 0.590999
 2227         h1     89    bbb     H7   2227 -0.05230000   1.008000   ; qtot 0.538699
 2228         h1     89    bbb     H8   2228 -0.05230000   1.008000   ; qtot 0.486399
 2229         c3     89    bbb     C5   2229 -0.60390000  12.010000   ; qtot -0.117501
 2230         hc     89    bbb     H9   2230 0.16730000   1.008000   ; qtot 0.049799
 2231         hc     89    bbb    H10   2231 0.16730000   1.008000   ; qtot 0.217099
 2232         c3     89    bbb     C6   2232 -0.60390000  12.010000   ; qtot -0.386801
 2233         hc     89    bbb    H11   2233 0.16730000   1.008000   ; qtot -0.219501
 2234         hc     89    bbb    H12   2234 0.16730000   1.008000   ; qtot -0.052201
 2235          c     89    bbb     C7   2235 0.72110000  12.010000   ; qtot 0.668899
 2236          c     89    bbb     C8   2236 0.72110000  12.010000   ; qtot 1.389999
 2237          o     89    bbb     O1   2237 -0.61950000  16.000000   ; qtot 0.770499
 2238          o     89    bbb     O2   2238 -0.61950000  16.000000   ; qtot 0.150999
 2239          n     89    bbb     N4   2239 -0.46580000  14.010000   ; qtot -0.314801
 2240         hn     89    bbb    H21   2240 0.31480000   1.008000   ; qtot -0.000001
; residue   90 bbb rtp bbb q -0.0
 2241         c3     90    bbb     C1   2241 0.44180000  12.010000   ; qtot 0.441799
 2242         h1     90    bbb     H1   2242 -0.03530000   1.008000   ; qtot 0.406499
 2243         h1     90    bbb     H2   2243 -0.03530000   1.008000   ; qtot 0.371199
 2244         c3     90    bbb     C2   2244 -0.28250000  12.010000   ; qtot 0.088699
 2245         h1     90    bbb     H3   2245 0.15710000   1.008000   ; qtot 0.245799
 2246         h1     90    bbb     H4   2246 0.15710000   1.008000   ; qtot 0.402899
 2247         n3     90    bbb     N1   2247 -0.74090000  14.010000   ; qtot -0.338001
 2248         c3     90    bbb     C3   2248 0.51680000  12.010000   ; qtot 0.178799
 2249         h1     90    bbb     H5   2249 -0.05230000   1.008000   ; qtot 0.126499
 2250         h1     90    bbb     H6   2250 -0.05230000   1.008000   ; qtot 0.074199
 2251         c3     90    bbb     C4   2251 0.51680000  12.010000   ; qtot 0.590999
 2252         h1     90    bbb     H7   2252 -0.05230000   1.008000   ; qtot 0.538699
 2253         h1     90    bbb     H8   2253 -0.05230000   1.008000   ; qtot 0.486399
 2254         c3     90    bbb     C5   2254 -0.60390000  12.010000   ; qtot -0.117501
 2255         hc     90    bbb     H9   2255 0.16730000   1.008000   ; qtot 0.049799
 2256         hc     90    bbb    H10   2256 0.16730000   1.008000   ; qtot 0.217099
 2257         c3     90    bbb     C6   2257 -0.60390000  12.010000   ; qtot -0.386801
 2258         hc     90    bbb    H11   2258 0.16730000   1.008000   ; qtot -0.219501
 2259         hc     90    bbb    H12   2259 0.16730000   1.008000   ; qtot -0.052201
 2260          c     90    bbb     C7   2260 0.72110000  12.010000   ; qtot 0.668899
 2261          c     90    bbb     C8   2261 0.72110000  12.010000   ; qtot 1.389999
 2262          o     90    bbb     O1   2262 -0.61950000  16.000000   ; qtot 0.770499
 2263          o     90    bbb     O2   2263 -0.61950000  16.000000   ; qtot 0.150999
 2264          n     90    bbb     N4   2264 -0.46580000  14.010000   ; qtot -0.314801
 2265         hn     90    bbb    H21   2265 0.31480000   1.008000   ; qtot -0.000001
; residue   91 bbb rtp bbb q -0.0
 2266         c3     91    bbb     C1   2266 0.44180000  12.010000   ; qtot 0.441799
 2267         h1     91    bbb     H1   2267 -0.03530000   1.008000   ; qtot 0.406499
 2268         h1     91    bbb     H2   2268 -0.03530000   1.008000   ; qtot 0.371199
 2269         c3     91    bbb     C2   2269 -0.28250000  12.010000   ; qtot 0.088699
 2270         h1     91    bbb     H3   2270 0.15710000   1.008000   ; qtot 0.245799
 2271         h1     91    bbb     H4   2271 0.15710000   1.008000   ; qtot 0.402899
 2272         n3     91    bbb     N1   2272 -0.74090000  14.010000   ; qtot -0.338001
 2273         c3     91    bbb     C3   2273 0.51680000  12.010000   ; qtot 0.178799
 2274         h1     91    bbb     H5   2274 -0.05230000   1.008000   ; qtot 0.126499
 2275         h1     91    bbb     H6   2275 -0.05230000   1.008000   ; qtot 0.074199
 2276         c3     91    bbb     C4   2276 0.51680000  12.010000   ; qtot 0.590999
 2277         h1     91    bbb     H7   2277 -0.05230000   1.008000   ; qtot 0.538699
 2278         h1     91    bbb     H8   2278 -0.05230000   1.008000   ; qtot 0.486399
 2279         c3     91    bbb     C5   2279 -0.60390000  12.010000   ; qtot -0.117501
 2280         hc     91    bbb     H9   2280 0.16730000   1.008000   ; qtot 0.049799
 2281         hc     91    bbb    H10   2281 0.16730000   1.008000   ; qtot 0.217099
 2282         c3     91    bbb     C6   2282 -0.60390000  12.010000   ; qtot -0.386801
 2283         hc     91    bbb    H11   2283 0.16730000   1.008000   ; qtot -0.219501
 2284         hc     91    bbb    H12   2284 0.16730000   1.008000   ; qtot -0.052201
 2285          c     91    bbb     C7   2285 0.72110000  12.010000   ; qtot 0.668899
 2286          c     91    bbb     C8   2286 0.72110000  12.010000   ; qtot 1.389999
 2287          o     91    bbb     O1   2287 -0.61950000  16.000000   ; qtot 0.770499
 2288          o     91    bbb     O2   2288 -0.61950000  16.000000   ; qtot 0.150999
 2289          n     91    bbb     N4   2289 -0.46580000  14.010000   ; qtot -0.314801
 2290         hn     91    bbb    H21   2290 0.31480000   1.008000   ; qtot -0.000001
; residue   92 bbb rtp bbb q -0.0
 2291         c3     92    bbb     C1   2291 0.44180000  12.010000   ; qtot 0.441799
 2292         h1     92    bbb     H1   2292 -0.03530000   1.008000   ; qtot 0.406499
 2293         h1     92    bbb     H2   2293 -0.03530000   1.008000   ; qtot 0.371199
 2294         c3     92    bbb     C2   2294 -0.28250000  12.010000   ; qtot 0.088699
 2295         h1     92    bbb     H3   2295 0.15710000   1.008000   ; qtot 0.245799
 2296         h1     92    bbb     H4   2296 0.15710000   1.008000   ; qtot 0.402899
 2297         n3     92    bbb     N1   2297 -0.74090000  14.010000   ; qtot -0.338001
 2298         c3     92    bbb     C3   2298 0.51680000  12.010000   ; qtot 0.178799
 2299         h1     92    bbb     H5   2299 -0.05230000   1.008000   ; qtot 0.126499
 2300         h1     92    bbb     H6   2300 -0.05230000   1.008000   ; qtot 0.074199
 2301         c3     92    bbb     C4   2301 0.51680000  12.010000   ; qtot 0.590999
 2302         h1     92    bbb     H7   2302 -0.05230000   1.008000   ; qtot 0.538699
 2303         h1     92    bbb     H8   2303 -0.05230000   1.008000   ; qtot 0.486399
 2304         c3     92    bbb     C5   2304 -0.60390000  12.010000   ; qtot -0.117501
 2305         hc     92    bbb     H9   2305 0.16730000   1.008000   ; qtot 0.049799
 2306         hc     92    bbb    H10   2306 0.16730000   1.008000   ; qtot 0.217099
 2307         c3     92    bbb     C6   2307 -0.60390000  12.010000   ; qtot -0.386801
 2308         hc     92    bbb    H11   2308 0.16730000   1.008000   ; qtot -0.219501
 2309         hc     92    bbb    H12   2309 0.16730000   1.008000   ; qtot -0.052201
 2310          c     92    bbb     C7   2310 0.72110000  12.010000   ; qtot 0.668899
 2311          c     92    bbb     C8   2311 0.72110000  12.010000   ; qtot 1.389999
 2312          o     92    bbb     O1   2312 -0.61950000  16.000000   ; qtot 0.770499
 2313          o     92    bbb     O2   2313 -0.61950000  16.000000   ; qtot 0.150999
 2314          n     92    bbb     N4   2314 -0.46580000  14.010000   ; qtot -0.314801
 2315         hn     92    bbb    H21   2315 0.31480000   1.008000   ; qtot -0.000001
; residue   93 bbb rtp bbb q -0.0
 2316         c3     93    bbb     C1   2316 0.44180000  12.010000   ; qtot 0.441799
 2317         h1     93    bbb     H1   2317 -0.03530000   1.008000   ; qtot 0.406499
 2318         h1     93    bbb     H2   2318 -0.03530000   1.008000   ; qtot 0.371199
 2319         c3     93    bbb     C2   2319 -0.28250000  12.010000   ; qtot 0.088699
 2320         h1     93    bbb     H3   2320 0.15710000   1.008000   ; qtot 0.245799
 2321         h1     93    bbb     H4   2321 0.15710000   1.008000   ; qtot 0.402899
 2322         n3     93    bbb     N1   2322 -0.74090000  14.010000   ; qtot -0.338001
 2323         c3     93    bbb     C3   2323 0.51680000  12.010000   ; qtot 0.178799
 2324         h1     93    bbb     H5   2324 -0.05230000   1.008000   ; qtot 0.126499
 2325         h1     93    bbb     H6   2325 -0.05230000   1.008000   ; qtot 0.074199
 2326         c3     93    bbb     C4   2326 0.51680000  12.010000   ; qtot 0.590999
 2327         h1     93    bbb     H7   2327 -0.05230000   1.008000   ; qtot 0.538699
 2328         h1     93    bbb     H8   2328 -0.05230000   1.008000   ; qtot 0.486399
 2329         c3     93    bbb     C5   2329 -0.60390000  12.010000   ; qtot -0.117501
 2330         hc     93    bbb     H9   2330 0.16730000   1.008000   ; qtot 0.049799
 2331         hc     93    bbb    H10   2331 0.16730000   1.008000   ; qtot 0.217099
 2332         c3     93    bbb     C6   2332 -0.60390000  12.010000   ; qtot -0.386801
 2333         hc     93    bbb    H11   2333 0.16730000   1.008000   ; qtot -0.219501
 2334         hc     93    bbb    H12   2334 0.16730000   1.008000   ; qtot -0.052201
 2335          c     93    bbb     C7   2335 0.72110000  12.010000   ; qtot 0.668899
 2336          c     93    bbb     C8   2336 0.72110000  12.010000   ; qtot 1.389999
 2337          o     93    bbb     O1   2337 -0.61950000  16.000000   ; qtot 0.770499
 2338          o     93    bbb     O2   2338 -0.61950000  16.000000   ; qtot 0.150999
 2339          n     93    bbb     N4   2339 -0.46580000  14.010000   ; qtot -0.314801
 2340         hn     93    bbb    H21   2340 0.31480000   1.008000   ; qtot -0.000001
; residue   94 bbb rtp bbb q -0.0
 2341         c3     94    bbb     C1   2341 0.44180000  12.010000   ; qtot 0.441799
 2342         h1     94    bbb     H1   2342 -0.03530000   1.008000   ; qtot 0.406499
 2343         h1     94    bbb     H2   2343 -0.03530000   1.008000   ; qtot 0.371199
 2344         c3     94    bbb     C2   2344 -0.28250000  12.010000   ; qtot 0.088699
 2345         h1     94    bbb     H3   2345 0.15710000   1.008000   ; qtot 0.245799
 2346         h1     94    bbb     H4   2346 0.15710000   1.008000   ; qtot 0.402899
 2347         n3     94    bbb     N1   2347 -0.74090000  14.010000   ; qtot -0.338001
 2348         c3     94    bbb     C3   2348 0.51680000  12.010000   ; qtot 0.178799
 2349         h1     94    bbb     H5   2349 -0.05230000   1.008000   ; qtot 0.126499
 2350         h1     94    bbb     H6   2350 -0.05230000   1.008000   ; qtot 0.074199
 2351         c3     94    bbb     C4   2351 0.51680000  12.010000   ; qtot 0.590999
 2352         h1     94    bbb     H7   2352 -0.05230000   1.008000   ; qtot 0.538699
 2353         h1     94    bbb     H8   2353 -0.05230000   1.008000   ; qtot 0.486399
 2354         c3     94    bbb     C5   2354 -0.60390000  12.010000   ; qtot -0.117501
 2355         hc     94    bbb     H9   2355 0.16730000   1.008000   ; qtot 0.049799
 2356         hc     94    bbb    H10   2356 0.16730000   1.008000   ; qtot 0.217099
 2357         c3     94    bbb     C6   2357 -0.60390000  12.010000   ; qtot -0.386801
 2358         hc     94    bbb    H11   2358 0.16730000   1.008000   ; qtot -0.219501
 2359         hc     94    bbb    H12   2359 0.16730000   1.008000   ; qtot -0.052201
 2360          c     94    bbb     C7   2360 0.72110000  12.010000   ; qtot 0.668899
 2361          c     94    bbb     C8   2361 0.72110000  12.010000   ; qtot 1.389999
 2362          o     94    bbb     O1   2362 -0.61950000  16.000000   ; qtot 0.770499
 2363          o     94    bbb     O2   2363 -0.61950000  16.000000   ; qtot 0.150999
 2364          n     94    bbb     N4   2364 -0.46580000  14.010000   ; qtot -0.314801
 2365         hn     94    bbb    H21   2365 0.31480000   1.008000   ; qtot -0.000001
; residue   95 bbb rtp bbb q -0.0
 2366         c3     95    bbb     C1   2366 0.44180000  12.010000   ; qtot 0.441799
 2367         h1     95    bbb     H1   2367 -0.03530000   1.008000   ; qtot 0.406499
 2368         h1     95    bbb     H2   2368 -0.03530000   1.008000   ; qtot 0.371199
 2369         c3     95    bbb     C2   2369 -0.28250000  12.010000   ; qtot 0.088699
 2370         h1     95    bbb     H3   2370 0.15710000   1.008000   ; qtot 0.245799
 2371         h1     95    bbb     H4   2371 0.15710000   1.008000   ; qtot 0.402899
 2372         n3     95    bbb     N1   2372 -0.74090000  14.010000   ; qtot -0.338001
 2373         c3     95    bbb     C3   2373 0.51680000  12.010000   ; qtot 0.178799
 2374         h1     95    bbb     H5   2374 -0.05230000   1.008000   ; qtot 0.126499
 2375         h1     95    bbb     H6   2375 -0.05230000   1.008000   ; qtot 0.074199
 2376         c3     95    bbb     C4   2376 0.51680000  12.010000   ; qtot 0.590999
 2377         h1     95    bbb     H7   2377 -0.05230000   1.008000   ; qtot 0.538699
 2378         h1     95    bbb     H8   2378 -0.05230000   1.008000   ; qtot 0.486399
 2379         c3     95    bbb     C5   2379 -0.60390000  12.010000   ; qtot -0.117501
 2380         hc     95    bbb     H9   2380 0.16730000   1.008000   ; qtot 0.049799
 2381         hc     95    bbb    H10   2381 0.16730000   1.008000   ; qtot 0.217099
 2382         c3     95    bbb     C6   2382 -0.60390000  12.010000   ; qtot -0.386801
 2383         hc     95    bbb    H11   2383 0.16730000   1.008000   ; qtot -0.219501
 2384         hc     95    bbb    H12   2384 0.16730000   1.008000   ; qtot -0.052201
 2385          c     95    bbb     C7   2385 0.72110000  12.010000   ; qtot 0.668899
 2386          c     95    bbb     C8   2386 0.72110000  12.010000   ; qtot 1.389999
 2387          o     95    bbb     O1   2387 -0.61950000  16.000000   ; qtot 0.770499
 2388          o     95    bbb     O2   2388 -0.61950000  16.000000   ; qtot 0.150999
 2389          n     95    bbb     N4   2389 -0.46580000  14.010000   ; qtot -0.314801
 2390         hn     95    bbb    H21   2390 0.31480000   1.008000   ; qtot -0.000001
; residue   96 bbb rtp bbb q -0.0
 2391         c3     96    bbb     C1   2391 0.44180000  12.010000   ; qtot 0.441799
 2392         h1     96    bbb     H1   2392 -0.03530000   1.008000   ; qtot 0.406499
 2393         h1     96    bbb     H2   2393 -0.03530000   1.008000   ; qtot 0.371199
 2394         c3     96    bbb     C2   2394 -0.28250000  12.010000   ; qtot 0.088699
 2395         h1     96    bbb     H3   2395 0.15710000   1.008000   ; qtot 0.245799
 2396         h1     96    bbb     H4   2396 0.15710000   1.008000   ; qtot 0.402899
 2397         n3     96    bbb     N1   2397 -0.74090000  14.010000   ; qtot -0.338001
 2398         c3     96    bbb     C3   2398 0.51680000  12.010000   ; qtot 0.178799
 2399         h1     96    bbb     H5   2399 -0.05230000   1.008000   ; qtot 0.126499
 2400         h1     96    bbb     H6   2400 -0.05230000   1.008000   ; qtot 0.074199
 2401         c3     96    bbb     C4   2401 0.51680000  12.010000   ; qtot 0.590999
 2402         h1     96    bbb     H7   2402 -0.05230000   1.008000   ; qtot 0.538699
 2403         h1     96    bbb     H8   2403 -0.05230000   1.008000   ; qtot 0.486399
 2404         c3     96    bbb     C5   2404 -0.60390000  12.010000   ; qtot -0.117501
 2405         hc     96    bbb     H9   2405 0.16730000   1.008000   ; qtot 0.049799
 2406         hc     96    bbb    H10   2406 0.16730000   1.008000   ; qtot 0.217099
 2407         c3     96    bbb     C6   2407 -0.60390000  12.010000   ; qtot -0.386801
 2408         hc     96    bbb    H11   2408 0.16730000   1.008000   ; qtot -0.219501
 2409         hc     96    bbb    H12   2409 0.16730000   1.008000   ; qtot -0.052201
 2410          c     96    bbb     C7   2410 0.72110000  12.010000   ; qtot 0.668899
 2411          c     96    bbb     C8   2411 0.72110000  12.010000   ; qtot 1.389999
 2412          o     96    bbb     O1   2412 -0.61950000  16.000000   ; qtot 0.770499
 2413          o     96    bbb     O2   2413 -0.61950000  16.000000   ; qtot 0.150999
 2414          n     96    bbb     N4   2414 -0.46580000  14.010000   ; qtot -0.314801
 2415         hn     96    bbb    H21   2415 0.31480000   1.008000   ; qtot -0.000001
; residue   97 bbb rtp bbb q -0.0
 2416         c3     97    bbb     C1   2416 0.44180000  12.010000   ; qtot 0.441799
 2417         h1     97    bbb     H1   2417 -0.03530000   1.008000   ; qtot 0.406499
 2418         h1     97    bbb     H2   2418 -0.03530000   1.008000   ; qtot 0.371199
 2419         c3     97    bbb     C2   2419 -0.28250000  12.010000   ; qtot 0.088699
 2420         h1     97    bbb     H3   2420 0.15710000   1.008000   ; qtot 0.245799
 2421         h1     97    bbb     H4   2421 0.15710000   1.008000   ; qtot 0.402899
 2422         n3     97    bbb     N1   2422 -0.74090000  14.010000   ; qtot -0.338001
 2423         c3     97    bbb     C3   2423 0.51680000  12.010000   ; qtot 0.178799
 2424         h1     97    bbb     H5   2424 -0.05230000   1.008000   ; qtot 0.126499
 2425         h1     97    bbb     H6   2425 -0.05230000   1.008000   ; qtot 0.074199
 2426         c3     97    bbb     C4   2426 0.51680000  12.010000   ; qtot 0.590999
 2427         h1     97    bbb     H7   2427 -0.05230000   1.008000   ; qtot 0.538699
 2428         h1     97    bbb     H8   2428 -0.05230000   1.008000   ; qtot 0.486399
 2429         c3     97    bbb     C5   2429 -0.60390000  12.010000   ; qtot -0.117501
 2430         hc     97    bbb     H9   2430 0.16730000   1.008000   ; qtot 0.049799
 2431         hc     97    bbb    H10   2431 0.16730000   1.008000   ; qtot 0.217099
 2432         c3     97    bbb     C6   2432 -0.60390000  12.010000   ; qtot -0.386801
 2433         hc     97    bbb    H11   2433 0.16730000   1.008000   ; qtot -0.219501
 2434         hc     97    bbb    H12   2434 0.16730000   1.008000   ; qtot -0.052201
 2435          c     97    bbb     C7   2435 0.72110000  12.010000   ; qtot 0.668899
 2436          c     97    bbb     C8   2436 0.72110000  12.010000   ; qtot 1.389999
 2437          o     97    bbb     O1   2437 -0.61950000  16.000000   ; qtot 0.770499
 2438          o     97    bbb     O2   2438 -0.61950000  16.000000   ; qtot 0.150999
 2439          n     97    bbb     N4   2439 -0.46580000  14.010000   ; qtot -0.314801
 2440         hn     97    bbb    H21   2440 0.31480000   1.008000   ; qtot -0.000001
; residue   98 bbb rtp bbb q -0.0
 2441         c3     98    bbb     C1   2441 0.44180000  12.010000   ; qtot 0.441799
 2442         h1     98    bbb     H1   2442 -0.03530000   1.008000   ; qtot 0.406499
 2443         h1     98    bbb     H2   2443 -0.03530000   1.008000   ; qtot 0.371199
 2444         c3     98    bbb     C2   2444 -0.28250000  12.010000   ; qtot 0.088699
 2445         h1     98    bbb     H3   2445 0.15710000   1.008000   ; qtot 0.245799
 2446         h1     98    bbb     H4   2446 0.15710000   1.008000   ; qtot 0.402899
 2447         n3     98    bbb     N1   2447 -0.74090000  14.010000   ; qtot -0.338001
 2448         c3     98    bbb     C3   2448 0.51680000  12.010000   ; qtot 0.178799
 2449         h1     98    bbb     H5   2449 -0.05230000   1.008000   ; qtot 0.126499
 2450         h1     98    bbb     H6   2450 -0.05230000   1.008000   ; qtot 0.074199
 2451         c3     98    bbb     C4   2451 0.51680000  12.010000   ; qtot 0.590999
 2452         h1     98    bbb     H7   2452 -0.05230000   1.008000   ; qtot 0.538699
 2453         h1     98    bbb     H8   2453 -0.05230000   1.008000   ; qtot 0.486399
 2454         c3     98    bbb     C5   2454 -0.60390000  12.010000   ; qtot -0.117501
 2455         hc     98    bbb     H9   2455 0.16730000   1.008000   ; qtot 0.049799
 2456         hc     98    bbb    H10   2456 0.16730000   1.008000   ; qtot 0.217099
 2457         c3     98    bbb     C6   2457 -0.60390000  12.010000   ; qtot -0.386801
 2458         hc     98    bbb    H11   2458 0.16730000   1.008000   ; qtot -0.219501
 2459         hc     98    bbb    H12   2459 0.16730000   1.008000   ; qtot -0.052201
 2460          c     98    bbb     C7   2460 0.72110000  12.010000   ; qtot 0.668899
 2461          c     98    bbb     C8   2461 0.72110000  12.010000   ; qtot 1.389999
 2462          o     98    bbb     O1   2462 -0.61950000  16.000000   ; qtot 0.770499
 2463          o     98    bbb     O2   2463 -0.61950000  16.000000   ; qtot 0.150999
 2464          n     98    bbb     N4   2464 -0.46580000  14.010000   ; qtot -0.314801
 2465         hn     98    bbb    H21   2465 0.31480000   1.008000   ; qtot -0.000001
; residue   99 bbb rtp bbb q -0.0
 2466         c3     99    bbb     C1   2466 0.44180000  12.010000   ; qtot 0.441799
 2467         h1     99    bbb     H1   2467 -0.03530000   1.008000   ; qtot 0.406499
 2468         h1     99    bbb     H2   2468 -0.03530000   1.008000   ; qtot 0.371199
 2469         c3     99    bbb     C2   2469 -0.28250000  12.010000   ; qtot 0.088699
 2470         h1     99    bbb     H3   2470 0.15710000   1.008000   ; qtot 0.245799
 2471         h1     99    bbb     H4   2471 0.15710000   1.008000   ; qtot 0.402899
 2472         n3     99    bbb     N1   2472 -0.74090000  14.010000   ; qtot -0.338001
 2473         c3     99    bbb     C3   2473 0.51680000  12.010000   ; qtot 0.178799
 2474         h1     99    bbb     H5   2474 -0.05230000   1.008000   ; qtot 0.126499
 2475         h1     99    bbb     H6   2475 -0.05230000   1.008000   ; qtot 0.074199
 2476         c3     99    bbb     C4   2476 0.51680000  12.010000   ; qtot 0.590999
 2477         h1     99    bbb     H7   2477 -0.05230000   1.008000   ; qtot 0.538699
 2478         h1     99    bbb     H8   2478 -0.05230000   1.008000   ; qtot 0.486399
 2479         c3     99    bbb     C5   2479 -0.60390000  12.010000   ; qtot -0.117501
 2480         hc     99    bbb     H9   2480 0.16730000   1.008000   ; qtot 0.049799
 2481         hc     99    bbb    H10   2481 0.16730000   1.008000   ; qtot 0.217099
 2482         c3     99    bbb     C6   2482 -0.60390000  12.010000   ; qtot -0.386801
 2483         hc     99    bbb    H11   2483 0.16730000   1.008000   ; qtot -0.219501
 2484         hc     99    bbb    H12   2484 0.16730000   1.008000   ; qtot -0.052201
 2485          c     99    bbb     C7   2485 0.72110000  12.010000   ; qtot 0.668899
 2486          c     99    bbb     C8   2486 0.72110000  12.010000   ; qtot 1.389999
 2487          o     99    bbb     O1   2487 -0.61950000  16.000000   ; qtot 0.770499
 2488          o     99    bbb     O2   2488 -0.61950000  16.000000   ; qtot 0.150999
 2489          n     99    bbb     N4   2489 -0.46580000  14.010000   ; qtot -0.314801
 2490         hn     99    bbb    H21   2490 0.31480000   1.008000   ; qtot -0.000001
; residue  100 bbb rtp bbb q -0.0
 2491         c3    100    bbb     C1   2491 0.44180000  12.010000   ; qtot 0.441799
 2492         h1    100    bbb     H1   2492 -0.03530000   1.008000   ; qtot 0.406499
 2493         h1    100    bbb     H2   2493 -0.03530000   1.008000   ; qtot 0.371199
 2494         c3    100    bbb     C2   2494 -0.28250000  12.010000   ; qtot 0.088699
 2495         h1    100    bbb     H3   2495 0.15710000   1.008000   ; qtot 0.245799
 2496         h1    100    bbb     H4   2496 0.15710000   1.008000   ; qtot 0.402899
 2497         n3    100    bbb     N1   2497 -0.74090000  14.010000   ; qtot -0.338001
 2498         c3    100    bbb     C3   2498 0.51680000  12.010000   ; qtot 0.178799
 2499         h1    100    bbb     H5   2499 -0.05230000   1.008000   ; qtot 0.126499
 2500         h1    100    bbb     H6   2500 -0.05230000   1.008000   ; qtot 0.074199
 2501         c3    100    bbb     C4   2501 0.51680000  12.010000   ; qtot 0.590999
 2502         h1    100    bbb     H7   2502 -0.05230000   1.008000   ; qtot 0.538699
 2503         h1    100    bbb     H8   2503 -0.05230000   1.008000   ; qtot 0.486399
 2504         c3    100    bbb     C5   2504 -0.60390000  12.010000   ; qtot -0.117501
 2505         hc    100    bbb     H9   2505 0.16730000   1.008000   ; qtot 0.049799
 2506         hc    100    bbb    H10   2506 0.16730000   1.008000   ; qtot 0.217099
 2507         c3    100    bbb     C6   2507 -0.60390000  12.010000   ; qtot -0.386801
 2508         hc    100    bbb    H11   2508 0.16730000   1.008000   ; qtot -0.219501
 2509         hc    100    bbb    H12   2509 0.16730000   1.008000   ; qtot -0.052201
 2510          c    100    bbb     C7   2510 0.72110000  12.010000   ; qtot 0.668899
 2511          c    100    bbb     C8   2511 0.72110000  12.010000   ; qtot 1.389999
 2512          o    100    bbb     O1   2512 -0.61950000  16.000000   ; qtot 0.770499
 2513          o    100    bbb     O2   2513 -0.61950000  16.000000   ; qtot 0.150999
 2514          n    100    bbb     N4   2514 -0.46580000  14.010000   ; qtot -0.314801
 2515         hn    100    bbb    H21   2515 0.31480000   1.008000   ; qtot -0.000001
; residue  101 bbb rtp bbb q -0.0
 2516         c3    101    bbb     C1   2516 0.44180000  12.010000   ; qtot 0.441799
 2517         h1    101    bbb     H1   2517 -0.03530000   1.008000   ; qtot 0.406499
 2518         h1    101    bbb     H2   2518 -0.03530000   1.008000   ; qtot 0.371199
 2519         c3    101    bbb     C2   2519 -0.28250000  12.010000   ; qtot 0.088699
 2520         h1    101    bbb     H3   2520 0.15710000   1.008000   ; qtot 0.245799
 2521         h1    101    bbb     H4   2521 0.15710000   1.008000   ; qtot 0.402899
 2522         n3    101    bbb     N1   2522 -0.74090000  14.010000   ; qtot -0.338001
 2523         c3    101    bbb     C3   2523 0.51680000  12.010000   ; qtot 0.178799
 2524         h1    101    bbb     H5   2524 -0.05230000   1.008000   ; qtot 0.126499
 2525         h1    101    bbb     H6   2525 -0.05230000   1.008000   ; qtot 0.074199
 2526         c3    101    bbb     C4   2526 0.51680000  12.010000   ; qtot 0.590999
 2527         h1    101    bbb     H7   2527 -0.05230000   1.008000   ; qtot 0.538699
 2528         h1    101    bbb     H8   2528 -0.05230000   1.008000   ; qtot 0.486399
 2529         c3    101    bbb     C5   2529 -0.60390000  12.010000   ; qtot -0.117501
 2530         hc    101    bbb     H9   2530 0.16730000   1.008000   ; qtot 0.049799
 2531         hc    101    bbb    H10   2531 0.16730000   1.008000   ; qtot 0.217099
 2532         c3    101    bbb     C6   2532 -0.60390000  12.010000   ; qtot -0.386801
 2533         hc    101    bbb    H11   2533 0.16730000   1.008000   ; qtot -0.219501
 2534         hc    101    bbb    H12   2534 0.16730000   1.008000   ; qtot -0.052201
 2535          c    101    bbb     C7   2535 0.72110000  12.010000   ; qtot 0.668899
 2536          c    101    bbb     C8   2536 0.72110000  12.010000   ; qtot 1.389999
 2537          o    101    bbb     O1   2537 -0.61950000  16.000000   ; qtot 0.770499
 2538          o    101    bbb     O2   2538 -0.61950000  16.000000   ; qtot 0.150999
 2539          n    101    bbb     N4   2539 -0.46580000  14.010000   ; qtot -0.314801
 2540         hn    101    bbb    H21   2540 0.31480000   1.008000   ; qtot -0.000001
; residue  102 bbb rtp bbb q -0.0
 2541         c3    102    bbb     C1   2541 0.44180000  12.010000   ; qtot 0.441799
 2542         h1    102    bbb     H1   2542 -0.03530000   1.008000   ; qtot 0.406499
 2543         h1    102    bbb     H2   2543 -0.03530000   1.008000   ; qtot 0.371199
 2544         c3    102    bbb     C2   2544 -0.28250000  12.010000   ; qtot 0.088699
 2545         h1    102    bbb     H3   2545 0.15710000   1.008000   ; qtot 0.245799
 2546         h1    102    bbb     H4   2546 0.15710000   1.008000   ; qtot 0.402899
 2547         n3    102    bbb     N1   2547 -0.74090000  14.010000   ; qtot -0.338001
 2548         c3    102    bbb     C3   2548 0.51680000  12.010000   ; qtot 0.178799
 2549         h1    102    bbb     H5   2549 -0.05230000   1.008000   ; qtot 0.126499
 2550         h1    102    bbb     H6   2550 -0.05230000   1.008000   ; qtot 0.074199
 2551         c3    102    bbb     C4   2551 0.51680000  12.010000   ; qtot 0.590999
 2552         h1    102    bbb     H7   2552 -0.05230000   1.008000   ; qtot 0.538699
 2553         h1    102    bbb     H8   2553 -0.05230000   1.008000   ; qtot 0.486399
 2554         c3    102    bbb     C5   2554 -0.60390000  12.010000   ; qtot -0.117501
 2555         hc    102    bbb     H9   2555 0.16730000   1.008000   ; qtot 0.049799
 2556         hc    102    bbb    H10   2556 0.16730000   1.008000   ; qtot 0.217099
 2557         c3    102    bbb     C6   2557 -0.60390000  12.010000   ; qtot -0.386801
 2558         hc    102    bbb    H11   2558 0.16730000   1.008000   ; qtot -0.219501
 2559         hc    102    bbb    H12   2559 0.16730000   1.008000   ; qtot -0.052201
 2560          c    102    bbb     C7   2560 0.72110000  12.010000   ; qtot 0.668899
 2561          c    102    bbb     C8   2561 0.72110000  12.010000   ; qtot 1.389999
 2562          o    102    bbb     O1   2562 -0.61950000  16.000000   ; qtot 0.770499
 2563          o    102    bbb     O2   2563 -0.61950000  16.000000   ; qtot 0.150999
 2564          n    102    bbb     N4   2564 -0.46580000  14.010000   ; qtot -0.314801
 2565         hn    102    bbb    H21   2565 0.31480000   1.008000   ; qtot -0.000001
; residue  103 bbb rtp bbb q -0.0
 2566         c3    103    bbb     C1   2566 0.44180000  12.010000   ; qtot 0.441799
 2567         h1    103    bbb     H1   2567 -0.03530000   1.008000   ; qtot 0.406499
 2568         h1    103    bbb     H2   2568 -0.03530000   1.008000   ; qtot 0.371199
 2569         c3    103    bbb     C2   2569 -0.28250000  12.010000   ; qtot 0.088699
 2570         h1    103    bbb     H3   2570 0.15710000   1.008000   ; qtot 0.245799
 2571         h1    103    bbb     H4   2571 0.15710000   1.008000   ; qtot 0.402899
 2572         n3    103    bbb     N1   2572 -0.74090000  14.010000   ; qtot -0.338001
 2573         c3    103    bbb     C3   2573 0.51680000  12.010000   ; qtot 0.178799
 2574         h1    103    bbb     H5   2574 -0.05230000   1.008000   ; qtot 0.126499
 2575         h1    103    bbb     H6   2575 -0.05230000   1.008000   ; qtot 0.074199
 2576         c3    103    bbb     C4   2576 0.51680000  12.010000   ; qtot 0.590999
 2577         h1    103    bbb     H7   2577 -0.05230000   1.008000   ; qtot 0.538699
 2578         h1    103    bbb     H8   2578 -0.05230000   1.008000   ; qtot 0.486399
 2579         c3    103    bbb     C5   2579 -0.60390000  12.010000   ; qtot -0.117501
 2580         hc    103    bbb     H9   2580 0.16730000   1.008000   ; qtot 0.049799
 2581         hc    103    bbb    H10   2581 0.16730000   1.008000   ; qtot 0.217099
 2582         c3    103    bbb     C6   2582 -0.60390000  12.010000   ; qtot -0.386801
 2583         hc    103    bbb    H11   2583 0.16730000   1.008000   ; qtot -0.219501
 2584         hc    103    bbb    H12   2584 0.16730000   1.008000   ; qtot -0.052201
 2585          c    103    bbb     C7   2585 0.72110000  12.010000   ; qtot 0.668899
 2586          c    103    bbb     C8   2586 0.72110000  12.010000   ; qtot 1.389999
 2587          o    103    bbb     O1   2587 -0.61950000  16.000000   ; qtot 0.770499
 2588          o    103    bbb     O2   2588 -0.61950000  16.000000   ; qtot 0.150999
 2589          n    103    bbb     N4   2589 -0.46580000  14.010000   ; qtot -0.314801
 2590         hn    103    bbb    H21   2590 0.31480000   1.008000   ; qtot -0.000001
; residue  104 bbb rtp bbb q -0.0
 2591         c3    104    bbb     C1   2591 0.44180000  12.010000   ; qtot 0.441799
 2592         h1    104    bbb     H1   2592 -0.03530000   1.008000   ; qtot 0.406499
 2593         h1    104    bbb     H2   2593 -0.03530000   1.008000   ; qtot 0.371199
 2594         c3    104    bbb     C2   2594 -0.28250000  12.010000   ; qtot 0.088699
 2595         h1    104    bbb     H3   2595 0.15710000   1.008000   ; qtot 0.245799
 2596         h1    104    bbb     H4   2596 0.15710000   1.008000   ; qtot 0.402899
 2597         n3    104    bbb     N1   2597 -0.74090000  14.010000   ; qtot -0.338001
 2598         c3    104    bbb     C3   2598 0.51680000  12.010000   ; qtot 0.178799
 2599         h1    104    bbb     H5   2599 -0.05230000   1.008000   ; qtot 0.126499
 2600         h1    104    bbb     H6   2600 -0.05230000   1.008000   ; qtot 0.074199
 2601         c3    104    bbb     C4   2601 0.51680000  12.010000   ; qtot 0.590999
 2602         h1    104    bbb     H7   2602 -0.05230000   1.008000   ; qtot 0.538699
 2603         h1    104    bbb     H8   2603 -0.05230000   1.008000   ; qtot 0.486399
 2604         c3    104    bbb     C5   2604 -0.60390000  12.010000   ; qtot -0.117501
 2605         hc    104    bbb     H9   2605 0.16730000   1.008000   ; qtot 0.049799
 2606         hc    104    bbb    H10   2606 0.16730000   1.008000   ; qtot 0.217099
 2607         c3    104    bbb     C6   2607 -0.60390000  12.010000   ; qtot -0.386801
 2608         hc    104    bbb    H11   2608 0.16730000   1.008000   ; qtot -0.219501
 2609         hc    104    bbb    H12   2609 0.16730000   1.008000   ; qtot -0.052201
 2610          c    104    bbb     C7   2610 0.72110000  12.010000   ; qtot 0.668899
 2611          c    104    bbb     C8   2611 0.72110000  12.010000   ; qtot 1.389999
 2612          o    104    bbb     O1   2612 -0.61950000  16.000000   ; qtot 0.770499
 2613          o    104    bbb     O2   2613 -0.61950000  16.000000   ; qtot 0.150999
 2614          n    104    bbb     N4   2614 -0.46580000  14.010000   ; qtot -0.314801
 2615         hn    104    bbb    H21   2615 0.31480000   1.008000   ; qtot -0.000001
; residue  105 bbb rtp bbb q -0.0
 2616         c3    105    bbb     C1   2616 0.44180000  12.010000   ; qtot 0.441799
 2617         h1    105    bbb     H1   2617 -0.03530000   1.008000   ; qtot 0.406499
 2618         h1    105    bbb     H2   2618 -0.03530000   1.008000   ; qtot 0.371199
 2619         c3    105    bbb     C2   2619 -0.28250000  12.010000   ; qtot 0.088699
 2620         h1    105    bbb     H3   2620 0.15710000   1.008000   ; qtot 0.245799
 2621         h1    105    bbb     H4   2621 0.15710000   1.008000   ; qtot 0.402899
 2622         n3    105    bbb     N1   2622 -0.74090000  14.010000   ; qtot -0.338001
 2623         c3    105    bbb     C3   2623 0.51680000  12.010000   ; qtot 0.178799
 2624         h1    105    bbb     H5   2624 -0.05230000   1.008000   ; qtot 0.126499
 2625         h1    105    bbb     H6   2625 -0.05230000   1.008000   ; qtot 0.074199
 2626         c3    105    bbb     C4   2626 0.51680000  12.010000   ; qtot 0.590999
 2627         h1    105    bbb     H7   2627 -0.05230000   1.008000   ; qtot 0.538699
 2628         h1    105    bbb     H8   2628 -0.05230000   1.008000   ; qtot 0.486399
 2629         c3    105    bbb     C5   2629 -0.60390000  12.010000   ; qtot -0.117501
 2630         hc    105    bbb     H9   2630 0.16730000   1.008000   ; qtot 0.049799
 2631         hc    105    bbb    H10   2631 0.16730000   1.008000   ; qtot 0.217099
 2632         c3    105    bbb     C6   2632 -0.60390000  12.010000   ; qtot -0.386801
 2633         hc    105    bbb    H11   2633 0.16730000   1.008000   ; qtot -0.219501
 2634         hc    105    bbb    H12   2634 0.16730000   1.008000   ; qtot -0.052201
 2635          c    105    bbb     C7   2635 0.72110000  12.010000   ; qtot 0.668899
 2636          c    105    bbb     C8   2636 0.72110000  12.010000   ; qtot 1.389999
 2637          o    105    bbb     O1   2637 -0.61950000  16.000000   ; qtot 0.770499
 2638          o    105    bbb     O2   2638 -0.61950000  16.000000   ; qtot 0.150999
 2639          n    105    bbb     N4   2639 -0.46580000  14.010000   ; qtot -0.314801
 2640         hn    105    bbb    H21   2640 0.31480000   1.008000   ; qtot -0.000001
; residue  106 bbb rtp bbb q -0.0
 2641         c3    106    bbb     C1   2641 0.44180000  12.010000   ; qtot 0.441799
 2642         h1    106    bbb     H1   2642 -0.03530000   1.008000   ; qtot 0.406499
 2643         h1    106    bbb     H2   2643 -0.03530000   1.008000   ; qtot 0.371199
 2644         c3    106    bbb     C2   2644 -0.28250000  12.010000   ; qtot 0.088699
 2645         h1    106    bbb     H3   2645 0.15710000   1.008000   ; qtot 0.245799
 2646         h1    106    bbb     H4   2646 0.15710000   1.008000   ; qtot 0.402899
 2647         n3    106    bbb     N1   2647 -0.74090000  14.010000   ; qtot -0.338001
 2648         c3    106    bbb     C3   2648 0.51680000  12.010000   ; qtot 0.178799
 2649         h1    106    bbb     H5   2649 -0.05230000   1.008000   ; qtot 0.126499
 2650         h1    106    bbb     H6   2650 -0.05230000   1.008000   ; qtot 0.074199
 2651         c3    106    bbb     C4   2651 0.51680000  12.010000   ; qtot 0.590999
 2652         h1    106    bbb     H7   2652 -0.05230000   1.008000   ; qtot 0.538699
 2653         h1    106    bbb     H8   2653 -0.05230000   1.008000   ; qtot 0.486399
 2654         c3    106    bbb     C5   2654 -0.60390000  12.010000   ; qtot -0.117501
 2655         hc    106    bbb     H9   2655 0.16730000   1.008000   ; qtot 0.049799
 2656         hc    106    bbb    H10   2656 0.16730000   1.008000   ; qtot 0.217099
 2657         c3    106    bbb     C6   2657 -0.60390000  12.010000   ; qtot -0.386801
 2658         hc    106    bbb    H11   2658 0.16730000   1.008000   ; qtot -0.219501
 2659         hc    106    bbb    H12   2659 0.16730000   1.008000   ; qtot -0.052201
 2660          c    106    bbb     C7   2660 0.72110000  12.010000   ; qtot 0.668899
 2661          c    106    bbb     C8   2661 0.72110000  12.010000   ; qtot 1.389999
 2662          o    106    bbb     O1   2662 -0.61950000  16.000000   ; qtot 0.770499
 2663          o    106    bbb     O2   2663 -0.61950000  16.000000   ; qtot 0.150999
 2664          n    106    bbb     N4   2664 -0.46580000  14.010000   ; qtot -0.314801
 2665         hn    106    bbb    H21   2665 0.31480000   1.008000   ; qtot -0.000001
; residue  107 bbb rtp bbb q -0.0
 2666         c3    107    bbb     C1   2666 0.44180000  12.010000   ; qtot 0.441799
 2667         h1    107    bbb     H1   2667 -0.03530000   1.008000   ; qtot 0.406499
 2668         h1    107    bbb     H2   2668 -0.03530000   1.008000   ; qtot 0.371199
 2669         c3    107    bbb     C2   2669 -0.28250000  12.010000   ; qtot 0.088699
 2670         h1    107    bbb     H3   2670 0.15710000   1.008000   ; qtot 0.245799
 2671         h1    107    bbb     H4   2671 0.15710000   1.008000   ; qtot 0.402899
 2672         n3    107    bbb     N1   2672 -0.74090000  14.010000   ; qtot -0.338001
 2673         c3    107    bbb     C3   2673 0.51680000  12.010000   ; qtot 0.178799
 2674         h1    107    bbb     H5   2674 -0.05230000   1.008000   ; qtot 0.126499
 2675         h1    107    bbb     H6   2675 -0.05230000   1.008000   ; qtot 0.074199
 2676         c3    107    bbb     C4   2676 0.51680000  12.010000   ; qtot 0.590999
 2677         h1    107    bbb     H7   2677 -0.05230000   1.008000   ; qtot 0.538699
 2678         h1    107    bbb     H8   2678 -0.05230000   1.008000   ; qtot 0.486399
 2679         c3    107    bbb     C5   2679 -0.60390000  12.010000   ; qtot -0.117501
 2680         hc    107    bbb     H9   2680 0.16730000   1.008000   ; qtot 0.049799
 2681         hc    107    bbb    H10   2681 0.16730000   1.008000   ; qtot 0.217099
 2682         c3    107    bbb     C6   2682 -0.60390000  12.010000   ; qtot -0.386801
 2683         hc    107    bbb    H11   2683 0.16730000   1.008000   ; qtot -0.219501
 2684         hc    107    bbb    H12   2684 0.16730000   1.008000   ; qtot -0.052201
 2685          c    107    bbb     C7   2685 0.72110000  12.010000   ; qtot 0.668899
 2686          c    107    bbb     C8   2686 0.72110000  12.010000   ; qtot 1.389999
 2687          o    107    bbb     O1   2687 -0.61950000  16.000000   ; qtot 0.770499
 2688          o    107    bbb     O2   2688 -0.61950000  16.000000   ; qtot 0.150999
 2689          n    107    bbb     N4   2689 -0.46580000  14.010000   ; qtot -0.314801
 2690         hn    107    bbb    H21   2690 0.31480000   1.008000   ; qtot -0.000001
; residue  108 bbb rtp bbb q -0.0
 2691         c3    108    bbb     C1   2691 0.44180000  12.010000   ; qtot 0.441799
 2692         h1    108    bbb     H1   2692 -0.03530000   1.008000   ; qtot 0.406499
 2693         h1    108    bbb     H2   2693 -0.03530000   1.008000   ; qtot 0.371199
 2694         c3    108    bbb     C2   2694 -0.28250000  12.010000   ; qtot 0.088699
 2695         h1    108    bbb     H3   2695 0.15710000   1.008000   ; qtot 0.245799
 2696         h1    108    bbb     H4   2696 0.15710000   1.008000   ; qtot 0.402899
 2697         n3    108    bbb     N1   2697 -0.74090000  14.010000   ; qtot -0.338001
 2698         c3    108    bbb     C3   2698 0.51680000  12.010000   ; qtot 0.178799
 2699         h1    108    bbb     H5   2699 -0.05230000   1.008000   ; qtot 0.126499
 2700         h1    108    bbb     H6   2700 -0.05230000   1.008000   ; qtot 0.074199
 2701         c3    108    bbb     C4   2701 0.51680000  12.010000   ; qtot 0.590999
 2702         h1    108    bbb     H7   2702 -0.05230000   1.008000   ; qtot 0.538699
 2703         h1    108    bbb     H8   2703 -0.05230000   1.008000   ; qtot 0.486399
 2704         c3    108    bbb     C5   2704 -0.60390000  12.010000   ; qtot -0.117501
 2705         hc    108    bbb     H9   2705 0.16730000   1.008000   ; qtot 0.049799
 2706         hc    108    bbb    H10   2706 0.16730000   1.008000   ; qtot 0.217099
 2707         c3    108    bbb     C6   2707 -0.60390000  12.010000   ; qtot -0.386801
 2708         hc    108    bbb    H11   2708 0.16730000   1.008000   ; qtot -0.219501
 2709         hc    108    bbb    H12   2709 0.16730000   1.008000   ; qtot -0.052201
 2710          c    108    bbb     C7   2710 0.72110000  12.010000   ; qtot 0.668899
 2711          c    108    bbb     C8   2711 0.72110000  12.010000   ; qtot 1.389999
 2712          o    108    bbb     O1   2712 -0.61950000  16.000000   ; qtot 0.770499
 2713          o    108    bbb     O2   2713 -0.61950000  16.000000   ; qtot 0.150999
 2714          n    108    bbb     N4   2714 -0.46580000  14.010000   ; qtot -0.314801
 2715         hn    108    bbb    H21   2715 0.31480000   1.008000   ; qtot -0.000001
; residue  109 bbb rtp bbb q -0.0
 2716         c3    109    bbb     C1   2716 0.44180000  12.010000   ; qtot 0.441799
 2717         h1    109    bbb     H1   2717 -0.03530000   1.008000   ; qtot 0.406499
 2718         h1    109    bbb     H2   2718 -0.03530000   1.008000   ; qtot 0.371199
 2719         c3    109    bbb     C2   2719 -0.28250000  12.010000   ; qtot 0.088699
 2720         h1    109    bbb     H3   2720 0.15710000   1.008000   ; qtot 0.245799
 2721         h1    109    bbb     H4   2721 0.15710000   1.008000   ; qtot 0.402899
 2722         n3    109    bbb     N1   2722 -0.74090000  14.010000   ; qtot -0.338001
 2723         c3    109    bbb     C3   2723 0.51680000  12.010000   ; qtot 0.178799
 2724         h1    109    bbb     H5   2724 -0.05230000   1.008000   ; qtot 0.126499
 2725         h1    109    bbb     H6   2725 -0.05230000   1.008000   ; qtot 0.074199
 2726         c3    109    bbb     C4   2726 0.51680000  12.010000   ; qtot 0.590999
 2727         h1    109    bbb     H7   2727 -0.05230000   1.008000   ; qtot 0.538699
 2728         h1    109    bbb     H8   2728 -0.05230000   1.008000   ; qtot 0.486399
 2729         c3    109    bbb     C5   2729 -0.60390000  12.010000   ; qtot -0.117501
 2730         hc    109    bbb     H9   2730 0.16730000   1.008000   ; qtot 0.049799
 2731         hc    109    bbb    H10   2731 0.16730000   1.008000   ; qtot 0.217099
 2732         c3    109    bbb     C6   2732 -0.60390000  12.010000   ; qtot -0.386801
 2733         hc    109    bbb    H11   2733 0.16730000   1.008000   ; qtot -0.219501
 2734         hc    109    bbb    H12   2734 0.16730000   1.008000   ; qtot -0.052201
 2735          c    109    bbb     C7   2735 0.72110000  12.010000   ; qtot 0.668899
 2736          c    109    bbb     C8   2736 0.72110000  12.010000   ; qtot 1.389999
 2737          o    109    bbb     O1   2737 -0.61950000  16.000000   ; qtot 0.770499
 2738          o    109    bbb     O2   2738 -0.61950000  16.000000   ; qtot 0.150999
 2739          n    109    bbb     N4   2739 -0.46580000  14.010000   ; qtot -0.314801
 2740         hn    109    bbb    H21   2740 0.31480000   1.008000   ; qtot -0.000001
; residue  110 bbb rtp bbb q -0.0
 2741         c3    110    bbb     C1   2741 0.44180000  12.010000   ; qtot 0.441799
 2742         h1    110    bbb     H1   2742 -0.03530000   1.008000   ; qtot 0.406499
 2743         h1    110    bbb     H2   2743 -0.03530000   1.008000   ; qtot 0.371199
 2744         c3    110    bbb     C2   2744 -0.28250000  12.010000   ; qtot 0.088699
 2745         h1    110    bbb     H3   2745 0.15710000   1.008000   ; qtot 0.245799
 2746         h1    110    bbb     H4   2746 0.15710000   1.008000   ; qtot 0.402899
 2747         n3    110    bbb     N1   2747 -0.74090000  14.010000   ; qtot -0.338001
 2748         c3    110    bbb     C3   2748 0.51680000  12.010000   ; qtot 0.178799
 2749         h1    110    bbb     H5   2749 -0.05230000   1.008000   ; qtot 0.126499
 2750         h1    110    bbb     H6   2750 -0.05230000   1.008000   ; qtot 0.074199
 2751         c3    110    bbb     C4   2751 0.51680000  12.010000   ; qtot 0.590999
 2752         h1    110    bbb     H7   2752 -0.05230000   1.008000   ; qtot 0.538699
 2753         h1    110    bbb     H8   2753 -0.05230000   1.008000   ; qtot 0.486399
 2754         c3    110    bbb     C5   2754 -0.60390000  12.010000   ; qtot -0.117501
 2755         hc    110    bbb     H9   2755 0.16730000   1.008000   ; qtot 0.049799
 2756         hc    110    bbb    H10   2756 0.16730000   1.008000   ; qtot 0.217099
 2757         c3    110    bbb     C6   2757 -0.60390000  12.010000   ; qtot -0.386801
 2758         hc    110    bbb    H11   2758 0.16730000   1.008000   ; qtot -0.219501
 2759         hc    110    bbb    H12   2759 0.16730000   1.008000   ; qtot -0.052201
 2760          c    110    bbb     C7   2760 0.72110000  12.010000   ; qtot 0.668899
 2761          c    110    bbb     C8   2761 0.72110000  12.010000   ; qtot 1.389999
 2762          o    110    bbb     O1   2762 -0.61950000  16.000000   ; qtot 0.770499
 2763          o    110    bbb     O2   2763 -0.61950000  16.000000   ; qtot 0.150998
 2764          n    110    bbb     N4   2764 -0.46580000  14.010000   ; qtot -0.314802
 2765         hn    110    bbb    H21   2765 0.31480000   1.008000   ; qtot -0.000002
; residue  111 bbb rtp bbb q -0.0
 2766         c3    111    bbb     C1   2766 0.44180000  12.010000   ; qtot 0.441798
 2767         h1    111    bbb     H1   2767 -0.03530000   1.008000   ; qtot 0.406498
 2768         h1    111    bbb     H2   2768 -0.03530000   1.008000   ; qtot 0.371198
 2769         c3    111    bbb     C2   2769 -0.28250000  12.010000   ; qtot 0.088698
 2770         h1    111    bbb     H3   2770 0.15710000   1.008000   ; qtot 0.245798
 2771         h1    111    bbb     H4   2771 0.15710000   1.008000   ; qtot 0.402898
 2772         n3    111    bbb     N1   2772 -0.74090000  14.010000   ; qtot -0.338002
 2773         c3    111    bbb     C3   2773 0.51680000  12.010000   ; qtot 0.178798
 2774         h1    111    bbb     H5   2774 -0.05230000   1.008000   ; qtot 0.126498
 2775         h1    111    bbb     H6   2775 -0.05230000   1.008000   ; qtot 0.074198
 2776         c3    111    bbb     C4   2776 0.51680000  12.010000   ; qtot 0.590998
 2777         h1    111    bbb     H7   2777 -0.05230000   1.008000   ; qtot 0.538698
 2778         h1    111    bbb     H8   2778 -0.05230000   1.008000   ; qtot 0.486398
 2779         c3    111    bbb     C5   2779 -0.60390000  12.010000   ; qtot -0.117502
 2780         hc    111    bbb     H9   2780 0.16730000   1.008000   ; qtot 0.049798
 2781         hc    111    bbb    H10   2781 0.16730000   1.008000   ; qtot 0.217098
 2782         c3    111    bbb     C6   2782 -0.60390000  12.010000   ; qtot -0.386802
 2783         hc    111    bbb    H11   2783 0.16730000   1.008000   ; qtot -0.219502
 2784         hc    111    bbb    H12   2784 0.16730000   1.008000   ; qtot -0.052202
 2785          c    111    bbb     C7   2785 0.72110000  12.010000   ; qtot 0.668898
 2786          c    111    bbb     C8   2786 0.72110000  12.010000   ; qtot 1.389998
 2787          o    111    bbb     O1   2787 -0.61950000  16.000000   ; qtot 0.770498
 2788          o    111    bbb     O2   2788 -0.61950000  16.000000   ; qtot 0.150998
 2789          n    111    bbb     N4   2789 -0.46580000  14.010000   ; qtot -0.314802
 2790         hn    111    bbb    H21   2790 0.31480000   1.008000   ; qtot -0.000002
; residue  112 bbb rtp bbb q -0.0
 2791         c3    112    bbb     C1   2791 0.44180000  12.010000   ; qtot 0.441798
 2792         h1    112    bbb     H1   2792 -0.03530000   1.008000   ; qtot 0.406498
 2793         h1    112    bbb     H2   2793 -0.03530000   1.008000   ; qtot 0.371198
 2794         c3    112    bbb     C2   2794 -0.28250000  12.010000   ; qtot 0.088698
 2795         h1    112    bbb     H3   2795 0.15710000   1.008000   ; qtot 0.245798
 2796         h1    112    bbb     H4   2796 0.15710000   1.008000   ; qtot 0.402898
 2797         n3    112    bbb     N1   2797 -0.74090000  14.010000   ; qtot -0.338002
 2798         c3    112    bbb     C3   2798 0.51680000  12.010000   ; qtot 0.178798
 2799         h1    112    bbb     H5   2799 -0.05230000   1.008000   ; qtot 0.126498
 2800         h1    112    bbb     H6   2800 -0.05230000   1.008000   ; qtot 0.074198
 2801         c3    112    bbb     C4   2801 0.51680000  12.010000   ; qtot 0.590998
 2802         h1    112    bbb     H7   2802 -0.05230000   1.008000   ; qtot 0.538698
 2803         h1    112    bbb     H8   2803 -0.05230000   1.008000   ; qtot 0.486398
 2804         c3    112    bbb     C5   2804 -0.60390000  12.010000   ; qtot -0.117502
 2805         hc    112    bbb     H9   2805 0.16730000   1.008000   ; qtot 0.049798
 2806         hc    112    bbb    H10   2806 0.16730000   1.008000   ; qtot 0.217098
 2807         c3    112    bbb     C6   2807 -0.60390000  12.010000   ; qtot -0.386802
 2808         hc    112    bbb    H11   2808 0.16730000   1.008000   ; qtot -0.219502
 2809         hc    112    bbb    H12   2809 0.16730000   1.008000   ; qtot -0.052202
 2810          c    112    bbb     C7   2810 0.72110000  12.010000   ; qtot 0.668898
 2811          c    112    bbb     C8   2811 0.72110000  12.010000   ; qtot 1.389998
 2812          o    112    bbb     O1   2812 -0.61950000  16.000000   ; qtot 0.770498
 2813          o    112    bbb     O2   2813 -0.61950000  16.000000   ; qtot 0.150998
 2814          n    112    bbb     N4   2814 -0.46580000  14.010000   ; qtot -0.314802
 2815         hn    112    bbb    H21   2815 0.31480000   1.008000   ; qtot -0.000002
; residue  113 bbb rtp bbb q -0.0
 2816         c3    113    bbb     C1   2816 0.44180000  12.010000   ; qtot 0.441798
 2817         h1    113    bbb     H1   2817 -0.03530000   1.008000   ; qtot 0.406498
 2818         h1    113    bbb     H2   2818 -0.03530000   1.008000   ; qtot 0.371198
 2819         c3    113    bbb     C2   2819 -0.28250000  12.010000   ; qtot 0.088698
 2820         h1    113    bbb     H3   2820 0.15710000   1.008000   ; qtot 0.245798
 2821         h1    113    bbb     H4   2821 0.15710000   1.008000   ; qtot 0.402898
 2822         n3    113    bbb     N1   2822 -0.74090000  14.010000   ; qtot -0.338002
 2823         c3    113    bbb     C3   2823 0.51680000  12.010000   ; qtot 0.178798
 2824         h1    113    bbb     H5   2824 -0.05230000   1.008000   ; qtot 0.126498
 2825         h1    113    bbb     H6   2825 -0.05230000   1.008000   ; qtot 0.074198
 2826         c3    113    bbb     C4   2826 0.51680000  12.010000   ; qtot 0.590998
 2827         h1    113    bbb     H7   2827 -0.05230000   1.008000   ; qtot 0.538698
 2828         h1    113    bbb     H8   2828 -0.05230000   1.008000   ; qtot 0.486398
 2829         c3    113    bbb     C5   2829 -0.60390000  12.010000   ; qtot -0.117502
 2830         hc    113    bbb     H9   2830 0.16730000   1.008000   ; qtot 0.049798
 2831         hc    113    bbb    H10   2831 0.16730000   1.008000   ; qtot 0.217098
 2832         c3    113    bbb     C6   2832 -0.60390000  12.010000   ; qtot -0.386802
 2833         hc    113    bbb    H11   2833 0.16730000   1.008000   ; qtot -0.219502
 2834         hc    113    bbb    H12   2834 0.16730000   1.008000   ; qtot -0.052202
 2835          c    113    bbb     C7   2835 0.72110000  12.010000   ; qtot 0.668898
 2836          c    113    bbb     C8   2836 0.72110000  12.010000   ; qtot 1.389998
 2837          o    113    bbb     O1   2837 -0.61950000  16.000000   ; qtot 0.770498
 2838          o    113    bbb     O2   2838 -0.61950000  16.000000   ; qtot 0.150998
 2839          n    113    bbb     N4   2839 -0.46580000  14.010000   ; qtot -0.314802
 2840         hn    113    bbb    H21   2840 0.31480000   1.008000   ; qtot -0.000002
; residue  114 bbb rtp bbb q -0.0
 2841         c3    114    bbb     C1   2841 0.44180000  12.010000   ; qtot 0.441798
 2842         h1    114    bbb     H1   2842 -0.03530000   1.008000   ; qtot 0.406498
 2843         h1    114    bbb     H2   2843 -0.03530000   1.008000   ; qtot 0.371198
 2844         c3    114    bbb     C2   2844 -0.28250000  12.010000   ; qtot 0.088698
 2845         h1    114    bbb     H3   2845 0.15710000   1.008000   ; qtot 0.245798
 2846         h1    114    bbb     H4   2846 0.15710000   1.008000   ; qtot 0.402898
 2847         n3    114    bbb     N1   2847 -0.74090000  14.010000   ; qtot -0.338002
 2848         c3    114    bbb     C3   2848 0.51680000  12.010000   ; qtot 0.178798
 2849         h1    114    bbb     H5   2849 -0.05230000   1.008000   ; qtot 0.126498
 2850         h1    114    bbb     H6   2850 -0.05230000   1.008000   ; qtot 0.074198
 2851         c3    114    bbb     C4   2851 0.51680000  12.010000   ; qtot 0.590998
 2852         h1    114    bbb     H7   2852 -0.05230000   1.008000   ; qtot 0.538698
 2853         h1    114    bbb     H8   2853 -0.05230000   1.008000   ; qtot 0.486398
 2854         c3    114    bbb     C5   2854 -0.60390000  12.010000   ; qtot -0.117502
 2855         hc    114    bbb     H9   2855 0.16730000   1.008000   ; qtot 0.049798
 2856         hc    114    bbb    H10   2856 0.16730000   1.008000   ; qtot 0.217098
 2857         c3    114    bbb     C6   2857 -0.60390000  12.010000   ; qtot -0.386802
 2858         hc    114    bbb    H11   2858 0.16730000   1.008000   ; qtot -0.219502
 2859         hc    114    bbb    H12   2859 0.16730000   1.008000   ; qtot -0.052202
 2860          c    114    bbb     C7   2860 0.72110000  12.010000   ; qtot 0.668898
 2861          c    114    bbb     C8   2861 0.72110000  12.010000   ; qtot 1.389998
 2862          o    114    bbb     O1   2862 -0.61950000  16.000000   ; qtot 0.770498
 2863          o    114    bbb     O2   2863 -0.61950000  16.000000   ; qtot 0.150998
 2864          n    114    bbb     N4   2864 -0.46580000  14.010000   ; qtot -0.314802
 2865         hn    114    bbb    H21   2865 0.31480000   1.008000   ; qtot -0.000002
; residue  115 bbb rtp bbb q -0.0
 2866         c3    115    bbb     C1   2866 0.44180000  12.010000   ; qtot 0.441798
 2867         h1    115    bbb     H1   2867 -0.03530000   1.008000   ; qtot 0.406498
 2868         h1    115    bbb     H2   2868 -0.03530000   1.008000   ; qtot 0.371198
 2869         c3    115    bbb     C2   2869 -0.28250000  12.010000   ; qtot 0.088698
 2870         h1    115    bbb     H3   2870 0.15710000   1.008000   ; qtot 0.245798
 2871         h1    115    bbb     H4   2871 0.15710000   1.008000   ; qtot 0.402898
 2872         n3    115    bbb     N1   2872 -0.74090000  14.010000   ; qtot -0.338002
 2873         c3    115    bbb     C3   2873 0.51680000  12.010000   ; qtot 0.178798
 2874         h1    115    bbb     H5   2874 -0.05230000   1.008000   ; qtot 0.126498
 2875         h1    115    bbb     H6   2875 -0.05230000   1.008000   ; qtot 0.074198
 2876         c3    115    bbb     C4   2876 0.51680000  12.010000   ; qtot 0.590998
 2877         h1    115    bbb     H7   2877 -0.05230000   1.008000   ; qtot 0.538698
 2878         h1    115    bbb     H8   2878 -0.05230000   1.008000   ; qtot 0.486398
 2879         c3    115    bbb     C5   2879 -0.60390000  12.010000   ; qtot -0.117502
 2880         hc    115    bbb     H9   2880 0.16730000   1.008000   ; qtot 0.049798
 2881         hc    115    bbb    H10   2881 0.16730000   1.008000   ; qtot 0.217098
 2882         c3    115    bbb     C6   2882 -0.60390000  12.010000   ; qtot -0.386802
 2883         hc    115    bbb    H11   2883 0.16730000   1.008000   ; qtot -0.219502
 2884         hc    115    bbb    H12   2884 0.16730000   1.008000   ; qtot -0.052202
 2885          c    115    bbb     C7   2885 0.72110000  12.010000   ; qtot 0.668898
 2886          c    115    bbb     C8   2886 0.72110000  12.010000   ; qtot 1.389998
 2887          o    115    bbb     O1   2887 -0.61950000  16.000000   ; qtot 0.770498
 2888          o    115    bbb     O2   2888 -0.61950000  16.000000   ; qtot 0.150998
 2889          n    115    bbb     N4   2889 -0.46580000  14.010000   ; qtot -0.314802
 2890         hn    115    bbb    H21   2890 0.31480000   1.008000   ; qtot -0.000002
; residue  116 bbb rtp bbb q -0.0
 2891         c3    116    bbb     C1   2891 0.44180000  12.010000   ; qtot 0.441798
 2892         h1    116    bbb     H1   2892 -0.03530000   1.008000   ; qtot 0.406498
 2893         h1    116    bbb     H2   2893 -0.03530000   1.008000   ; qtot 0.371198
 2894         c3    116    bbb     C2   2894 -0.28250000  12.010000   ; qtot 0.088698
 2895         h1    116    bbb     H3   2895 0.15710000   1.008000   ; qtot 0.245798
 2896         h1    116    bbb     H4   2896 0.15710000   1.008000   ; qtot 0.402898
 2897         n3    116    bbb     N1   2897 -0.74090000  14.010000   ; qtot -0.338002
 2898         c3    116    bbb     C3   2898 0.51680000  12.010000   ; qtot 0.178798
 2899         h1    116    bbb     H5   2899 -0.05230000   1.008000   ; qtot 0.126498
 2900         h1    116    bbb     H6   2900 -0.05230000   1.008000   ; qtot 0.074198
 2901         c3    116    bbb     C4   2901 0.51680000  12.010000   ; qtot 0.590998
 2902         h1    116    bbb     H7   2902 -0.05230000   1.008000   ; qtot 0.538698
 2903         h1    116    bbb     H8   2903 -0.05230000   1.008000   ; qtot 0.486398
 2904         c3    116    bbb     C5   2904 -0.60390000  12.010000   ; qtot -0.117502
 2905         hc    116    bbb     H9   2905 0.16730000   1.008000   ; qtot 0.049798
 2906         hc    116    bbb    H10   2906 0.16730000   1.008000   ; qtot 0.217098
 2907         c3    116    bbb     C6   2907 -0.60390000  12.010000   ; qtot -0.386802
 2908         hc    116    bbb    H11   2908 0.16730000   1.008000   ; qtot -0.219502
 2909         hc    116    bbb    H12   2909 0.16730000   1.008000   ; qtot -0.052202
 2910          c    116    bbb     C7   2910 0.72110000  12.010000   ; qtot 0.668898
 2911          c    116    bbb     C8   2911 0.72110000  12.010000   ; qtot 1.389998
 2912          o    116    bbb     O1   2912 -0.61950000  16.000000   ; qtot 0.770498
 2913          o    116    bbb     O2   2913 -0.61950000  16.000000   ; qtot 0.150998
 2914          n    116    bbb     N4   2914 -0.46580000  14.010000   ; qtot -0.314802
 2915         hn    116    bbb    H21   2915 0.31480000   1.008000   ; qtot -0.000002
; residue  117 bbb rtp bbb q -0.0
 2916         c3    117    bbb     C1   2916 0.44180000  12.010000   ; qtot 0.441798
 2917         h1    117    bbb     H1   2917 -0.03530000   1.008000   ; qtot 0.406498
 2918         h1    117    bbb     H2   2918 -0.03530000   1.008000   ; qtot 0.371198
 2919         c3    117    bbb     C2   2919 -0.28250000  12.010000   ; qtot 0.088698
 2920         h1    117    bbb     H3   2920 0.15710000   1.008000   ; qtot 0.245798
 2921         h1    117    bbb     H4   2921 0.15710000   1.008000   ; qtot 0.402898
 2922         n3    117    bbb     N1   2922 -0.74090000  14.010000   ; qtot -0.338002
 2923         c3    117    bbb     C3   2923 0.51680000  12.010000   ; qtot 0.178798
 2924         h1    117    bbb     H5   2924 -0.05230000   1.008000   ; qtot 0.126498
 2925         h1    117    bbb     H6   2925 -0.05230000   1.008000   ; qtot 0.074198
 2926         c3    117    bbb     C4   2926 0.51680000  12.010000   ; qtot 0.590998
 2927         h1    117    bbb     H7   2927 -0.05230000   1.008000   ; qtot 0.538698
 2928         h1    117    bbb     H8   2928 -0.05230000   1.008000   ; qtot 0.486398
 2929         c3    117    bbb     C5   2929 -0.60390000  12.010000   ; qtot -0.117502
 2930         hc    117    bbb     H9   2930 0.16730000   1.008000   ; qtot 0.049798
 2931         hc    117    bbb    H10   2931 0.16730000   1.008000   ; qtot 0.217098
 2932         c3    117    bbb     C6   2932 -0.60390000  12.010000   ; qtot -0.386802
 2933         hc    117    bbb    H11   2933 0.16730000   1.008000   ; qtot -0.219502
 2934         hc    117    bbb    H12   2934 0.16730000   1.008000   ; qtot -0.052202
 2935          c    117    bbb     C7   2935 0.72110000  12.010000   ; qtot 0.668898
 2936          c    117    bbb     C8   2936 0.72110000  12.010000   ; qtot 1.389998
 2937          o    117    bbb     O1   2937 -0.61950000  16.000000   ; qtot 0.770498
 2938          o    117    bbb     O2   2938 -0.61950000  16.000000   ; qtot 0.150998
 2939          n    117    bbb     N4   2939 -0.46580000  14.010000   ; qtot -0.314802
 2940         hn    117    bbb    H21   2940 0.31480000   1.008000   ; qtot -0.000002
; residue  118 bbb rtp bbb q -0.0
 2941         c3    118    bbb     C1   2941 0.44180000  12.010000   ; qtot 0.441798
 2942         h1    118    bbb     H1   2942 -0.03530000   1.008000   ; qtot 0.406498
 2943         h1    118    bbb     H2   2943 -0.03530000   1.008000   ; qtot 0.371198
 2944         c3    118    bbb     C2   2944 -0.28250000  12.010000   ; qtot 0.088698
 2945         h1    118    bbb     H3   2945 0.15710000   1.008000   ; qtot 0.245798
 2946         h1    118    bbb     H4   2946 0.15710000   1.008000   ; qtot 0.402898
 2947         n3    118    bbb     N1   2947 -0.74090000  14.010000   ; qtot -0.338002
 2948         c3    118    bbb     C3   2948 0.51680000  12.010000   ; qtot 0.178798
 2949         h1    118    bbb     H5   2949 -0.05230000   1.008000   ; qtot 0.126498
 2950         h1    118    bbb     H6   2950 -0.05230000   1.008000   ; qtot 0.074198
 2951         c3    118    bbb     C4   2951 0.51680000  12.010000   ; qtot 0.590998
 2952         h1    118    bbb     H7   2952 -0.05230000   1.008000   ; qtot 0.538698
 2953         h1    118    bbb     H8   2953 -0.05230000   1.008000   ; qtot 0.486398
 2954         c3    118    bbb     C5   2954 -0.60390000  12.010000   ; qtot -0.117502
 2955         hc    118    bbb     H9   2955 0.16730000   1.008000   ; qtot 0.049798
 2956         hc    118    bbb    H10   2956 0.16730000   1.008000   ; qtot 0.217098
 2957         c3    118    bbb     C6   2957 -0.60390000  12.010000   ; qtot -0.386802
 2958         hc    118    bbb    H11   2958 0.16730000   1.008000   ; qtot -0.219502
 2959         hc    118    bbb    H12   2959 0.16730000   1.008000   ; qtot -0.052202
 2960          c    118    bbb     C7   2960 0.72110000  12.010000   ; qtot 0.668898
 2961          c    118    bbb     C8   2961 0.72110000  12.010000   ; qtot 1.389998
 2962          o    118    bbb     O1   2962 -0.61950000  16.000000   ; qtot 0.770498
 2963          o    118    bbb     O2   2963 -0.61950000  16.000000   ; qtot 0.150998
 2964          n    118    bbb     N4   2964 -0.46580000  14.010000   ; qtot -0.314802
 2965         hn    118    bbb    H21   2965 0.31480000   1.008000   ; qtot -0.000002
; residue  119 bbb rtp bbb q -0.0
 2966         c3    119    bbb     C1   2966 0.44180000  12.010000   ; qtot 0.441798
 2967         h1    119    bbb     H1   2967 -0.03530000   1.008000   ; qtot 0.406498
 2968         h1    119    bbb     H2   2968 -0.03530000   1.008000   ; qtot 0.371198
 2969         c3    119    bbb     C2   2969 -0.28250000  12.010000   ; qtot 0.088698
 2970         h1    119    bbb     H3   2970 0.15710000   1.008000   ; qtot 0.245798
 2971         h1    119    bbb     H4   2971 0.15710000   1.008000   ; qtot 0.402898
 2972         n3    119    bbb     N1   2972 -0.74090000  14.010000   ; qtot -0.338002
 2973         c3    119    bbb     C3   2973 0.51680000  12.010000   ; qtot 0.178798
 2974         h1    119    bbb     H5   2974 -0.05230000   1.008000   ; qtot 0.126498
 2975         h1    119    bbb     H6   2975 -0.05230000   1.008000   ; qtot 0.074198
 2976         c3    119    bbb     C4   2976 0.51680000  12.010000   ; qtot 0.590998
 2977         h1    119    bbb     H7   2977 -0.05230000   1.008000   ; qtot 0.538698
 2978         h1    119    bbb     H8   2978 -0.05230000   1.008000   ; qtot 0.486398
 2979         c3    119    bbb     C5   2979 -0.60390000  12.010000   ; qtot -0.117502
 2980         hc    119    bbb     H9   2980 0.16730000   1.008000   ; qtot 0.049798
 2981         hc    119    bbb    H10   2981 0.16730000   1.008000   ; qtot 0.217098
 2982         c3    119    bbb     C6   2982 -0.60390000  12.010000   ; qtot -0.386802
 2983         hc    119    bbb    H11   2983 0.16730000   1.008000   ; qtot -0.219502
 2984         hc    119    bbb    H12   2984 0.16730000   1.008000   ; qtot -0.052202
 2985          c    119    bbb     C7   2985 0.72110000  12.010000   ; qtot 0.668898
 2986          c    119    bbb     C8   2986 0.72110000  12.010000   ; qtot 1.389998
 2987          o    119    bbb     O1   2987 -0.61950000  16.000000   ; qtot 0.770498
 2988          o    119    bbb     O2   2988 -0.61950000  16.000000   ; qtot 0.150998
 2989          n    119    bbb     N4   2989 -0.46580000  14.010000   ; qtot -0.314802
 2990         hn    119    bbb    H21   2990 0.31480000   1.008000   ; qtot -0.000002
; residue  120 bbb rtp bbb q -0.0
 2991         c3    120    bbb     C1   2991 0.44180000  12.010000   ; qtot 0.441798
 2992         h1    120    bbb     H1   2992 -0.03530000   1.008000   ; qtot 0.406498
 2993         h1    120    bbb     H2   2993 -0.03530000   1.008000   ; qtot 0.371198
 2994         c3    120    bbb     C2   2994 -0.28250000  12.010000   ; qtot 0.088698
 2995         h1    120    bbb     H3   2995 0.15710000   1.008000   ; qtot 0.245798
 2996         h1    120    bbb     H4   2996 0.15710000   1.008000   ; qtot 0.402898
 2997         n3    120    bbb     N1   2997 -0.74090000  14.010000   ; qtot -0.338002
 2998         c3    120    bbb     C3   2998 0.51680000  12.010000   ; qtot 0.178798
 2999         h1    120    bbb     H5   2999 -0.05230000   1.008000   ; qtot 0.126498
 3000         h1    120    bbb     H6   3000 -0.05230000   1.008000   ; qtot 0.074198
 3001         c3    120    bbb     C4   3001 0.51680000  12.010000   ; qtot 0.590998
 3002         h1    120    bbb     H7   3002 -0.05230000   1.008000   ; qtot 0.538698
 3003         h1    120    bbb     H8   3003 -0.05230000   1.008000   ; qtot 0.486398
 3004         c3    120    bbb     C5   3004 -0.60390000  12.010000   ; qtot -0.117502
 3005         hc    120    bbb     H9   3005 0.16730000   1.008000   ; qtot 0.049798
 3006         hc    120    bbb    H10   3006 0.16730000   1.008000   ; qtot 0.217098
 3007         c3    120    bbb     C6   3007 -0.60390000  12.010000   ; qtot -0.386802
 3008         hc    120    bbb    H11   3008 0.16730000   1.008000   ; qtot -0.219502
 3009         hc    120    bbb    H12   3009 0.16730000   1.008000   ; qtot -0.052202
 3010          c    120    bbb     C7   3010 0.72110000  12.010000   ; qtot 0.668898
 3011          c    120    bbb     C8   3011 0.72110000  12.010000   ; qtot 1.389998
 3012          o    120    bbb     O1   3012 -0.61950000  16.000000   ; qtot 0.770498
 3013          o    120    bbb     O2   3013 -0.61950000  16.000000   ; qtot 0.150998
 3014          n    120    bbb     N4   3014 -0.46580000  14.010000   ; qtot -0.314802
 3015         hn    120    bbb    H21   3015 0.31480000   1.008000   ; qtot -0.000002
; residue  121 bbb rtp bbb q -0.0
 3016         c3    121    bbb     C1   3016 0.44180000  12.010000   ; qtot 0.441798
 3017         h1    121    bbb     H1   3017 -0.03530000   1.008000   ; qtot 0.406498
 3018         h1    121    bbb     H2   3018 -0.03530000   1.008000   ; qtot 0.371198
 3019         c3    121    bbb     C2   3019 -0.28250000  12.010000   ; qtot 0.088698
 3020         h1    121    bbb     H3   3020 0.15710000   1.008000   ; qtot 0.245798
 3021         h1    121    bbb     H4   3021 0.15710000   1.008000   ; qtot 0.402898
 3022         n3    121    bbb     N1   3022 -0.74090000  14.010000   ; qtot -0.338002
 3023         c3    121    bbb     C3   3023 0.51680000  12.010000   ; qtot 0.178798
 3024         h1    121    bbb     H5   3024 -0.05230000   1.008000   ; qtot 0.126498
 3025         h1    121    bbb     H6   3025 -0.05230000   1.008000   ; qtot 0.074198
 3026         c3    121    bbb     C4   3026 0.51680000  12.010000   ; qtot 0.590998
 3027         h1    121    bbb     H7   3027 -0.05230000   1.008000   ; qtot 0.538698
 3028         h1    121    bbb     H8   3028 -0.05230000   1.008000   ; qtot 0.486398
 3029         c3    121    bbb     C5   3029 -0.60390000  12.010000   ; qtot -0.117502
 3030         hc    121    bbb     H9   3030 0.16730000   1.008000   ; qtot 0.049798
 3031         hc    121    bbb    H10   3031 0.16730000   1.008000   ; qtot 0.217098
 3032         c3    121    bbb     C6   3032 -0.60390000  12.010000   ; qtot -0.386802
 3033         hc    121    bbb    H11   3033 0.16730000   1.008000   ; qtot -0.219502
 3034         hc    121    bbb    H12   3034 0.16730000   1.008000   ; qtot -0.052202
 3035          c    121    bbb     C7   3035 0.72110000  12.010000   ; qtot 0.668898
 3036          c    121    bbb     C8   3036 0.72110000  12.010000   ; qtot 1.389998
 3037          o    121    bbb     O1   3037 -0.61950000  16.000000   ; qtot 0.770498
 3038          o    121    bbb     O2   3038 -0.61950000  16.000000   ; qtot 0.150998
 3039          n    121    bbb     N4   3039 -0.46580000  14.010000   ; qtot -0.314802
 3040         hn    121    bbb    H21   3040 0.31480000   1.008000   ; qtot -0.000002
; residue  122 bbb rtp bbb q -0.0
 3041         c3    122    bbb     C1   3041 0.44180000  12.010000   ; qtot 0.441798
 3042         h1    122    bbb     H1   3042 -0.03530000   1.008000   ; qtot 0.406498
 3043         h1    122    bbb     H2   3043 -0.03530000   1.008000   ; qtot 0.371198
 3044         c3    122    bbb     C2   3044 -0.28250000  12.010000   ; qtot 0.088698
 3045         h1    122    bbb     H3   3045 0.15710000   1.008000   ; qtot 0.245798
 3046         h1    122    bbb     H4   3046 0.15710000   1.008000   ; qtot 0.402898
 3047         n3    122    bbb     N1   3047 -0.74090000  14.010000   ; qtot -0.338002
 3048         c3    122    bbb     C3   3048 0.51680000  12.010000   ; qtot 0.178798
 3049         h1    122    bbb     H5   3049 -0.05230000   1.008000   ; qtot 0.126498
 3050         h1    122    bbb     H6   3050 -0.05230000   1.008000   ; qtot 0.074198
 3051         c3    122    bbb     C4   3051 0.51680000  12.010000   ; qtot 0.590998
 3052         h1    122    bbb     H7   3052 -0.05230000   1.008000   ; qtot 0.538698
 3053         h1    122    bbb     H8   3053 -0.05230000   1.008000   ; qtot 0.486398
 3054         c3    122    bbb     C5   3054 -0.60390000  12.010000   ; qtot -0.117502
 3055         hc    122    bbb     H9   3055 0.16730000   1.008000   ; qtot 0.049798
 3056         hc    122    bbb    H10   3056 0.16730000   1.008000   ; qtot 0.217098
 3057         c3    122    bbb     C6   3057 -0.60390000  12.010000   ; qtot -0.386802
 3058         hc    122    bbb    H11   3058 0.16730000   1.008000   ; qtot -0.219502
 3059         hc    122    bbb    H12   3059 0.16730000   1.008000   ; qtot -0.052202
 3060          c    122    bbb     C7   3060 0.72110000  12.010000   ; qtot 0.668898
 3061          c    122    bbb     C8   3061 0.72110000  12.010000   ; qtot 1.389998
 3062          o    122    bbb     O1   3062 -0.61950000  16.000000   ; qtot 0.770498
 3063          o    122    bbb     O2   3063 -0.61950000  16.000000   ; qtot 0.150998
 3064          n    122    bbb     N4   3064 -0.46580000  14.010000   ; qtot -0.314802
 3065         hn    122    bbb    H21   3065 0.31480000   1.008000   ; qtot -0.000002
; residue  123 bbb rtp bbb q -0.0
 3066         c3    123    bbb     C1   3066 0.44180000  12.010000   ; qtot 0.441798
 3067         h1    123    bbb     H1   3067 -0.03530000   1.008000   ; qtot 0.406498
 3068         h1    123    bbb     H2   3068 -0.03530000   1.008000   ; qtot 0.371198
 3069         c3    123    bbb     C2   3069 -0.28250000  12.010000   ; qtot 0.088698
 3070         h1    123    bbb     H3   3070 0.15710000   1.008000   ; qtot 0.245798
 3071         h1    123    bbb     H4   3071 0.15710000   1.008000   ; qtot 0.402898
 3072         n3    123    bbb     N1   3072 -0.74090000  14.010000   ; qtot -0.338002
 3073         c3    123    bbb     C3   3073 0.51680000  12.010000   ; qtot 0.178798
 3074         h1    123    bbb     H5   3074 -0.05230000   1.008000   ; qtot 0.126498
 3075         h1    123    bbb     H6   3075 -0.05230000   1.008000   ; qtot 0.074198
 3076         c3    123    bbb     C4   3076 0.51680000  12.010000   ; qtot 0.590998
 3077         h1    123    bbb     H7   3077 -0.05230000   1.008000   ; qtot 0.538698
 3078         h1    123    bbb     H8   3078 -0.05230000   1.008000   ; qtot 0.486398
 3079         c3    123    bbb     C5   3079 -0.60390000  12.010000   ; qtot -0.117502
 3080         hc    123    bbb     H9   3080 0.16730000   1.008000   ; qtot 0.049798
 3081         hc    123    bbb    H10   3081 0.16730000   1.008000   ; qtot 0.217098
 3082         c3    123    bbb     C6   3082 -0.60390000  12.010000   ; qtot -0.386802
 3083         hc    123    bbb    H11   3083 0.16730000   1.008000   ; qtot -0.219502
 3084         hc    123    bbb    H12   3084 0.16730000   1.008000   ; qtot -0.052202
 3085          c    123    bbb     C7   3085 0.72110000  12.010000   ; qtot 0.668898
 3086          c    123    bbb     C8   3086 0.72110000  12.010000   ; qtot 1.389998
 3087          o    123    bbb     O1   3087 -0.61950000  16.000000   ; qtot 0.770498
 3088          o    123    bbb     O2   3088 -0.61950000  16.000000   ; qtot 0.150998
 3089          n    123    bbb     N4   3089 -0.46580000  14.010000   ; qtot -0.314802
 3090         hn    123    bbb    H21   3090 0.31480000   1.008000   ; qtot -0.000002
; residue  124 bbb rtp bbb q -0.0
 3091         c3    124    bbb     C1   3091 0.44180000  12.010000   ; qtot 0.441798
 3092         h1    124    bbb     H1   3092 -0.03530000   1.008000   ; qtot 0.406498
 3093         h1    124    bbb     H2   3093 -0.03530000   1.008000   ; qtot 0.371198
 3094         c3    124    bbb     C2   3094 -0.28250000  12.010000   ; qtot 0.088698
 3095         h1    124    bbb     H3   3095 0.15710000   1.008000   ; qtot 0.245798
 3096         h1    124    bbb     H4   3096 0.15710000   1.008000   ; qtot 0.402898
 3097         n3    124    bbb     N1   3097 -0.74090000  14.010000   ; qtot -0.338002
 3098         c3    124    bbb     C3   3098 0.51680000  12.010000   ; qtot 0.178798
 3099         h1    124    bbb     H5   3099 -0.05230000   1.008000   ; qtot 0.126498
 3100         h1    124    bbb     H6   3100 -0.05230000   1.008000   ; qtot 0.074198
 3101         c3    124    bbb     C4   3101 0.51680000  12.010000   ; qtot 0.590998
 3102         h1    124    bbb     H7   3102 -0.05230000   1.008000   ; qtot 0.538698
 3103         h1    124    bbb     H8   3103 -0.05230000   1.008000   ; qtot 0.486398
 3104         c3    124    bbb     C5   3104 -0.60390000  12.010000   ; qtot -0.117502
 3105         hc    124    bbb     H9   3105 0.16730000   1.008000   ; qtot 0.049798
 3106         hc    124    bbb    H10   3106 0.16730000   1.008000   ; qtot 0.217098
 3107         c3    124    bbb     C6   3107 -0.60390000  12.010000   ; qtot -0.386802
 3108         hc    124    bbb    H11   3108 0.16730000   1.008000   ; qtot -0.219502
 3109         hc    124    bbb    H12   3109 0.16730000   1.008000   ; qtot -0.052202
 3110          c    124    bbb     C7   3110 0.72110000  12.010000   ; qtot 0.668898
 3111          c    124    bbb     C8   3111 0.72110000  12.010000   ; qtot 1.389998
 3112          o    124    bbb     O1   3112 -0.61950000  16.000000   ; qtot 0.770498
 3113          o    124    bbb     O2   3113 -0.61950000  16.000000   ; qtot 0.150998
 3114          n    124    bbb     N4   3114 -0.46580000  14.010000   ; qtot -0.314802
 3115         hn    124    bbb    H21   3115 0.31480000   1.008000   ; qtot -0.000002
; residue  125 bbb rtp bbb q -0.0
 3116         c3    125    bbb     C1   3116 0.44180000  12.010000   ; qtot 0.441798
 3117         h1    125    bbb     H1   3117 -0.03530000   1.008000   ; qtot 0.406498
 3118         h1    125    bbb     H2   3118 -0.03530000   1.008000   ; qtot 0.371198
 3119         c3    125    bbb     C2   3119 -0.28250000  12.010000   ; qtot 0.088698
 3120         h1    125    bbb     H3   3120 0.15710000   1.008000   ; qtot 0.245798
 3121         h1    125    bbb     H4   3121 0.15710000   1.008000   ; qtot 0.402898
 3122         n3    125    bbb     N1   3122 -0.74090000  14.010000   ; qtot -0.338002
 3123         c3    125    bbb     C3   3123 0.51680000  12.010000   ; qtot 0.178798
 3124         h1    125    bbb     H5   3124 -0.05230000   1.008000   ; qtot 0.126498
 3125         h1    125    bbb     H6   3125 -0.05230000   1.008000   ; qtot 0.074198
 3126         c3    125    bbb     C4   3126 0.51680000  12.010000   ; qtot 0.590998
 3127         h1    125    bbb     H7   3127 -0.05230000   1.008000   ; qtot 0.538698
 3128         h1    125    bbb     H8   3128 -0.05230000   1.008000   ; qtot 0.486398
 3129         c3    125    bbb     C5   3129 -0.60390000  12.010000   ; qtot -0.117502
 3130         hc    125    bbb     H9   3130 0.16730000   1.008000   ; qtot 0.049798
 3131         hc    125    bbb    H10   3131 0.16730000   1.008000   ; qtot 0.217098
 3132         c3    125    bbb     C6   3132 -0.60390000  12.010000   ; qtot -0.386802
 3133         hc    125    bbb    H11   3133 0.16730000   1.008000   ; qtot -0.219502
 3134         hc    125    bbb    H12   3134 0.16730000   1.008000   ; qtot -0.052202
 3135          c    125    bbb     C7   3135 0.72110000  12.010000   ; qtot 0.668898
 3136          c    125    bbb     C8   3136 0.72110000  12.010000   ; qtot 1.389998
 3137          o    125    bbb     O1   3137 -0.61950000  16.000000   ; qtot 0.770498
 3138          o    125    bbb     O2   3138 -0.61950000  16.000000   ; qtot 0.150998
 3139          n    125    bbb     N4   3139 -0.46580000  14.010000   ; qtot -0.314802
 3140         hn    125    bbb    H21   3140 0.31480000   1.008000   ; qtot -0.000002
; residue  126 ccc rtp ccc q -0.0
 3141          n    126    ccc     N1   3141 -0.46580000  14.010000   ; qtot -0.465802
 3142         hn    126    ccc     H4   3142 0.31480000   1.008000   ; qtot -0.151002
 3143         c3    126    ccc     C3   3143 -0.28250000  12.010000   ; qtot -0.433502
 3144         h1    126    ccc     H5   3144 0.15710000   1.008000   ; qtot -0.276402
 3145         c3    126    ccc     C4   3145 0.44180000  12.010000   ; qtot 0.165398
 3146         h1    126    ccc     H6   3146 0.15710000   1.008000   ; qtot 0.322498
 3147         h1    126    ccc     H7   3147 -0.03530000   1.008000   ; qtot 0.287198
 3148         h1    126    ccc     H8   3148 -0.03530000   1.008000   ; qtot 0.251898
 3149         n3    126    ccc     N2   3149 -0.74090000  14.010000   ; qtot -0.489002
 3150         c3    126    ccc     C5   3150 0.51680000  12.010000   ; qtot 0.027798
 3151         c3    126    ccc     C6   3151 0.51680000  12.010000   ; qtot 0.544598
 3152         h1    126    ccc     H9   3152 -0.05230000   1.008000   ; qtot 0.492298
 3153         c3    126    ccc     C7   3153 -0.60390000  12.010000   ; qtot -0.111602
 3154         h1    126    ccc    H10   3154 -0.05230000   1.008000   ; qtot -0.163902
 3155         hc    126    ccc    H11   3155 0.16730000   1.008000   ; qtot 0.003398
 3156         hc    126    ccc    H12   3156 0.16730000   1.008000   ; qtot 0.170698
 3157          c    126    ccc     C8   3157 0.72110000  12.010000   ; qtot 0.891798
 3158          o    126    ccc     O2   3158 -0.61950000  16.000000   ; qtot 0.272298
 3159         h1    126    ccc    H13   3159 -0.05230000   1.008000   ; qtot 0.219998
 3160         h1    126    ccc    H14   3160 -0.05230000   1.008000   ; qtot 0.167698
 3161         c3    126    ccc     C9   3161 -0.60390000  12.010000   ; qtot -0.436202
 3162         hc    126    ccc    H15   3162 0.16730000   1.008000   ; qtot -0.268902
 3163         hc    126    ccc    H16   3163 0.16730000   1.008000   ; qtot -0.101602
 3164          c    126    ccc    C10   3164 0.72110000  12.010000   ; qtot 0.619498
 3165          o    126    ccc     O4   3165 -0.61950000  16.000000   ; qtot -0.000002
 3166         c3    126    ccc    C11   3166 0.08518000  12.010000   ; qtot 0.085178
 3167         c3    126    ccc    C12   3167 0.07918000  12.010000   ; qtot 0.164358
 3168         h1    126    ccc    H17   3168 0.06978000   1.008000   ; qtot 0.234138
 3169         c3    126    ccc    C13   3169 0.07918000  12.010000   ; qtot 0.313318
 3170         c3    126    ccc    C14   3170 0.03578000  12.010000   ; qtot 0.349098
 3171         c3    126    ccc    C15   3171 0.33498000  12.010000   ; qtot 0.684078
 3172         h1    126    ccc    H18   3172 0.06178000   1.008000   ; qtot 0.745858
 3173         h1    126    ccc    H19   3173 0.11278000   1.008000   ; qtot 0.858638
 3174         h2    126    ccc    H20   3174 0.12178000   1.008000   ; qtot 0.980418
 3175         oh    126    ccc     O1   3175 -0.56972000  16.000000   ; qtot 0.410698
 3176         oh    126    ccc     O6   3176 -0.57772000  16.000000   ; qtot -0.167022
 3177         c3    126    ccc    C16   3177 0.14548000  12.010000   ; qtot -0.021542
 3178         ho    126    ccc    H21   3178 0.40508000   1.008000   ; qtot 0.383538
 3179         hn    126    ccc    H22   3179 0.31758000   1.008000   ; qtot 0.701118
 3180         h1    126    ccc    H23   3180 0.06278000   1.008000   ; qtot 0.763898
 3181         h1    126    ccc    H24   3181 0.06278000   1.008000   ; qtot 0.826678
 3182         oh    126    ccc     O7   3182 -0.59472000  16.000000   ; qtot 0.231958
 3183         ho    126    ccc    H25   3183 0.41908000   1.008000   ; qtot 0.651038
 3184         os    126    ccc     O8   3184 -0.44552000  16.000000   ; qtot 0.205518
 3185         ho    126    ccc    H26   3185 0.41908000   1.008000   ; qtot 0.624598
 3186         h1    126    ccc    H27   3186 0.08578000   1.008000   ; qtot 0.710378
 3187         oh    126    ccc     O9   3187 -0.58672000  16.000000   ; qtot 0.123658
 3188         ho    126    ccc    H28   3188 0.41908000   1.008000   ; qtot 0.542738
 3189         n3    126    ccc     N3   3189 -0.54282000  14.010000   ; qtot -0.000082
 3190         c3    126    ccc    C17   3190 0.08518000  12.010000   ; qtot 0.085098
 3191         c3    126    ccc    C18   3191 0.07918000  12.010000   ; qtot 0.164278
 3192         h1    126    ccc    H29   3192 0.06978000   1.008000   ; qtot 0.234058
 3193         c3    126    ccc    C19   3193 0.07918000  12.010000   ; qtot 0.313238
 3194         c3    126    ccc    C20   3194 0.03578000  12.010000   ; qtot 0.349018
 3195         c3    126    ccc    C21   3195 0.33498000  12.010000   ; qtot 0.683998
 3196         h1    126    ccc    H30   3196 0.06178000   1.008000   ; qtot 0.745778
 3197         h1    126    ccc    H31   3197 0.11278000   1.008000   ; qtot 0.858558
 3198         h2    126    ccc    H32   3198 0.12178000   1.008000   ; qtot 0.980338
 3199         oh    126    ccc    O10   3199 -0.56972000  16.000000   ; qtot 0.410618
 3200         oh    126    ccc    O11   3200 -0.57772000  16.000000   ; qtot -0.167102
 3201         c3    126    ccc    C22   3201 0.14548000  12.010000   ; qtot -0.021622
 3202         ho    126    ccc    H33   3202 0.40508000   1.008000   ; qtot 0.383458
 3203         hn    126    ccc    H34   3203 0.31758000   1.008000   ; qtot 0.701038
 3204         h1    126    ccc    H35   3204 0.06278000   1.008000   ; qtot 0.763818
 3205         h1    126    ccc    H36   3205 0.06278000   1.008000   ; qtot 0.826598
 3206         oh    126    ccc    O12   3206 -0.59472000  16.000000   ; qtot 0.231878
 3207         ho    126    ccc    H37   3207 0.41908000   1.008000   ; qtot 0.650958
 3208         os    126    ccc    O13   3208 -0.44552000  16.000000   ; qtot 0.205438
 3209         ho    126    ccc    H38   3209 0.41908000   1.008000   ; qtot 0.624518
 3210         h1    126    ccc    H39   3210 0.08578000   1.008000   ; qtot 0.710298
 3211         oh    126    ccc     O5   3211 -0.58672000  16.000000   ; qtot 0.123578
 3212         ho    126    ccc    H40   3212 0.41908000   1.008000   ; qtot 0.542658
 3213         n3    126    ccc     N4   3213 -0.54282000  14.010000   ; qtot -0.000162
; residue  127 ccc rtp ccc q -0.0
 3214          n    127    ccc     N1   3214 -0.46580000  14.010000   ; qtot -0.465962
 3215         hn    127    ccc     H4   3215 0.31480000   1.008000   ; qtot -0.151162
 3216         c3    127    ccc     C3   3216 -0.28250000  12.010000   ; qtot -0.433662
 3217         h1    127    ccc     H5   3217 0.15710000   1.008000   ; qtot -0.276562
 3218         c3    127    ccc     C4   3218 0.44180000  12.010000   ; qtot 0.165238
 3219         h1    127    ccc     H6   3219 0.15710000   1.008000   ; qtot 0.322338
 3220         h1    127    ccc     H7   3220 -0.03530000   1.008000   ; qtot 0.287038
 3221         h1    127    ccc     H8   3221 -0.03530000   1.008000   ; qtot 0.251738
 3222         n3    127    ccc     N2   3222 -0.74090000  14.010000   ; qtot -0.489162
 3223         c3    127    ccc     C5   3223 0.51680000  12.010000   ; qtot 0.027638
 3224         c3    127    ccc     C6   3224 0.51680000  12.010000   ; qtot 0.544438
 3225         h1    127    ccc     H9   3225 -0.05230000   1.008000   ; qtot 0.492138
 3226         c3    127    ccc     C7   3226 -0.60390000  12.010000   ; qtot -0.111762
 3227         h1    127    ccc    H10   3227 -0.05230000   1.008000   ; qtot -0.164062
 3228         hc    127    ccc    H11   3228 0.16730000   1.008000   ; qtot 0.003238
 3229         hc    127    ccc    H12   3229 0.16730000   1.008000   ; qtot 0.170538
 3230          c    127    ccc     C8   3230 0.72110000  12.010000   ; qtot 0.891638
 3231          o    127    ccc     O2   3231 -0.61950000  16.000000   ; qtot 0.272138
 3232         h1    127    ccc    H13   3232 -0.05230000   1.008000   ; qtot 0.219838
 3233         h1    127    ccc    H14   3233 -0.05230000   1.008000   ; qtot 0.167538
 3234         c3    127    ccc     C9   3234 -0.60390000  12.010000   ; qtot -0.436362
 3235         hc    127    ccc    H15   3235 0.16730000   1.008000   ; qtot -0.269062
 3236         hc    127    ccc    H16   3236 0.16730000   1.008000   ; qtot -0.101762
 3237          c    127    ccc    C10   3237 0.72110000  12.010000   ; qtot 0.619338
 3238          o    127    ccc     O4   3238 -0.61950000  16.000000   ; qtot -0.000162
 3239         c3    127    ccc    C11   3239 0.08518000  12.010000   ; qtot 0.085018
 3240         c3    127    ccc    C12   3240 0.07918000  12.010000   ; qtot 0.164198
 3241         h1    127    ccc    H17   3241 0.06978000   1.008000   ; qtot 0.233978
 3242         c3    127    ccc    C13   3242 0.07918000  12.010000   ; qtot 0.313158
 3243         c3    127    ccc    C14   3243 0.03578000  12.010000   ; qtot 0.348938
 3244         c3    127    ccc    C15   3244 0.33498000  12.010000   ; qtot 0.683918
 3245         h1    127    ccc    H18   3245 0.06178000   1.008000   ; qtot 0.745698
 3246         h1    127    ccc    H19   3246 0.11278000   1.008000   ; qtot 0.858478
 3247         h2    127    ccc    H20   3247 0.12178000   1.008000   ; qtot 0.980258
 3248         oh    127    ccc     O1   3248 -0.56972000  16.000000   ; qtot 0.410538
 3249         oh    127    ccc     O6   3249 -0.57772000  16.000000   ; qtot -0.167182
 3250         c3    127    ccc    C16   3250 0.14548000  12.010000   ; qtot -0.021702
 3251         ho    127    ccc    H21   3251 0.40508000   1.008000   ; qtot 0.383378
 3252         hn    127    ccc    H22   3252 0.31758000   1.008000   ; qtot 0.700958
 3253         h1    127    ccc    H23   3253 0.06278000   1.008000   ; qtot 0.763738
 3254         h1    127    ccc    H24   3254 0.06278000   1.008000   ; qtot 0.826518
 3255         oh    127    ccc     O7   3255 -0.59472000  16.000000   ; qtot 0.231798
 3256         ho    127    ccc    H25   3256 0.41908000   1.008000   ; qtot 0.650878
 3257         os    127    ccc     O8   3257 -0.44552000  16.000000   ; qtot 0.205358
 3258         ho    127    ccc    H26   3258 0.41908000   1.008000   ; qtot 0.624438
 3259         h1    127    ccc    H27   3259 0.08578000   1.008000   ; qtot 0.710218
 3260         oh    127    ccc     O9   3260 -0.58672000  16.000000   ; qtot 0.123498
 3261         ho    127    ccc    H28   3261 0.41908000   1.008000   ; qtot 0.542578
 3262         n3    127    ccc     N3   3262 -0.54282000  14.010000   ; qtot -0.000242
 3263         c3    127    ccc    C17   3263 0.08518000  12.010000   ; qtot 0.084938
 3264         c3    127    ccc    C18   3264 0.07918000  12.010000   ; qtot 0.164118
 3265         h1    127    ccc    H29   3265 0.06978000   1.008000   ; qtot 0.233898
 3266         c3    127    ccc    C19   3266 0.07918000  12.010000   ; qtot 0.313078
 3267         c3    127    ccc    C20   3267 0.03578000  12.010000   ; qtot 0.348858
 3268         c3    127    ccc    C21   3268 0.33498000  12.010000   ; qtot 0.683838
 3269         h1    127    ccc    H30   3269 0.06178000   1.008000   ; qtot 0.745618
 3270         h1    127    ccc    H31   3270 0.11278000   1.008000   ; qtot 0.858398
 3271         h2    127    ccc    H32   3271 0.12178000   1.008000   ; qtot 0.980178
 3272         oh    127    ccc    O10   3272 -0.56972000  16.000000   ; qtot 0.410458
 3273         oh    127    ccc    O11   3273 -0.57772000  16.000000   ; qtot -0.167262
 3274         c3    127    ccc    C22   3274 0.14548000  12.010000   ; qtot -0.021782
 3275         ho    127    ccc    H33   3275 0.40508000   1.008000   ; qtot 0.383298
 3276         hn    127    ccc    H34   3276 0.31758000   1.008000   ; qtot 0.700878
 3277         h1    127    ccc    H35   3277 0.06278000   1.008000   ; qtot 0.763658
 3278         h1    127    ccc    H36   3278 0.06278000   1.008000   ; qtot 0.826438
 3279         oh    127    ccc    O12   3279 -0.59472000  16.000000   ; qtot 0.231718
 3280         ho    127    ccc    H37   3280 0.41908000   1.008000   ; qtot 0.650798
 3281         os    127    ccc    O13   3281 -0.44552000  16.000000   ; qtot 0.205278
 3282         ho    127    ccc    H38   3282 0.41908000   1.008000   ; qtot 0.624358
 3283         h1    127    ccc    H39   3283 0.08578000   1.008000   ; qtot 0.710138
 3284         oh    127    ccc     O5   3284 -0.58672000  16.000000   ; qtot 0.123418
 3285         ho    127    ccc    H40   3285 0.41908000   1.008000   ; qtot 0.542498
 3286         n3    127    ccc     N4   3286 -0.54282000  14.010000   ; qtot -0.000322
; residue  128 ccc rtp ccc q -0.0
 3287          n    128    ccc     N1   3287 -0.46580000  14.010000   ; qtot -0.466122
 3288         hn    128    ccc     H4   3288 0.31480000   1.008000   ; qtot -0.151322
 3289         c3    128    ccc     C3   3289 -0.28250000  12.010000   ; qtot -0.433822
 3290         h1    128    ccc     H5   3290 0.15710000   1.008000   ; qtot -0.276722
 3291         c3    128    ccc     C4   3291 0.44180000  12.010000   ; qtot 0.165078
 3292         h1    128    ccc     H6   3292 0.15710000   1.008000   ; qtot 0.322178
 3293         h1    128    ccc     H7   3293 -0.03530000   1.008000   ; qtot 0.286878
 3294         h1    128    ccc     H8   3294 -0.03530000   1.008000   ; qtot 0.251578
 3295         n3    128    ccc     N2   3295 -0.74090000  14.010000   ; qtot -0.489322
 3296         c3    128    ccc     C5   3296 0.51680000  12.010000   ; qtot 0.027478
 3297         c3    128    ccc     C6   3297 0.51680000  12.010000   ; qtot 0.544278
 3298         h1    128    ccc     H9   3298 -0.05230000   1.008000   ; qtot 0.491978
 3299         c3    128    ccc     C7   3299 -0.60390000  12.010000   ; qtot -0.111922
 3300         h1    128    ccc    H10   3300 -0.05230000   1.008000   ; qtot -0.164222
 3301         hc    128    ccc    H11   3301 0.16730000   1.008000   ; qtot 0.003078
 3302         hc    128    ccc    H12   3302 0.16730000   1.008000   ; qtot 0.170378
 3303          c    128    ccc     C8   3303 0.72110000  12.010000   ; qtot 0.891478
 3304          o    128    ccc     O2   3304 -0.61950000  16.000000   ; qtot 0.271978
 3305         h1    128    ccc    H13   3305 -0.05230000   1.008000   ; qtot 0.219678
 3306         h1    128    ccc    H14   3306 -0.05230000   1.008000   ; qtot 0.167378
 3307         c3    128    ccc     C9   3307 -0.60390000  12.010000   ; qtot -0.436522
 3308         hc    128    ccc    H15   3308 0.16730000   1.008000   ; qtot -0.269222
 3309         hc    128    ccc    H16   3309 0.16730000   1.008000   ; qtot -0.101922
 3310          c    128    ccc    C10   3310 0.72110000  12.010000   ; qtot 0.619178
 3311          o    128    ccc     O4   3311 -0.61950000  16.000000   ; qtot -0.000322
 3312         c3    128    ccc    C11   3312 0.08518000  12.010000   ; qtot 0.084858
 3313         c3    128    ccc    C12   3313 0.07918000  12.010000   ; qtot 0.164038
 3314         h1    128    ccc    H17   3314 0.06978000   1.008000   ; qtot 0.233818
 3315         c3    128    ccc    C13   3315 0.07918000  12.010000   ; qtot 0.312998
 3316         c3    128    ccc    C14   3316 0.03578000  12.010000   ; qtot 0.348778
 3317         c3    128    ccc    C15   3317 0.33498000  12.010000   ; qtot 0.683758
 3318         h1    128    ccc    H18   3318 0.06178000   1.008000   ; qtot 0.745538
 3319         h1    128    ccc    H19   3319 0.11278000   1.008000   ; qtot 0.858318
 3320         h2    128    ccc    H20   3320 0.12178000   1.008000   ; qtot 0.980098
 3321         oh    128    ccc     O1   3321 -0.56972000  16.000000   ; qtot 0.410378
 3322         oh    128    ccc     O6   3322 -0.57772000  16.000000   ; qtot -0.167342
 3323         c3    128    ccc    C16   3323 0.14548000  12.010000   ; qtot -0.021862
 3324         ho    128    ccc    H21   3324 0.40508000   1.008000   ; qtot 0.383218
 3325         hn    128    ccc    H22   3325 0.31758000   1.008000   ; qtot 0.700798
 3326         h1    128    ccc    H23   3326 0.06278000   1.008000   ; qtot 0.763578
 3327         h1    128    ccc    H24   3327 0.06278000   1.008000   ; qtot 0.826358
 3328         oh    128    ccc     O7   3328 -0.59472000  16.000000   ; qtot 0.231638
 3329         ho    128    ccc    H25   3329 0.41908000   1.008000   ; qtot 0.650718
 3330         os    128    ccc     O8   3330 -0.44552000  16.000000   ; qtot 0.205198
 3331         ho    128    ccc    H26   3331 0.41908000   1.008000   ; qtot 0.624278
 3332         h1    128    ccc    H27   3332 0.08578000   1.008000   ; qtot 0.710058
 3333         oh    128    ccc     O9   3333 -0.58672000  16.000000   ; qtot 0.123338
 3334         ho    128    ccc    H28   3334 0.41908000   1.008000   ; qtot 0.542418
 3335         n3    128    ccc     N3   3335 -0.54282000  14.010000   ; qtot -0.000402
 3336         c3    128    ccc    C17   3336 0.08518000  12.010000   ; qtot 0.084778
 3337         c3    128    ccc    C18   3337 0.07918000  12.010000   ; qtot 0.163958
 3338         h1    128    ccc    H29   3338 0.06978000   1.008000   ; qtot 0.233738
 3339         c3    128    ccc    C19   3339 0.07918000  12.010000   ; qtot 0.312918
 3340         c3    128    ccc    C20   3340 0.03578000  12.010000   ; qtot 0.348698
 3341         c3    128    ccc    C21   3341 0.33498000  12.010000   ; qtot 0.683678
 3342         h1    128    ccc    H30   3342 0.06178000   1.008000   ; qtot 0.745458
 3343         h1    128    ccc    H31   3343 0.11278000   1.008000   ; qtot 0.858238
 3344         h2    128    ccc    H32   3344 0.12178000   1.008000   ; qtot 0.980018
 3345         oh    128    ccc    O10   3345 -0.56972000  16.000000   ; qtot 0.410298
 3346         oh    128    ccc    O11   3346 -0.57772000  16.000000   ; qtot -0.167422
 3347         c3    128    ccc    C22   3347 0.14548000  12.010000   ; qtot -0.021942
 3348         ho    128    ccc    H33   3348 0.40508000   1.008000   ; qtot 0.383138
 3349         hn    128    ccc    H34   3349 0.31758000   1.008000   ; qtot 0.700718
 3350         h1    128    ccc    H35   3350 0.06278000   1.008000   ; qtot 0.763498
 3351         h1    128    ccc    H36   3351 0.06278000   1.008000   ; qtot 0.826278
 3352         oh    128    ccc    O12   3352 -0.59472000  16.000000   ; qtot 0.231558
 3353         ho    128    ccc    H37   3353 0.41908000   1.008000   ; qtot 0.650638
 3354         os    128    ccc    O13   3354 -0.44552000  16.000000   ; qtot 0.205118
 3355         ho    128    ccc    H38   3355 0.41908000   1.008000   ; qtot 0.624198
 3356         h1    128    ccc    H39   3356 0.08578000   1.008000   ; qtot 0.709978
 3357         oh    128    ccc     O5   3357 -0.58672000  16.000000   ; qtot 0.123258
 3358         ho    128    ccc    H40   3358 0.41908000   1.008000   ; qtot 0.542338
 3359         n3    128    ccc     N4   3359 -0.54282000  14.010000   ; qtot -0.000482
; residue  129 ccc rtp ccc q -0.0
 3360          n    129    ccc     N1   3360 -0.46580000  14.010000   ; qtot -0.466282
 3361         hn    129    ccc     H4   3361 0.31480000   1.008000   ; qtot -0.151482
 3362         c3    129    ccc     C3   3362 -0.28250000  12.010000   ; qtot -0.433982
 3363         h1    129    ccc     H5   3363 0.15710000   1.008000   ; qtot -0.276882
 3364         c3    129    ccc     C4   3364 0.44180000  12.010000   ; qtot 0.164918
 3365         h1    129    ccc     H6   3365 0.15710000   1.008000   ; qtot 0.322018
 3366         h1    129    ccc     H7   3366 -0.03530000   1.008000   ; qtot 0.286718
 3367         h1    129    ccc     H8   3367 -0.03530000   1.008000   ; qtot 0.251418
 3368         n3    129    ccc     N2   3368 -0.74090000  14.010000   ; qtot -0.489482
 3369         c3    129    ccc     C5   3369 0.51680000  12.010000   ; qtot 0.027318
 3370         c3    129    ccc     C6   3370 0.51680000  12.010000   ; qtot 0.544118
 3371         h1    129    ccc     H9   3371 -0.05230000   1.008000   ; qtot 0.491818
 3372         c3    129    ccc     C7   3372 -0.60390000  12.010000   ; qtot -0.112082
 3373         h1    129    ccc    H10   3373 -0.05230000   1.008000   ; qtot -0.164382
 3374         hc    129    ccc    H11   3374 0.16730000   1.008000   ; qtot 0.002918
 3375         hc    129    ccc    H12   3375 0.16730000   1.008000   ; qtot 0.170218
 3376          c    129    ccc     C8   3376 0.72110000  12.010000   ; qtot 0.891318
 3377          o    129    ccc     O2   3377 -0.61950000  16.000000   ; qtot 0.271818
 3378         h1    129    ccc    H13   3378 -0.05230000   1.008000   ; qtot 0.219518
 3379         h1    129    ccc    H14   3379 -0.05230000   1.008000   ; qtot 0.167218
 3380         c3    129    ccc     C9   3380 -0.60390000  12.010000   ; qtot -0.436682
 3381         hc    129    ccc    H15   3381 0.16730000   1.008000   ; qtot -0.269382
 3382         hc    129    ccc    H16   3382 0.16730000   1.008000   ; qtot -0.102082
 3383          c    129    ccc    C10   3383 0.72110000  12.010000   ; qtot 0.619018
 3384          o    129    ccc     O4   3384 -0.61950000  16.000000   ; qtot -0.000482
 3385         c3    129    ccc    C11   3385 0.08518000  12.010000   ; qtot 0.084698
 3386         c3    129    ccc    C12   3386 0.07918000  12.010000   ; qtot 0.163878
 3387         h1    129    ccc    H17   3387 0.06978000   1.008000   ; qtot 0.233658
 3388         c3    129    ccc    C13   3388 0.07918000  12.010000   ; qtot 0.312838
 3389         c3    129    ccc    C14   3389 0.03578000  12.010000   ; qtot 0.348618
 3390         c3    129    ccc    C15   3390 0.33498000  12.010000   ; qtot 0.683598
 3391         h1    129    ccc    H18   3391 0.06178000   1.008000   ; qtot 0.745378
 3392         h1    129    ccc    H19   3392 0.11278000   1.008000   ; qtot 0.858158
 3393         h2    129    ccc    H20   3393 0.12178000   1.008000   ; qtot 0.979938
 3394         oh    129    ccc     O1   3394 -0.56972000  16.000000   ; qtot 0.410218
 3395         oh    129    ccc     O6   3395 -0.57772000  16.000000   ; qtot -0.167502
 3396         c3    129    ccc    C16   3396 0.14548000  12.010000   ; qtot -0.022022
 3397         ho    129    ccc    H21   3397 0.40508000   1.008000   ; qtot 0.383058
 3398         hn    129    ccc    H22   3398 0.31758000   1.008000   ; qtot 0.700638
 3399         h1    129    ccc    H23   3399 0.06278000   1.008000   ; qtot 0.763418
 3400         h1    129    ccc    H24   3400 0.06278000   1.008000   ; qtot 0.826198
 3401         oh    129    ccc     O7   3401 -0.59472000  16.000000   ; qtot 0.231478
 3402         ho    129    ccc    H25   3402 0.41908000   1.008000   ; qtot 0.650558
 3403         os    129    ccc     O8   3403 -0.44552000  16.000000   ; qtot 0.205038
 3404         ho    129    ccc    H26   3404 0.41908000   1.008000   ; qtot 0.624118
 3405         h1    129    ccc    H27   3405 0.08578000   1.008000   ; qtot 0.709898
 3406         oh    129    ccc     O9   3406 -0.58672000  16.000000   ; qtot 0.123178
 3407         ho    129    ccc    H28   3407 0.41908000   1.008000   ; qtot 0.542258
 3408         n3    129    ccc     N3   3408 -0.54282000  14.010000   ; qtot -0.000562
 3409         c3    129    ccc    C17   3409 0.08518000  12.010000   ; qtot 0.084618
 3410         c3    129    ccc    C18   3410 0.07918000  12.010000   ; qtot 0.163798
 3411         h1    129    ccc    H29   3411 0.06978000   1.008000   ; qtot 0.233578
 3412         c3    129    ccc    C19   3412 0.07918000  12.010000   ; qtot 0.312758
 3413         c3    129    ccc    C20   3413 0.03578000  12.010000   ; qtot 0.348538
 3414         c3    129    ccc    C21   3414 0.33498000  12.010000   ; qtot 0.683518
 3415         h1    129    ccc    H30   3415 0.06178000   1.008000   ; qtot 0.745298
 3416         h1    129    ccc    H31   3416 0.11278000   1.008000   ; qtot 0.858078
 3417         h2    129    ccc    H32   3417 0.12178000   1.008000   ; qtot 0.979858
 3418         oh    129    ccc    O10   3418 -0.56972000  16.000000   ; qtot 0.410138
 3419         oh    129    ccc    O11   3419 -0.57772000  16.000000   ; qtot -0.167582
 3420         c3    129    ccc    C22   3420 0.14548000  12.010000   ; qtot -0.022102
 3421         ho    129    ccc    H33   3421 0.40508000   1.008000   ; qtot 0.382978
 3422         hn    129    ccc    H34   3422 0.31758000   1.008000   ; qtot 0.700558
 3423         h1    129    ccc    H35   3423 0.06278000   1.008000   ; qtot 0.763338
 3424         h1    129    ccc    H36   3424 0.06278000   1.008000   ; qtot 0.826118
 3425         oh    129    ccc    O12   3425 -0.59472000  16.000000   ; qtot 0.231398
 3426         ho    129    ccc    H37   3426 0.41908000   1.008000   ; qtot 0.650478
 3427         os    129    ccc    O13   3427 -0.44552000  16.000000   ; qtot 0.204958
 3428         ho    129    ccc    H38   3428 0.41908000   1.008000   ; qtot 0.624038
 3429         h1    129    ccc    H39   3429 0.08578000   1.008000   ; qtot 0.709818
 3430         oh    129    ccc     O5   3430 -0.58672000  16.000000   ; qtot 0.123098
 3431         ho    129    ccc    H40   3431 0.41908000   1.008000   ; qtot 0.542178
 3432         n3    129    ccc     N4   3432 -0.54282000  14.010000   ; qtot -0.000642
; residue  130 ccc rtp ccc q -0.0
 3433          n    130    ccc     N1   3433 -0.46580000  14.010000   ; qtot -0.466442
 3434         hn    130    ccc     H4   3434 0.31480000   1.008000   ; qtot -0.151642
 3435         c3    130    ccc     C3   3435 -0.28250000  12.010000   ; qtot -0.434142
 3436         h1    130    ccc     H5   3436 0.15710000   1.008000   ; qtot -0.277042
 3437         c3    130    ccc     C4   3437 0.44180000  12.010000   ; qtot 0.164758
 3438         h1    130    ccc     H6   3438 0.15710000   1.008000   ; qtot 0.321858
 3439         h1    130    ccc     H7   3439 -0.03530000   1.008000   ; qtot 0.286558
 3440         h1    130    ccc     H8   3440 -0.03530000   1.008000   ; qtot 0.251258
 3441         n3    130    ccc     N2   3441 -0.74090000  14.010000   ; qtot -0.489642
 3442         c3    130    ccc     C5   3442 0.51680000  12.010000   ; qtot 0.027158
 3443         c3    130    ccc     C6   3443 0.51680000  12.010000   ; qtot 0.543958
 3444         h1    130    ccc     H9   3444 -0.05230000   1.008000   ; qtot 0.491658
 3445         c3    130    ccc     C7   3445 -0.60390000  12.010000   ; qtot -0.112242
 3446         h1    130    ccc    H10   3446 -0.05230000   1.008000   ; qtot -0.164542
 3447         hc    130    ccc    H11   3447 0.16730000   1.008000   ; qtot 0.002758
 3448         hc    130    ccc    H12   3448 0.16730000   1.008000   ; qtot 0.170058
 3449          c    130    ccc     C8   3449 0.72110000  12.010000   ; qtot 0.891158
 3450          o    130    ccc     O2   3450 -0.61950000  16.000000   ; qtot 0.271658
 3451         h1    130    ccc    H13   3451 -0.05230000   1.008000   ; qtot 0.219358
 3452         h1    130    ccc    H14   3452 -0.05230000   1.008000   ; qtot 0.167058
 3453         c3    130    ccc     C9   3453 -0.60390000  12.010000   ; qtot -0.436842
 3454         hc    130    ccc    H15   3454 0.16730000   1.008000   ; qtot -0.269542
 3455         hc    130    ccc    H16   3455 0.16730000   1.008000   ; qtot -0.102242
 3456          c    130    ccc    C10   3456 0.72110000  12.010000   ; qtot 0.618858
 3457          o    130    ccc     O4   3457 -0.61950000  16.000000   ; qtot -0.000642
 3458         c3    130    ccc    C11   3458 0.08518000  12.010000   ; qtot 0.084538
 3459         c3    130    ccc    C12   3459 0.07918000  12.010000   ; qtot 0.163718
 3460         h1    130    ccc    H17   3460 0.06978000   1.008000   ; qtot 0.233498
 3461         c3    130    ccc    C13   3461 0.07918000  12.010000   ; qtot 0.312678
 3462         c3    130    ccc    C14   3462 0.03578000  12.010000   ; qtot 0.348458
 3463         c3    130    ccc    C15   3463 0.33498000  12.010000   ; qtot 0.683438
 3464         h1    130    ccc    H18   3464 0.06178000   1.008000   ; qtot 0.745218
 3465         h1    130    ccc    H19   3465 0.11278000   1.008000   ; qtot 0.857998
 3466         h2    130    ccc    H20   3466 0.12178000   1.008000   ; qtot 0.979778
 3467         oh    130    ccc     O1   3467 -0.56972000  16.000000   ; qtot 0.410058
 3468         oh    130    ccc     O6   3468 -0.57772000  16.000000   ; qtot -0.167662
 3469         c3    130    ccc    C16   3469 0.14548000  12.010000   ; qtot -0.022182
 3470         ho    130    ccc    H21   3470 0.40508000   1.008000   ; qtot 0.382898
 3471         hn    130    ccc    H22   3471 0.31758000   1.008000   ; qtot 0.700478
 3472         h1    130    ccc    H23   3472 0.06278000   1.008000   ; qtot 0.763258
 3473         h1    130    ccc    H24   3473 0.06278000   1.008000   ; qtot 0.826038
 3474         oh    130    ccc     O7   3474 -0.59472000  16.000000   ; qtot 0.231318
 3475         ho    130    ccc    H25   3475 0.41908000   1.008000   ; qtot 0.650398
 3476         os    130    ccc     O8   3476 -0.44552000  16.000000   ; qtot 0.204878
 3477         ho    130    ccc    H26   3477 0.41908000   1.008000   ; qtot 0.623958
 3478         h1    130    ccc    H27   3478 0.08578000   1.008000   ; qtot 0.709738
 3479         oh    130    ccc     O9   3479 -0.58672000  16.000000   ; qtot 0.123018
 3480         ho    130    ccc    H28   3480 0.41908000   1.008000   ; qtot 0.542098
 3481         n3    130    ccc     N3   3481 -0.54282000  14.010000   ; qtot -0.000722
 3482         c3    130    ccc    C17   3482 0.08518000  12.010000   ; qtot 0.084458
 3483         c3    130    ccc    C18   3483 0.07918000  12.010000   ; qtot 0.163638
 3484         h1    130    ccc    H29   3484 0.06978000   1.008000   ; qtot 0.233418
 3485         c3    130    ccc    C19   3485 0.07918000  12.010000   ; qtot 0.312598
 3486         c3    130    ccc    C20   3486 0.03578000  12.010000   ; qtot 0.348378
 3487         c3    130    ccc    C21   3487 0.33498000  12.010000   ; qtot 0.683358
 3488         h1    130    ccc    H30   3488 0.06178000   1.008000   ; qtot 0.745138
 3489         h1    130    ccc    H31   3489 0.11278000   1.008000   ; qtot 0.857918
 3490         h2    130    ccc    H32   3490 0.12178000   1.008000   ; qtot 0.979698
 3491         oh    130    ccc    O10   3491 -0.56972000  16.000000   ; qtot 0.409978
 3492         oh    130    ccc    O11   3492 -0.57772000  16.000000   ; qtot -0.167742
 3493         c3    130    ccc    C22   3493 0.14548000  12.010000   ; qtot -0.022262
 3494         ho    130    ccc    H33   3494 0.40508000   1.008000   ; qtot 0.382818
 3495         hn    130    ccc    H34   3495 0.31758000   1.008000   ; qtot 0.700398
 3496         h1    130    ccc    H35   3496 0.06278000   1.008000   ; qtot 0.763178
 3497         h1    130    ccc    H36   3497 0.06278000   1.008000   ; qtot 0.825958
 3498         oh    130    ccc    O12   3498 -0.59472000  16.000000   ; qtot 0.231238
 3499         ho    130    ccc    H37   3499 0.41908000   1.008000   ; qtot 0.650318
 3500         os    130    ccc    O13   3500 -0.44552000  16.000000   ; qtot 0.204798
 3501         ho    130    ccc    H38   3501 0.41908000   1.008000   ; qtot 0.623878
 3502         h1    130    ccc    H39   3502 0.08578000   1.008000   ; qtot 0.709658
 3503         oh    130    ccc     O5   3503 -0.58672000  16.000000   ; qtot 0.122938
 3504         ho    130    ccc    H40   3504 0.41908000   1.008000   ; qtot 0.542018
 3505         n3    130    ccc     N4   3505 -0.54282000  14.010000   ; qtot -0.000802
; residue  131 ccc rtp ccc q -0.0
 3506          n    131    ccc     N1   3506 -0.46580000  14.010000   ; qtot -0.466602
 3507         hn    131    ccc     H4   3507 0.31480000   1.008000   ; qtot -0.151802
 3508         c3    131    ccc     C3   3508 -0.28250000  12.010000   ; qtot -0.434302
 3509         h1    131    ccc     H5   3509 0.15710000   1.008000   ; qtot -0.277202
 3510         c3    131    ccc     C4   3510 0.44180000  12.010000   ; qtot 0.164598
 3511         h1    131    ccc     H6   3511 0.15710000   1.008000   ; qtot 0.321698
 3512         h1    131    ccc     H7   3512 -0.03530000   1.008000   ; qtot 0.286398
 3513         h1    131    ccc     H8   3513 -0.03530000   1.008000   ; qtot 0.251098
 3514         n3    131    ccc     N2   3514 -0.74090000  14.010000   ; qtot -0.489802
 3515         c3    131    ccc     C5   3515 0.51680000  12.010000   ; qtot 0.026998
 3516         c3    131    ccc     C6   3516 0.51680000  12.010000   ; qtot 0.543798
 3517         h1    131    ccc     H9   3517 -0.05230000   1.008000   ; qtot 0.491498
 3518         c3    131    ccc     C7   3518 -0.60390000  12.010000   ; qtot -0.112402
 3519         h1    131    ccc    H10   3519 -0.05230000   1.008000   ; qtot -0.164702
 3520         hc    131    ccc    H11   3520 0.16730000   1.008000   ; qtot 0.002598
 3521         hc    131    ccc    H12   3521 0.16730000   1.008000   ; qtot 0.169898
 3522          c    131    ccc     C8   3522 0.72110000  12.010000   ; qtot 0.890998
 3523          o    131    ccc     O2   3523 -0.61950000  16.000000   ; qtot 0.271498
 3524         h1    131    ccc    H13   3524 -0.05230000   1.008000   ; qtot 0.219198
 3525         h1    131    ccc    H14   3525 -0.05230000   1.008000   ; qtot 0.166898
 3526         c3    131    ccc     C9   3526 -0.60390000  12.010000   ; qtot -0.437002
 3527         hc    131    ccc    H15   3527 0.16730000   1.008000   ; qtot -0.269702
 3528         hc    131    ccc    H16   3528 0.16730000   1.008000   ; qtot -0.102402
 3529          c    131    ccc    C10   3529 0.72110000  12.010000   ; qtot 0.618698
 3530          o    131    ccc     O4   3530 -0.61950000  16.000000   ; qtot -0.000802
 3531         c3    131    ccc    C11   3531 0.08518000  12.010000   ; qtot 0.084378
 3532         c3    131    ccc    C12   3532 0.07918000  12.010000   ; qtot 0.163558
 3533         h1    131    ccc    H17   3533 0.06978000   1.008000   ; qtot 0.233338
 3534         c3    131    ccc    C13   3534 0.07918000  12.010000   ; qtot 0.312518
 3535         c3    131    ccc    C14   3535 0.03578000  12.010000   ; qtot 0.348298
 3536         c3    131    ccc    C15   3536 0.33498000  12.010000   ; qtot 0.683278
 3537         h1    131    ccc    H18   3537 0.06178000   1.008000   ; qtot 0.745058
 3538         h1    131    ccc    H19   3538 0.11278000   1.008000   ; qtot 0.857838
 3539         h2    131    ccc    H20   3539 0.12178000   1.008000   ; qtot 0.979618
 3540         oh    131    ccc     O1   3540 -0.56972000  16.000000   ; qtot 0.409898
 3541         oh    131    ccc     O6   3541 -0.57772000  16.000000   ; qtot -0.167822
 3542         c3    131    ccc    C16   3542 0.14548000  12.010000   ; qtot -0.022342
 3543         ho    131    ccc    H21   3543 0.40508000   1.008000   ; qtot 0.382738
 3544         hn    131    ccc    H22   3544 0.31758000   1.008000   ; qtot 0.700318
 3545         h1    131    ccc    H23   3545 0.06278000   1.008000   ; qtot 0.763098
 3546         h1    131    ccc    H24   3546 0.06278000   1.008000   ; qtot 0.825878
 3547         oh    131    ccc     O7   3547 -0.59472000  16.000000   ; qtot 0.231158
 3548         ho    131    ccc    H25   3548 0.41908000   1.008000   ; qtot 0.650238
 3549         os    131    ccc     O8   3549 -0.44552000  16.000000   ; qtot 0.204718
 3550         ho    131    ccc    H26   3550 0.41908000   1.008000   ; qtot 0.623798
 3551         h1    131    ccc    H27   3551 0.08578000   1.008000   ; qtot 0.709578
 3552         oh    131    ccc     O9   3552 -0.58672000  16.000000   ; qtot 0.122858
 3553         ho    131    ccc    H28   3553 0.41908000   1.008000   ; qtot 0.541938
 3554         n3    131    ccc     N3   3554 -0.54282000  14.010000   ; qtot -0.000882
 3555         c3    131    ccc    C17   3555 0.08518000  12.010000   ; qtot 0.084298
 3556         c3    131    ccc    C18   3556 0.07918000  12.010000   ; qtot 0.163478
 3557         h1    131    ccc    H29   3557 0.06978000   1.008000   ; qtot 0.233258
 3558         c3    131    ccc    C19   3558 0.07918000  12.010000   ; qtot 0.312438
 3559         c3    131    ccc    C20   3559 0.03578000  12.010000   ; qtot 0.348218
 3560         c3    131    ccc    C21   3560 0.33498000  12.010000   ; qtot 0.683198
 3561         h1    131    ccc    H30   3561 0.06178000   1.008000   ; qtot 0.744978
 3562         h1    131    ccc    H31   3562 0.11278000   1.008000   ; qtot 0.857758
 3563         h2    131    ccc    H32   3563 0.12178000   1.008000   ; qtot 0.979538
 3564         oh    131    ccc    O10   3564 -0.56972000  16.000000   ; qtot 0.409818
 3565         oh    131    ccc    O11   3565 -0.57772000  16.000000   ; qtot -0.167902
 3566         c3    131    ccc    C22   3566 0.14548000  12.010000   ; qtot -0.022422
 3567         ho    131    ccc    H33   3567 0.40508000   1.008000   ; qtot 0.382658
 3568         hn    131    ccc    H34   3568 0.31758000   1.008000   ; qtot 0.700238
 3569         h1    131    ccc    H35   3569 0.06278000   1.008000   ; qtot 0.763018
 3570         h1    131    ccc    H36   3570 0.06278000   1.008000   ; qtot 0.825798
 3571         oh    131    ccc    O12   3571 -0.59472000  16.000000   ; qtot 0.231078
 3572         ho    131    ccc    H37   3572 0.41908000   1.008000   ; qtot 0.650158
 3573         os    131    ccc    O13   3573 -0.44552000  16.000000   ; qtot 0.204638
 3574         ho    131    ccc    H38   3574 0.41908000   1.008000   ; qtot 0.623718
 3575         h1    131    ccc    H39   3575 0.08578000   1.008000   ; qtot 0.709498
 3576         oh    131    ccc     O5   3576 -0.58672000  16.000000   ; qtot 0.122778
 3577         ho    131    ccc    H40   3577 0.41908000   1.008000   ; qtot 0.541858
 3578         n3    131    ccc     N4   3578 -0.54282000  14.010000   ; qtot -0.000962
; residue  132 ccc rtp ccc q -0.0
 3579          n    132    ccc     N1   3579 -0.46580000  14.010000   ; qtot -0.466762
 3580         hn    132    ccc     H4   3580 0.31480000   1.008000   ; qtot -0.151962
 3581         c3    132    ccc     C3   3581 -0.28250000  12.010000   ; qtot -0.434462
 3582         h1    132    ccc     H5   3582 0.15710000   1.008000   ; qtot -0.277362
 3583         c3    132    ccc     C4   3583 0.44180000  12.010000   ; qtot 0.164438
 3584         h1    132    ccc     H6   3584 0.15710000   1.008000   ; qtot 0.321538
 3585         h1    132    ccc     H7   3585 -0.03530000   1.008000   ; qtot 0.286238
 3586         h1    132    ccc     H8   3586 -0.03530000   1.008000   ; qtot 0.250938
 3587         n3    132    ccc     N2   3587 -0.74090000  14.010000   ; qtot -0.489962
 3588         c3    132    ccc     C5   3588 0.51680000  12.010000   ; qtot 0.026838
 3589         c3    132    ccc     C6   3589 0.51680000  12.010000   ; qtot 0.543638
 3590         h1    132    ccc     H9   3590 -0.05230000   1.008000   ; qtot 0.491338
 3591         c3    132    ccc     C7   3591 -0.60390000  12.010000   ; qtot -0.112562
 3592         h1    132    ccc    H10   3592 -0.05230000   1.008000   ; qtot -0.164862
 3593         hc    132    ccc    H11   3593 0.16730000   1.008000   ; qtot 0.002438
 3594         hc    132    ccc    H12   3594 0.16730000   1.008000   ; qtot 0.169738
 3595          c    132    ccc     C8   3595 0.72110000  12.010000   ; qtot 0.890838
 3596          o    132    ccc     O2   3596 -0.61950000  16.000000   ; qtot 0.271338
 3597         h1    132    ccc    H13   3597 -0.05230000   1.008000   ; qtot 0.219038
 3598         h1    132    ccc    H14   3598 -0.05230000   1.008000   ; qtot 0.166738
 3599         c3    132    ccc     C9   3599 -0.60390000  12.010000   ; qtot -0.437162
 3600         hc    132    ccc    H15   3600 0.16730000   1.008000   ; qtot -0.269862
 3601         hc    132    ccc    H16   3601 0.16730000   1.008000   ; qtot -0.102562
 3602          c    132    ccc    C10   3602 0.72110000  12.010000   ; qtot 0.618538
 3603          o    132    ccc     O4   3603 -0.61950000  16.000000   ; qtot -0.000962
 3604         c3    132    ccc    C11   3604 0.08518000  12.010000   ; qtot 0.084218
 3605         c3    132    ccc    C12   3605 0.07918000  12.010000   ; qtot 0.163398
 3606         h1    132    ccc    H17   3606 0.06978000   1.008000   ; qtot 0.233178
 3607         c3    132    ccc    C13   3607 0.07918000  12.010000   ; qtot 0.312358
 3608         c3    132    ccc    C14   3608 0.03578000  12.010000   ; qtot 0.348138
 3609         c3    132    ccc    C15   3609 0.33498000  12.010000   ; qtot 0.683118
 3610         h1    132    ccc    H18   3610 0.06178000   1.008000   ; qtot 0.744898
 3611         h1    132    ccc    H19   3611 0.11278000   1.008000   ; qtot 0.857678
 3612         h2    132    ccc    H20   3612 0.12178000   1.008000   ; qtot 0.979458
 3613         oh    132    ccc     O1   3613 -0.56972000  16.000000   ; qtot 0.409738
 3614         oh    132    ccc     O6   3614 -0.57772000  16.000000   ; qtot -0.167982
 3615         c3    132    ccc    C16   3615 0.14548000  12.010000   ; qtot -0.022502
 3616         ho    132    ccc    H21   3616 0.40508000   1.008000   ; qtot 0.382578
 3617         hn    132    ccc    H22   3617 0.31758000   1.008000   ; qtot 0.700158
 3618         h1    132    ccc    H23   3618 0.06278000   1.008000   ; qtot 0.762938
 3619         h1    132    ccc    H24   3619 0.06278000   1.008000   ; qtot 0.825718
 3620         oh    132    ccc     O7   3620 -0.59472000  16.000000   ; qtot 0.230998
 3621         ho    132    ccc    H25   3621 0.41908000   1.008000   ; qtot 0.650078
 3622         os    132    ccc     O8   3622 -0.44552000  16.000000   ; qtot 0.204558
 3623         ho    132    ccc    H26   3623 0.41908000   1.008000   ; qtot 0.623638
 3624         h1    132    ccc    H27   3624 0.08578000   1.008000   ; qtot 0.709418
 3625         oh    132    ccc     O9   3625 -0.58672000  16.000000   ; qtot 0.122698
 3626         ho    132    ccc    H28   3626 0.41908000   1.008000   ; qtot 0.541778
 3627         n3    132    ccc     N3   3627 -0.54282000  14.010000   ; qtot -0.001042
 3628         c3    132    ccc    C17   3628 0.08518000  12.010000   ; qtot 0.084138
 3629         c3    132    ccc    C18   3629 0.07918000  12.010000   ; qtot 0.163318
 3630         h1    132    ccc    H29   3630 0.06978000   1.008000   ; qtot 0.233098
 3631         c3    132    ccc    C19   3631 0.07918000  12.010000   ; qtot 0.312278
 3632         c3    132    ccc    C20   3632 0.03578000  12.010000   ; qtot 0.348058
 3633         c3    132    ccc    C21   3633 0.33498000  12.010000   ; qtot 0.683038
 3634         h1    132    ccc    H30   3634 0.06178000   1.008000   ; qtot 0.744818
 3635         h1    132    ccc    H31   3635 0.11278000   1.008000   ; qtot 0.857598
 3636         h2    132    ccc    H32   3636 0.12178000   1.008000   ; qtot 0.979378
 3637         oh    132    ccc    O10   3637 -0.56972000  16.000000   ; qtot 0.409658
 3638         oh    132    ccc    O11   3638 -0.57772000  16.000000   ; qtot -0.168062
 3639         c3    132    ccc    C22   3639 0.14548000  12.010000   ; qtot -0.022582
 3640         ho    132    ccc    H33   3640 0.40508000   1.008000   ; qtot 0.382498
 3641         hn    132    ccc    H34   3641 0.31758000   1.008000   ; qtot 0.700078
 3642         h1    132    ccc    H35   3642 0.06278000   1.008000   ; qtot 0.762858
 3643         h1    132    ccc    H36   3643 0.06278000   1.008000   ; qtot 0.825638
 3644         oh    132    ccc    O12   3644 -0.59472000  16.000000   ; qtot 0.230918
 3645         ho    132    ccc    H37   3645 0.41908000   1.008000   ; qtot 0.649998
 3646         os    132    ccc    O13   3646 -0.44552000  16.000000   ; qtot 0.204478
 3647         ho    132    ccc    H38   3647 0.41908000   1.008000   ; qtot 0.623558
 3648         h1    132    ccc    H39   3648 0.08578000   1.008000   ; qtot 0.709338
 3649         oh    132    ccc     O5   3649 -0.58672000  16.000000   ; qtot 0.122618
 3650         ho    132    ccc    H40   3650 0.41908000   1.008000   ; qtot 0.541698
 3651         n3    132    ccc     N4   3651 -0.54282000  14.010000   ; qtot -0.001122
; residue  133 ccc rtp ccc q -0.0
 3652          n    133    ccc     N1   3652 -0.46580000  14.010000   ; qtot -0.466922
 3653         hn    133    ccc     H4   3653 0.31480000   1.008000   ; qtot -0.152122
 3654         c3    133    ccc     C3   3654 -0.28250000  12.010000   ; qtot -0.434622
 3655         h1    133    ccc     H5   3655 0.15710000   1.008000   ; qtot -0.277522
 3656         c3    133    ccc     C4   3656 0.44180000  12.010000   ; qtot 0.164278
 3657         h1    133    ccc     H6   3657 0.15710000   1.008000   ; qtot 0.321378
 3658         h1    133    ccc     H7   3658 -0.03530000   1.008000   ; qtot 0.286078
 3659         h1    133    ccc     H8   3659 -0.03530000   1.008000   ; qtot 0.250778
 3660         n3    133    ccc     N2   3660 -0.74090000  14.010000   ; qtot -0.490122
 3661         c3    133    ccc     C5   3661 0.51680000  12.010000   ; qtot 0.026678
 3662         c3    133    ccc     C6   3662 0.51680000  12.010000   ; qtot 0.543478
 3663         h1    133    ccc     H9   3663 -0.05230000   1.008000   ; qtot 0.491178
 3664         c3    133    ccc     C7   3664 -0.60390000  12.010000   ; qtot -0.112722
 3665         h1    133    ccc    H10   3665 -0.05230000   1.008000   ; qtot -0.165022
 3666         hc    133    ccc    H11   3666 0.16730000   1.008000   ; qtot 0.002278
 3667         hc    133    ccc    H12   3667 0.16730000   1.008000   ; qtot 0.169578
 3668          c    133    ccc     C8   3668 0.72110000  12.010000   ; qtot 0.890678
 3669          o    133    ccc     O2   3669 -0.61950000  16.000000   ; qtot 0.271178
 3670         h1    133    ccc    H13   3670 -0.05230000   1.008000   ; qtot 0.218878
 3671         h1    133    ccc    H14   3671 -0.05230000   1.008000   ; qtot 0.166578
 3672         c3    133    ccc     C9   3672 -0.60390000  12.010000   ; qtot -0.437322
 3673         hc    133    ccc    H15   3673 0.16730000   1.008000   ; qtot -0.270022
 3674         hc    133    ccc    H16   3674 0.16730000   1.008000   ; qtot -0.102722
 3675          c    133    ccc    C10   3675 0.72110000  12.010000   ; qtot 0.618378
 3676          o    133    ccc     O4   3676 -0.61950000  16.000000   ; qtot -0.001122
 3677         c3    133    ccc    C11   3677 0.08518000  12.010000   ; qtot 0.084058
 3678         c3    133    ccc    C12   3678 0.07918000  12.010000   ; qtot 0.163238
 3679         h1    133    ccc    H17   3679 0.06978000   1.008000   ; qtot 0.233018
 3680         c3    133    ccc    C13   3680 0.07918000  12.010000   ; qtot 0.312198
 3681         c3    133    ccc    C14   3681 0.03578000  12.010000   ; qtot 0.347978
 3682         c3    133    ccc    C15   3682 0.33498000  12.010000   ; qtot 0.682958
 3683         h1    133    ccc    H18   3683 0.06178000   1.008000   ; qtot 0.744738
 3684         h1    133    ccc    H19   3684 0.11278000   1.008000   ; qtot 0.857518
 3685         h2    133    ccc    H20   3685 0.12178000   1.008000   ; qtot 0.979298
 3686         oh    133    ccc     O1   3686 -0.56972000  16.000000   ; qtot 0.409578
 3687         oh    133    ccc     O6   3687 -0.57772000  16.000000   ; qtot -0.168142
 3688         c3    133    ccc    C16   3688 0.14548000  12.010000   ; qtot -0.022662
 3689         ho    133    ccc    H21   3689 0.40508000   1.008000   ; qtot 0.382418
 3690         hn    133    ccc    H22   3690 0.31758000   1.008000   ; qtot 0.699998
 3691         h1    133    ccc    H23   3691 0.06278000   1.008000   ; qtot 0.762778
 3692         h1    133    ccc    H24   3692 0.06278000   1.008000   ; qtot 0.825558
 3693         oh    133    ccc     O7   3693 -0.59472000  16.000000   ; qtot 0.230838
 3694         ho    133    ccc    H25   3694 0.41908000   1.008000   ; qtot 0.649918
 3695         os    133    ccc     O8   3695 -0.44552000  16.000000   ; qtot 0.204398
 3696         ho    133    ccc    H26   3696 0.41908000   1.008000   ; qtot 0.623478
 3697         h1    133    ccc    H27   3697 0.08578000   1.008000   ; qtot 0.709258
 3698         oh    133    ccc     O9   3698 -0.58672000  16.000000   ; qtot 0.122538
 3699         ho    133    ccc    H28   3699 0.41908000   1.008000   ; qtot 0.541618
 3700         n3    133    ccc     N3   3700 -0.54282000  14.010000   ; qtot -0.001202
 3701         c3    133    ccc    C17   3701 0.08518000  12.010000   ; qtot 0.083978
 3702         c3    133    ccc    C18   3702 0.07918000  12.010000   ; qtot 0.163158
 3703         h1    133    ccc    H29   3703 0.06978000   1.008000   ; qtot 0.232938
 3704         c3    133    ccc    C19   3704 0.07918000  12.010000   ; qtot 0.312118
 3705         c3    133    ccc    C20   3705 0.03578000  12.010000   ; qtot 0.347898
 3706         c3    133    ccc    C21   3706 0.33498000  12.010000   ; qtot 0.682878
 3707         h1    133    ccc    H30   3707 0.06178000   1.008000   ; qtot 0.744658
 3708         h1    133    ccc    H31   3708 0.11278000   1.008000   ; qtot 0.857438
 3709         h2    133    ccc    H32   3709 0.12178000   1.008000   ; qtot 0.979218
 3710         oh    133    ccc    O10   3710 -0.56972000  16.000000   ; qtot 0.409498
 3711         oh    133    ccc    O11   3711 -0.57772000  16.000000   ; qtot -0.168222
 3712         c3    133    ccc    C22   3712 0.14548000  12.010000   ; qtot -0.022742
 3713         ho    133    ccc    H33   3713 0.40508000   1.008000   ; qtot 0.382338
 3714         hn    133    ccc    H34   3714 0.31758000   1.008000   ; qtot 0.699918
 3715         h1    133    ccc    H35   3715 0.06278000   1.008000   ; qtot 0.762698
 3716         h1    133    ccc    H36   3716 0.06278000   1.008000   ; qtot 0.825478
 3717         oh    133    ccc    O12   3717 -0.59472000  16.000000   ; qtot 0.230758
 3718         ho    133    ccc    H37   3718 0.41908000   1.008000   ; qtot 0.649838
 3719         os    133    ccc    O13   3719 -0.44552000  16.000000   ; qtot 0.204318
 3720         ho    133    ccc    H38   3720 0.41908000   1.008000   ; qtot 0.623398
 3721         h1    133    ccc    H39   3721 0.08578000   1.008000   ; qtot 0.709178
 3722         oh    133    ccc     O5   3722 -0.58672000  16.000000   ; qtot 0.122458
 3723         ho    133    ccc    H40   3723 0.41908000   1.008000   ; qtot 0.541538
 3724         n3    133    ccc     N4   3724 -0.54282000  14.010000   ; qtot -0.001282
; residue  134 ccc rtp ccc q -0.0
 3725          n    134    ccc     N1   3725 -0.46580000  14.010000   ; qtot -0.467082
 3726         hn    134    ccc     H4   3726 0.31480000   1.008000   ; qtot -0.152282
 3727         c3    134    ccc     C3   3727 -0.28250000  12.010000   ; qtot -0.434782
 3728         h1    134    ccc     H5   3728 0.15710000   1.008000   ; qtot -0.277682
 3729         c3    134    ccc     C4   3729 0.44180000  12.010000   ; qtot 0.164118
 3730         h1    134    ccc     H6   3730 0.15710000   1.008000   ; qtot 0.321218
 3731         h1    134    ccc     H7   3731 -0.03530000   1.008000   ; qtot 0.285918
 3732         h1    134    ccc     H8   3732 -0.03530000   1.008000   ; qtot 0.250618
 3733         n3    134    ccc     N2   3733 -0.74090000  14.010000   ; qtot -0.490282
 3734         c3    134    ccc     C5   3734 0.51680000  12.010000   ; qtot 0.026518
 3735         c3    134    ccc     C6   3735 0.51680000  12.010000   ; qtot 0.543318
 3736         h1    134    ccc     H9   3736 -0.05230000   1.008000   ; qtot 0.491018
 3737         c3    134    ccc     C7   3737 -0.60390000  12.010000   ; qtot -0.112882
 3738         h1    134    ccc    H10   3738 -0.05230000   1.008000   ; qtot -0.165182
 3739         hc    134    ccc    H11   3739 0.16730000   1.008000   ; qtot 0.002118
 3740         hc    134    ccc    H12   3740 0.16730000   1.008000   ; qtot 0.169418
 3741          c    134    ccc     C8   3741 0.72110000  12.010000   ; qtot 0.890518
 3742          o    134    ccc     O2   3742 -0.61950000  16.000000   ; qtot 0.271018
 3743         h1    134    ccc    H13   3743 -0.05230000   1.008000   ; qtot 0.218718
 3744         h1    134    ccc    H14   3744 -0.05230000   1.008000   ; qtot 0.166418
 3745         c3    134    ccc     C9   3745 -0.60390000  12.010000   ; qtot -0.437482
 3746         hc    134    ccc    H15   3746 0.16730000   1.008000   ; qtot -0.270182
 3747         hc    134    ccc    H16   3747 0.16730000   1.008000   ; qtot -0.102882
 3748          c    134    ccc    C10   3748 0.72110000  12.010000   ; qtot 0.618218
 3749          o    134    ccc     O4   3749 -0.61950000  16.000000   ; qtot -0.001282
 3750         c3    134    ccc    C11   3750 0.08518000  12.010000   ; qtot 0.083898
 3751         c3    134    ccc    C12   3751 0.07918000  12.010000   ; qtot 0.163078
 3752         h1    134    ccc    H17   3752 0.06978000   1.008000   ; qtot 0.232858
 3753         c3    134    ccc    C13   3753 0.07918000  12.010000   ; qtot 0.312038
 3754         c3    134    ccc    C14   3754 0.03578000  12.010000   ; qtot 0.347818
 3755         c3    134    ccc    C15   3755 0.33498000  12.010000   ; qtot 0.682798
 3756         h1    134    ccc    H18   3756 0.06178000   1.008000   ; qtot 0.744578
 3757         h1    134    ccc    H19   3757 0.11278000   1.008000   ; qtot 0.857358
 3758         h2    134    ccc    H20   3758 0.12178000   1.008000   ; qtot 0.979138
 3759         oh    134    ccc     O1   3759 -0.56972000  16.000000   ; qtot 0.409418
 3760         oh    134    ccc     O6   3760 -0.57772000  16.000000   ; qtot -0.168302
 3761         c3    134    ccc    C16   3761 0.14548000  12.010000   ; qtot -0.022822
 3762         ho    134    ccc    H21   3762 0.40508000   1.008000   ; qtot 0.382258
 3763         hn    134    ccc    H22   3763 0.31758000   1.008000   ; qtot 0.699838
 3764         h1    134    ccc    H23   3764 0.06278000   1.008000   ; qtot 0.762618
 3765         h1    134    ccc    H24   3765 0.06278000   1.008000   ; qtot 0.825398
 3766         oh    134    ccc     O7   3766 -0.59472000  16.000000   ; qtot 0.230678
 3767         ho    134    ccc    H25   3767 0.41908000   1.008000   ; qtot 0.649758
 3768         os    134    ccc     O8   3768 -0.44552000  16.000000   ; qtot 0.204238
 3769         ho    134    ccc    H26   3769 0.41908000   1.008000   ; qtot 0.623318
 3770         h1    134    ccc    H27   3770 0.08578000   1.008000   ; qtot 0.709098
 3771         oh    134    ccc     O9   3771 -0.58672000  16.000000   ; qtot 0.122378
 3772         ho    134    ccc    H28   3772 0.41908000   1.008000   ; qtot 0.541458
 3773         n3    134    ccc     N3   3773 -0.54282000  14.010000   ; qtot -0.001362
 3774         c3    134    ccc    C17   3774 0.08518000  12.010000   ; qtot 0.083818
 3775         c3    134    ccc    C18   3775 0.07918000  12.010000   ; qtot 0.162998
 3776         h1    134    ccc    H29   3776 0.06978000   1.008000   ; qtot 0.232778
 3777         c3    134    ccc    C19   3777 0.07918000  12.010000   ; qtot 0.311958
 3778         c3    134    ccc    C20   3778 0.03578000  12.010000   ; qtot 0.347738
 3779         c3    134    ccc    C21   3779 0.33498000  12.010000   ; qtot 0.682718
 3780         h1    134    ccc    H30   3780 0.06178000   1.008000   ; qtot 0.744498
 3781         h1    134    ccc    H31   3781 0.11278000   1.008000   ; qtot 0.857278
 3782         h2    134    ccc    H32   3782 0.12178000   1.008000   ; qtot 0.979058
 3783         oh    134    ccc    O10   3783 -0.56972000  16.000000   ; qtot 0.409338
 3784         oh    134    ccc    O11   3784 -0.57772000  16.000000   ; qtot -0.168382
 3785         c3    134    ccc    C22   3785 0.14548000  12.010000   ; qtot -0.022902
 3786         ho    134    ccc    H33   3786 0.40508000   1.008000   ; qtot 0.382178
 3787         hn    134    ccc    H34   3787 0.31758000   1.008000   ; qtot 0.699758
 3788         h1    134    ccc    H35   3788 0.06278000   1.008000   ; qtot 0.762538
 3789         h1    134    ccc    H36   3789 0.06278000   1.008000   ; qtot 0.825318
 3790         oh    134    ccc    O12   3790 -0.59472000  16.000000   ; qtot 0.230598
 3791         ho    134    ccc    H37   3791 0.41908000   1.008000   ; qtot 0.649678
 3792         os    134    ccc    O13   3792 -0.44552000  16.000000   ; qtot 0.204158
 3793         ho    134    ccc    H38   3793 0.41908000   1.008000   ; qtot 0.623238
 3794         h1    134    ccc    H39   3794 0.08578000   1.008000   ; qtot 0.709018
 3795         oh    134    ccc     O5   3795 -0.58672000  16.000000   ; qtot 0.122298
 3796         ho    134    ccc    H40   3796 0.41908000   1.008000   ; qtot 0.541378
 3797         n3    134    ccc     N4   3797 -0.54282000  14.010000   ; qtot -0.001442
; residue  135 ccc rtp ccc q -0.0
 3798          n    135    ccc     N1   3798 -0.46580000  14.010000   ; qtot -0.467242
 3799         hn    135    ccc     H4   3799 0.31480000   1.008000   ; qtot -0.152442
 3800         c3    135    ccc     C3   3800 -0.28250000  12.010000   ; qtot -0.434942
 3801         h1    135    ccc     H5   3801 0.15710000   1.008000   ; qtot -0.277842
 3802         c3    135    ccc     C4   3802 0.44180000  12.010000   ; qtot 0.163958
 3803         h1    135    ccc     H6   3803 0.15710000   1.008000   ; qtot 0.321058
 3804         h1    135    ccc     H7   3804 -0.03530000   1.008000   ; qtot 0.285758
 3805         h1    135    ccc     H8   3805 -0.03530000   1.008000   ; qtot 0.250458
 3806         n3    135    ccc     N2   3806 -0.74090000  14.010000   ; qtot -0.490442
 3807         c3    135    ccc     C5   3807 0.51680000  12.010000   ; qtot 0.026358
 3808         c3    135    ccc     C6   3808 0.51680000  12.010000   ; qtot 0.543158
 3809         h1    135    ccc     H9   3809 -0.05230000   1.008000   ; qtot 0.490858
 3810         c3    135    ccc     C7   3810 -0.60390000  12.010000   ; qtot -0.113042
 3811         h1    135    ccc    H10   3811 -0.05230000   1.008000   ; qtot -0.165342
 3812         hc    135    ccc    H11   3812 0.16730000   1.008000   ; qtot 0.001958
 3813         hc    135    ccc    H12   3813 0.16730000   1.008000   ; qtot 0.169258
 3814          c    135    ccc     C8   3814 0.72110000  12.010000   ; qtot 0.890358
 3815          o    135    ccc     O2   3815 -0.61950000  16.000000   ; qtot 0.270858
 3816         h1    135    ccc    H13   3816 -0.05230000   1.008000   ; qtot 0.218558
 3817         h1    135    ccc    H14   3817 -0.05230000   1.008000   ; qtot 0.166258
 3818         c3    135    ccc     C9   3818 -0.60390000  12.010000   ; qtot -0.437642
 3819         hc    135    ccc    H15   3819 0.16730000   1.008000   ; qtot -0.270342
 3820         hc    135    ccc    H16   3820 0.16730000   1.008000   ; qtot -0.103042
 3821          c    135    ccc    C10   3821 0.72110000  12.010000   ; qtot 0.618058
 3822          o    135    ccc     O4   3822 -0.61950000  16.000000   ; qtot -0.001442
 3823         c3    135    ccc    C11   3823 0.08518000  12.010000   ; qtot 0.083738
 3824         c3    135    ccc    C12   3824 0.07918000  12.010000   ; qtot 0.162918
 3825         h1    135    ccc    H17   3825 0.06978000   1.008000   ; qtot 0.232698
 3826         c3    135    ccc    C13   3826 0.07918000  12.010000   ; qtot 0.311878
 3827         c3    135    ccc    C14   3827 0.03578000  12.010000   ; qtot 0.347658
 3828         c3    135    ccc    C15   3828 0.33498000  12.010000   ; qtot 0.682638
 3829         h1    135    ccc    H18   3829 0.06178000   1.008000   ; qtot 0.744418
 3830         h1    135    ccc    H19   3830 0.11278000   1.008000   ; qtot 0.857198
 3831         h2    135    ccc    H20   3831 0.12178000   1.008000   ; qtot 0.978978
 3832         oh    135    ccc     O1   3832 -0.56972000  16.000000   ; qtot 0.409258
 3833         oh    135    ccc     O6   3833 -0.57772000  16.000000   ; qtot -0.168462
 3834         c3    135    ccc    C16   3834 0.14548000  12.010000   ; qtot -0.022982
 3835         ho    135    ccc    H21   3835 0.40508000   1.008000   ; qtot 0.382098
 3836         hn    135    ccc    H22   3836 0.31758000   1.008000   ; qtot 0.699678
 3837         h1    135    ccc    H23   3837 0.06278000   1.008000   ; qtot 0.762458
 3838         h1    135    ccc    H24   3838 0.06278000   1.008000   ; qtot 0.825238
 3839         oh    135    ccc     O7   3839 -0.59472000  16.000000   ; qtot 0.230518
 3840         ho    135    ccc    H25   3840 0.41908000   1.008000   ; qtot 0.649598
 3841         os    135    ccc     O8   3841 -0.44552000  16.000000   ; qtot 0.204078
 3842         ho    135    ccc    H26   3842 0.41908000   1.008000   ; qtot 0.623158
 3843         h1    135    ccc    H27   3843 0.08578000   1.008000   ; qtot 0.708938
 3844         oh    135    ccc     O9   3844 -0.58672000  16.000000   ; qtot 0.122218
 3845         ho    135    ccc    H28   3845 0.41908000   1.008000   ; qtot 0.541298
 3846         n3    135    ccc     N3   3846 -0.54282000  14.010000   ; qtot -0.001522
 3847         c3    135    ccc    C17   3847 0.08518000  12.010000   ; qtot 0.083658
 3848         c3    135    ccc    C18   3848 0.07918000  12.010000   ; qtot 0.162838
 3849         h1    135    ccc    H29   3849 0.06978000   1.008000   ; qtot 0.232618
 3850         c3    135    ccc    C19   3850 0.07918000  12.010000   ; qtot 0.311798
 3851         c3    135    ccc    C20   3851 0.03578000  12.010000   ; qtot 0.347578
 3852         c3    135    ccc    C21   3852 0.33498000  12.010000   ; qtot 0.682558
 3853         h1    135    ccc    H30   3853 0.06178000   1.008000   ; qtot 0.744338
 3854         h1    135    ccc    H31   3854 0.11278000   1.008000   ; qtot 0.857118
 3855         h2    135    ccc    H32   3855 0.12178000   1.008000   ; qtot 0.978898
 3856         oh    135    ccc    O10   3856 -0.56972000  16.000000   ; qtot 0.409178
 3857         oh    135    ccc    O11   3857 -0.57772000  16.000000   ; qtot -0.168542
 3858         c3    135    ccc    C22   3858 0.14548000  12.010000   ; qtot -0.023062
 3859         ho    135    ccc    H33   3859 0.40508000   1.008000   ; qtot 0.382018
 3860         hn    135    ccc    H34   3860 0.31758000   1.008000   ; qtot 0.699598
 3861         h1    135    ccc    H35   3861 0.06278000   1.008000   ; qtot 0.762378
 3862         h1    135    ccc    H36   3862 0.06278000   1.008000   ; qtot 0.825158
 3863         oh    135    ccc    O12   3863 -0.59472000  16.000000   ; qtot 0.230438
 3864         ho    135    ccc    H37   3864 0.41908000   1.008000   ; qtot 0.649518
 3865         os    135    ccc    O13   3865 -0.44552000  16.000000   ; qtot 0.203998
 3866         ho    135    ccc    H38   3866 0.41908000   1.008000   ; qtot 0.623078
 3867         h1    135    ccc    H39   3867 0.08578000   1.008000   ; qtot 0.708858
 3868         oh    135    ccc     O5   3868 -0.58672000  16.000000   ; qtot 0.122138
 3869         ho    135    ccc    H40   3869 0.41908000   1.008000   ; qtot 0.541218
 3870         n3    135    ccc     N4   3870 -0.54282000  14.010000   ; qtot -0.001602
; residue  136 ccc rtp ccc q -0.0
 3871          n    136    ccc     N1   3871 -0.46580000  14.010000   ; qtot -0.467402
 3872         hn    136    ccc     H4   3872 0.31480000   1.008000   ; qtot -0.152602
 3873         c3    136    ccc     C3   3873 -0.28250000  12.010000   ; qtot -0.435102
 3874         h1    136    ccc     H5   3874 0.15710000   1.008000   ; qtot -0.278002
 3875         c3    136    ccc     C4   3875 0.44180000  12.010000   ; qtot 0.163798
 3876         h1    136    ccc     H6   3876 0.15710000   1.008000   ; qtot 0.320898
 3877         h1    136    ccc     H7   3877 -0.03530000   1.008000   ; qtot 0.285598
 3878         h1    136    ccc     H8   3878 -0.03530000   1.008000   ; qtot 0.250298
 3879         n3    136    ccc     N2   3879 -0.74090000  14.010000   ; qtot -0.490602
 3880         c3    136    ccc     C5   3880 0.51680000  12.010000   ; qtot 0.026198
 3881         c3    136    ccc     C6   3881 0.51680000  12.010000   ; qtot 0.542998
 3882         h1    136    ccc     H9   3882 -0.05230000   1.008000   ; qtot 0.490698
 3883         c3    136    ccc     C7   3883 -0.60390000  12.010000   ; qtot -0.113202
 3884         h1    136    ccc    H10   3884 -0.05230000   1.008000   ; qtot -0.165502
 3885         hc    136    ccc    H11   3885 0.16730000   1.008000   ; qtot 0.001798
 3886         hc    136    ccc    H12   3886 0.16730000   1.008000   ; qtot 0.169098
 3887          c    136    ccc     C8   3887 0.72110000  12.010000   ; qtot 0.890198
 3888          o    136    ccc     O2   3888 -0.61950000  16.000000   ; qtot 0.270698
 3889         h1    136    ccc    H13   3889 -0.05230000   1.008000   ; qtot 0.218398
 3890         h1    136    ccc    H14   3890 -0.05230000   1.008000   ; qtot 0.166098
 3891         c3    136    ccc     C9   3891 -0.60390000  12.010000   ; qtot -0.437802
 3892         hc    136    ccc    H15   3892 0.16730000   1.008000   ; qtot -0.270502
 3893         hc    136    ccc    H16   3893 0.16730000   1.008000   ; qtot -0.103202
 3894          c    136    ccc    C10   3894 0.72110000  12.010000   ; qtot 0.617898
 3895          o    136    ccc     O4   3895 -0.61950000  16.000000   ; qtot -0.001602
 3896         c3    136    ccc    C11   3896 0.08518000  12.010000   ; qtot 0.083578
 3897         c3    136    ccc    C12   3897 0.07918000  12.010000   ; qtot 0.162758
 3898         h1    136    ccc    H17   3898 0.06978000   1.008000   ; qtot 0.232538
 3899         c3    136    ccc    C13   3899 0.07918000  12.010000   ; qtot 0.311718
 3900         c3    136    ccc    C14   3900 0.03578000  12.010000   ; qtot 0.347498
 3901         c3    136    ccc    C15   3901 0.33498000  12.010000   ; qtot 0.682478
 3902         h1    136    ccc    H18   3902 0.06178000   1.008000   ; qtot 0.744258
 3903         h1    136    ccc    H19   3903 0.11278000   1.008000   ; qtot 0.857038
 3904         h2    136    ccc    H20   3904 0.12178000   1.008000   ; qtot 0.978818
 3905         oh    136    ccc     O1   3905 -0.56972000  16.000000   ; qtot 0.409098
 3906         oh    136    ccc     O6   3906 -0.57772000  16.000000   ; qtot -0.168622
 3907         c3    136    ccc    C16   3907 0.14548000  12.010000   ; qtot -0.023142
 3908         ho    136    ccc    H21   3908 0.40508000   1.008000   ; qtot 0.381938
 3909         hn    136    ccc    H22   3909 0.31758000   1.008000   ; qtot 0.699518
 3910         h1    136    ccc    H23   3910 0.06278000   1.008000   ; qtot 0.762298
 3911         h1    136    ccc    H24   3911 0.06278000   1.008000   ; qtot 0.825078
 3912         oh    136    ccc     O7   3912 -0.59472000  16.000000   ; qtot 0.230358
 3913         ho    136    ccc    H25   3913 0.41908000   1.008000   ; qtot 0.649438
 3914         os    136    ccc     O8   3914 -0.44552000  16.000000   ; qtot 0.203918
 3915         ho    136    ccc    H26   3915 0.41908000   1.008000   ; qtot 0.622998
 3916         h1    136    ccc    H27   3916 0.08578000   1.008000   ; qtot 0.708778
 3917         oh    136    ccc     O9   3917 -0.58672000  16.000000   ; qtot 0.122058
 3918         ho    136    ccc    H28   3918 0.41908000   1.008000   ; qtot 0.541138
 3919         n3    136    ccc     N3   3919 -0.54282000  14.010000   ; qtot -0.001682
 3920         c3    136    ccc    C17   3920 0.08518000  12.010000   ; qtot 0.083498
 3921         c3    136    ccc    C18   3921 0.07918000  12.010000   ; qtot 0.162678
 3922         h1    136    ccc    H29   3922 0.06978000   1.008000   ; qtot 0.232458
 3923         c3    136    ccc    C19   3923 0.07918000  12.010000   ; qtot 0.311638
 3924         c3    136    ccc    C20   3924 0.03578000  12.010000   ; qtot 0.347418
 3925         c3    136    ccc    C21   3925 0.33498000  12.010000   ; qtot 0.682398
 3926         h1    136    ccc    H30   3926 0.06178000   1.008000   ; qtot 0.744178
 3927         h1    136    ccc    H31   3927 0.11278000   1.008000   ; qtot 0.856958
 3928         h2    136    ccc    H32   3928 0.12178000   1.008000   ; qtot 0.978738
 3929         oh    136    ccc    O10   3929 -0.56972000  16.000000   ; qtot 0.409018
 3930         oh    136    ccc    O11   3930 -0.57772000  16.000000   ; qtot -0.168702
 3931         c3    136    ccc    C22   3931 0.14548000  12.010000   ; qtot -0.023222
 3932         ho    136    ccc    H33   3932 0.40508000   1.008000   ; qtot 0.381858
 3933         hn    136    ccc    H34   3933 0.31758000   1.008000   ; qtot 0.699438
 3934         h1    136    ccc    H35   3934 0.06278000   1.008000   ; qtot 0.762218
 3935         h1    136    ccc    H36   3935 0.06278000   1.008000   ; qtot 0.824998
 3936         oh    136    ccc    O12   3936 -0.59472000  16.000000   ; qtot 0.230278
 3937         ho    136    ccc    H37   3937 0.41908000   1.008000   ; qtot 0.649358
 3938         os    136    ccc    O13   3938 -0.44552000  16.000000   ; qtot 0.203838
 3939         ho    136    ccc    H38   3939 0.41908000   1.008000   ; qtot 0.622918
 3940         h1    136    ccc    H39   3940 0.08578000   1.008000   ; qtot 0.708698
 3941         oh    136    ccc     O5   3941 -0.58672000  16.000000   ; qtot 0.121978
 3942         ho    136    ccc    H40   3942 0.41908000   1.008000   ; qtot 0.541058
 3943         n3    136    ccc     N4   3943 -0.54282000  14.010000   ; qtot -0.001762
; residue  137 ccc rtp ccc q -0.0
 3944          n    137    ccc     N1   3944 -0.46580000  14.010000   ; qtot -0.467562
 3945         hn    137    ccc     H4   3945 0.31480000   1.008000   ; qtot -0.152762
 3946         c3    137    ccc     C3   3946 -0.28250000  12.010000   ; qtot -0.435262
 3947         h1    137    ccc     H5   3947 0.15710000   1.008000   ; qtot -0.278162
 3948         c3    137    ccc     C4   3948 0.44180000  12.010000   ; qtot 0.163638
 3949         h1    137    ccc     H6   3949 0.15710000   1.008000   ; qtot 0.320738
 3950         h1    137    ccc     H7   3950 -0.03530000   1.008000   ; qtot 0.285438
 3951         h1    137    ccc     H8   3951 -0.03530000   1.008000   ; qtot 0.250138
 3952         n3    137    ccc     N2   3952 -0.74090000  14.010000   ; qtot -0.490762
 3953         c3    137    ccc     C5   3953 0.51680000  12.010000   ; qtot 0.026038
 3954         c3    137    ccc     C6   3954 0.51680000  12.010000   ; qtot 0.542838
 3955         h1    137    ccc     H9   3955 -0.05230000   1.008000   ; qtot 0.490538
 3956         c3    137    ccc     C7   3956 -0.60390000  12.010000   ; qtot -0.113362
 3957         h1    137    ccc    H10   3957 -0.05230000   1.008000   ; qtot -0.165662
 3958         hc    137    ccc    H11   3958 0.16730000   1.008000   ; qtot 0.001638
 3959         hc    137    ccc    H12   3959 0.16730000   1.008000   ; qtot 0.168938
 3960          c    137    ccc     C8   3960 0.72110000  12.010000   ; qtot 0.890038
 3961          o    137    ccc     O2   3961 -0.61950000  16.000000   ; qtot 0.270538
 3962         h1    137    ccc    H13   3962 -0.05230000   1.008000   ; qtot 0.218238
 3963         h1    137    ccc    H14   3963 -0.05230000   1.008000   ; qtot 0.165938
 3964         c3    137    ccc     C9   3964 -0.60390000  12.010000   ; qtot -0.437962
 3965         hc    137    ccc    H15   3965 0.16730000   1.008000   ; qtot -0.270662
 3966         hc    137    ccc    H16   3966 0.16730000   1.008000   ; qtot -0.103362
 3967          c    137    ccc    C10   3967 0.72110000  12.010000   ; qtot 0.617738
 3968          o    137    ccc     O4   3968 -0.61950000  16.000000   ; qtot -0.001762
 3969         c3    137    ccc    C11   3969 0.08518000  12.010000   ; qtot 0.083418
 3970         c3    137    ccc    C12   3970 0.07918000  12.010000   ; qtot 0.162598
 3971         h1    137    ccc    H17   3971 0.06978000   1.008000   ; qtot 0.232378
 3972         c3    137    ccc    C13   3972 0.07918000  12.010000   ; qtot 0.311558
 3973         c3    137    ccc    C14   3973 0.03578000  12.010000   ; qtot 0.347338
 3974         c3    137    ccc    C15   3974 0.33498000  12.010000   ; qtot 0.682318
 3975         h1    137    ccc    H18   3975 0.06178000   1.008000   ; qtot 0.744098
 3976         h1    137    ccc    H19   3976 0.11278000   1.008000   ; qtot 0.856878
 3977         h2    137    ccc    H20   3977 0.12178000   1.008000   ; qtot 0.978658
 3978         oh    137    ccc     O1   3978 -0.56972000  16.000000   ; qtot 0.408938
 3979         oh    137    ccc     O6   3979 -0.57772000  16.000000   ; qtot -0.168782
 3980         c3    137    ccc    C16   3980 0.14548000  12.010000   ; qtot -0.023302
 3981         ho    137    ccc    H21   3981 0.40508000   1.008000   ; qtot 0.381778
 3982         hn    137    ccc    H22   3982 0.31758000   1.008000   ; qtot 0.699358
 3983         h1    137    ccc    H23   3983 0.06278000   1.008000   ; qtot 0.762138
 3984         h1    137    ccc    H24   3984 0.06278000   1.008000   ; qtot 0.824918
 3985         oh    137    ccc     O7   3985 -0.59472000  16.000000   ; qtot 0.230198
 3986         ho    137    ccc    H25   3986 0.41908000   1.008000   ; qtot 0.649278
 3987         os    137    ccc     O8   3987 -0.44552000  16.000000   ; qtot 0.203758
 3988         ho    137    ccc    H26   3988 0.41908000   1.008000   ; qtot 0.622838
 3989         h1    137    ccc    H27   3989 0.08578000   1.008000   ; qtot 0.708618
 3990         oh    137    ccc     O9   3990 -0.58672000  16.000000   ; qtot 0.121898
 3991         ho    137    ccc    H28   3991 0.41908000   1.008000   ; qtot 0.540978
 3992         n3    137    ccc     N3   3992 -0.54282000  14.010000   ; qtot -0.001842
 3993         c3    137    ccc    C17   3993 0.08518000  12.010000   ; qtot 0.083338
 3994         c3    137    ccc    C18   3994 0.07918000  12.010000   ; qtot 0.162518
 3995         h1    137    ccc    H29   3995 0.06978000   1.008000   ; qtot 0.232298
 3996         c3    137    ccc    C19   3996 0.07918000  12.010000   ; qtot 0.311478
 3997         c3    137    ccc    C20   3997 0.03578000  12.010000   ; qtot 0.347258
 3998         c3    137    ccc    C21   3998 0.33498000  12.010000   ; qtot 0.682238
 3999         h1    137    ccc    H30   3999 0.06178000   1.008000   ; qtot 0.744018
 4000         h1    137    ccc    H31   4000 0.11278000   1.008000   ; qtot 0.856798
 4001         h2    137    ccc    H32   4001 0.12178000   1.008000   ; qtot 0.978578
 4002         oh    137    ccc    O10   4002 -0.56972000  16.000000   ; qtot 0.408858
 4003         oh    137    ccc    O11   4003 -0.57772000  16.000000   ; qtot -0.168862
 4004         c3    137    ccc    C22   4004 0.14548000  12.010000   ; qtot -0.023382
 4005         ho    137    ccc    H33   4005 0.40508000   1.008000   ; qtot 0.381698
 4006         hn    137    ccc    H34   4006 0.31758000   1.008000   ; qtot 0.699278
 4007         h1    137    ccc    H35   4007 0.06278000   1.008000   ; qtot 0.762058
 4008         h1    137    ccc    H36   4008 0.06278000   1.008000   ; qtot 0.824838
 4009         oh    137    ccc    O12   4009 -0.59472000  16.000000   ; qtot 0.230118
 4010         ho    137    ccc    H37   4010 0.41908000   1.008000   ; qtot 0.649198
 4011         os    137    ccc    O13   4011 -0.44552000  16.000000   ; qtot 0.203678
 4012         ho    137    ccc    H38   4012 0.41908000   1.008000   ; qtot 0.622758
 4013         h1    137    ccc    H39   4013 0.08578000   1.008000   ; qtot 0.708538
 4014         oh    137    ccc     O5   4014 -0.58672000  16.000000   ; qtot 0.121818
 4015         ho    137    ccc    H40   4015 0.41908000   1.008000   ; qtot 0.540898
 4016         n3    137    ccc     N4   4016 -0.54282000  14.010000   ; qtot -0.001922
; residue  138 ccc rtp ccc q -0.0
 4017          n    138    ccc     N1   4017 -0.46580000  14.010000   ; qtot -0.467722
 4018         hn    138    ccc     H4   4018 0.31480000   1.008000   ; qtot -0.152922
 4019         c3    138    ccc     C3   4019 -0.28250000  12.010000   ; qtot -0.435422
 4020         h1    138    ccc     H5   4020 0.15710000   1.008000   ; qtot -0.278322
 4021         c3    138    ccc     C4   4021 0.44180000  12.010000   ; qtot 0.163478
 4022         h1    138    ccc     H6   4022 0.15710000   1.008000   ; qtot 0.320578
 4023         h1    138    ccc     H7   4023 -0.03530000   1.008000   ; qtot 0.285278
 4024         h1    138    ccc     H8   4024 -0.03530000   1.008000   ; qtot 0.249978
 4025         n3    138    ccc     N2   4025 -0.74090000  14.010000   ; qtot -0.490922
 4026         c3    138    ccc     C5   4026 0.51680000  12.010000   ; qtot 0.025878
 4027         c3    138    ccc     C6   4027 0.51680000  12.010000   ; qtot 0.542678
 4028         h1    138    ccc     H9   4028 -0.05230000   1.008000   ; qtot 0.490378
 4029         c3    138    ccc     C7   4029 -0.60390000  12.010000   ; qtot -0.113522
 4030         h1    138    ccc    H10   4030 -0.05230000   1.008000   ; qtot -0.165822
 4031         hc    138    ccc    H11   4031 0.16730000   1.008000   ; qtot 0.001478
 4032         hc    138    ccc    H12   4032 0.16730000   1.008000   ; qtot 0.168778
 4033          c    138    ccc     C8   4033 0.72110000  12.010000   ; qtot 0.889878
 4034          o    138    ccc     O2   4034 -0.61950000  16.000000   ; qtot 0.270378
 4035         h1    138    ccc    H13   4035 -0.05230000   1.008000   ; qtot 0.218078
 4036         h1    138    ccc    H14   4036 -0.05230000   1.008000   ; qtot 0.165778
 4037         c3    138    ccc     C9   4037 -0.60390000  12.010000   ; qtot -0.438122
 4038         hc    138    ccc    H15   4038 0.16730000   1.008000   ; qtot -0.270822
 4039         hc    138    ccc    H16   4039 0.16730000   1.008000   ; qtot -0.103522
 4040          c    138    ccc    C10   4040 0.72110000  12.010000   ; qtot 0.617578
 4041          o    138    ccc     O4   4041 -0.61950000  16.000000   ; qtot -0.001922
 4042         c3    138    ccc    C11   4042 0.08518000  12.010000   ; qtot 0.083258
 4043         c3    138    ccc    C12   4043 0.07918000  12.010000   ; qtot 0.162438
 4044         h1    138    ccc    H17   4044 0.06978000   1.008000   ; qtot 0.232218
 4045         c3    138    ccc    C13   4045 0.07918000  12.010000   ; qtot 0.311398
 4046         c3    138    ccc    C14   4046 0.03578000  12.010000   ; qtot 0.347178
 4047         c3    138    ccc    C15   4047 0.33498000  12.010000   ; qtot 0.682158
 4048         h1    138    ccc    H18   4048 0.06178000   1.008000   ; qtot 0.743938
 4049         h1    138    ccc    H19   4049 0.11278000   1.008000   ; qtot 0.856718
 4050         h2    138    ccc    H20   4050 0.12178000   1.008000   ; qtot 0.978498
 4051         oh    138    ccc     O1   4051 -0.56972000  16.000000   ; qtot 0.408778
 4052         oh    138    ccc     O6   4052 -0.57772000  16.000000   ; qtot -0.168942
 4053         c3    138    ccc    C16   4053 0.14548000  12.010000   ; qtot -0.023462
 4054         ho    138    ccc    H21   4054 0.40508000   1.008000   ; qtot 0.381618
 4055         hn    138    ccc    H22   4055 0.31758000   1.008000   ; qtot 0.699198
 4056         h1    138    ccc    H23   4056 0.06278000   1.008000   ; qtot 0.761978
 4057         h1    138    ccc    H24   4057 0.06278000   1.008000   ; qtot 0.824758
 4058         oh    138    ccc     O7   4058 -0.59472000  16.000000   ; qtot 0.230038
 4059         ho    138    ccc    H25   4059 0.41908000   1.008000   ; qtot 0.649118
 4060         os    138    ccc     O8   4060 -0.44552000  16.000000   ; qtot 0.203598
 4061         ho    138    ccc    H26   4061 0.41908000   1.008000   ; qtot 0.622678
 4062         h1    138    ccc    H27   4062 0.08578000   1.008000   ; qtot 0.708458
 4063         oh    138    ccc     O9   4063 -0.58672000  16.000000   ; qtot 0.121738
 4064         ho    138    ccc    H28   4064 0.41908000   1.008000   ; qtot 0.540818
 4065         n3    138    ccc     N3   4065 -0.54282000  14.010000   ; qtot -0.002002
 4066         c3    138    ccc    C17   4066 0.08518000  12.010000   ; qtot 0.083178
 4067         c3    138    ccc    C18   4067 0.07918000  12.010000   ; qtot 0.162358
 4068         h1    138    ccc    H29   4068 0.06978000   1.008000   ; qtot 0.232138
 4069         c3    138    ccc    C19   4069 0.07918000  12.010000   ; qtot 0.311318
 4070         c3    138    ccc    C20   4070 0.03578000  12.010000   ; qtot 0.347098
 4071         c3    138    ccc    C21   4071 0.33498000  12.010000   ; qtot 0.682078
 4072         h1    138    ccc    H30   4072 0.06178000   1.008000   ; qtot 0.743858
 4073         h1    138    ccc    H31   4073 0.11278000   1.008000   ; qtot 0.856638
 4074         h2    138    ccc    H32   4074 0.12178000   1.008000   ; qtot 0.978418
 4075         oh    138    ccc    O10   4075 -0.56972000  16.000000   ; qtot 0.408698
 4076         oh    138    ccc    O11   4076 -0.57772000  16.000000   ; qtot -0.169022
 4077         c3    138    ccc    C22   4077 0.14548000  12.010000   ; qtot -0.023542
 4078         ho    138    ccc    H33   4078 0.40508000   1.008000   ; qtot 0.381538
 4079         hn    138    ccc    H34   4079 0.31758000   1.008000   ; qtot 0.699118
 4080         h1    138    ccc    H35   4080 0.06278000   1.008000   ; qtot 0.761898
 4081         h1    138    ccc    H36   4081 0.06278000   1.008000   ; qtot 0.824678
 4082         oh    138    ccc    O12   4082 -0.59472000  16.000000   ; qtot 0.229958
 4083         ho    138    ccc    H37   4083 0.41908000   1.008000   ; qtot 0.649038
 4084         os    138    ccc    O13   4084 -0.44552000  16.000000   ; qtot 0.203518
 4085         ho    138    ccc    H38   4085 0.41908000   1.008000   ; qtot 0.622598
 4086         h1    138    ccc    H39   4086 0.08578000   1.008000   ; qtot 0.708378
 4087         oh    138    ccc     O5   4087 -0.58672000  16.000000   ; qtot 0.121658
 4088         ho    138    ccc    H40   4088 0.41908000   1.008000   ; qtot 0.540738
 4089         n3    138    ccc     N4   4089 -0.54282000  14.010000   ; qtot -0.002082
; residue  139 ccc rtp ccc q -0.0
 4090          n    139    ccc     N1   4090 -0.46580000  14.010000   ; qtot -0.467882
 4091         hn    139    ccc     H4   4091 0.31480000   1.008000   ; qtot -0.153082
 4092         c3    139    ccc     C3   4092 -0.28250000  12.010000   ; qtot -0.435582
 4093         h1    139    ccc     H5   4093 0.15710000   1.008000   ; qtot -0.278482
 4094         c3    139    ccc     C4   4094 0.44180000  12.010000   ; qtot 0.163318
 4095         h1    139    ccc     H6   4095 0.15710000   1.008000   ; qtot 0.320418
 4096         h1    139    ccc     H7   4096 -0.03530000   1.008000   ; qtot 0.285118
 4097         h1    139    ccc     H8   4097 -0.03530000   1.008000   ; qtot 0.249818
 4098         n3    139    ccc     N2   4098 -0.74090000  14.010000   ; qtot -0.491082
 4099         c3    139    ccc     C5   4099 0.51680000  12.010000   ; qtot 0.025718
 4100         c3    139    ccc     C6   4100 0.51680000  12.010000   ; qtot 0.542518
 4101         h1    139    ccc     H9   4101 -0.05230000   1.008000   ; qtot 0.490218
 4102         c3    139    ccc     C7   4102 -0.60390000  12.010000   ; qtot -0.113682
 4103         h1    139    ccc    H10   4103 -0.05230000   1.008000   ; qtot -0.165982
 4104         hc    139    ccc    H11   4104 0.16730000   1.008000   ; qtot 0.001318
 4105         hc    139    ccc    H12   4105 0.16730000   1.008000   ; qtot 0.168618
 4106          c    139    ccc     C8   4106 0.72110000  12.010000   ; qtot 0.889718
 4107          o    139    ccc     O2   4107 -0.61950000  16.000000   ; qtot 0.270218
 4108         h1    139    ccc    H13   4108 -0.05230000   1.008000   ; qtot 0.217918
 4109         h1    139    ccc    H14   4109 -0.05230000   1.008000   ; qtot 0.165618
 4110         c3    139    ccc     C9   4110 -0.60390000  12.010000   ; qtot -0.438282
 4111         hc    139    ccc    H15   4111 0.16730000   1.008000   ; qtot -0.270982
 4112         hc    139    ccc    H16   4112 0.16730000   1.008000   ; qtot -0.103682
 4113          c    139    ccc    C10   4113 0.72110000  12.010000   ; qtot 0.617418
 4114          o    139    ccc     O4   4114 -0.61950000  16.000000   ; qtot -0.002082
 4115         c3    139    ccc    C11   4115 0.08518000  12.010000   ; qtot 0.083098
 4116         c3    139    ccc    C12   4116 0.07918000  12.010000   ; qtot 0.162278
 4117         h1    139    ccc    H17   4117 0.06978000   1.008000   ; qtot 0.232058
 4118         c3    139    ccc    C13   4118 0.07918000  12.010000   ; qtot 0.311238
 4119         c3    139    ccc    C14   4119 0.03578000  12.010000   ; qtot 0.347018
 4120         c3    139    ccc    C15   4120 0.33498000  12.010000   ; qtot 0.681998
 4121         h1    139    ccc    H18   4121 0.06178000   1.008000   ; qtot 0.743778
 4122         h1    139    ccc    H19   4122 0.11278000   1.008000   ; qtot 0.856558
 4123         h2    139    ccc    H20   4123 0.12178000   1.008000   ; qtot 0.978338
 4124         oh    139    ccc     O1   4124 -0.56972000  16.000000   ; qtot 0.408618
 4125         oh    139    ccc     O6   4125 -0.57772000  16.000000   ; qtot -0.169102
 4126         c3    139    ccc    C16   4126 0.14548000  12.010000   ; qtot -0.023622
 4127         ho    139    ccc    H21   4127 0.40508000   1.008000   ; qtot 0.381458
 4128         hn    139    ccc    H22   4128 0.31758000   1.008000   ; qtot 0.699038
 4129         h1    139    ccc    H23   4129 0.06278000   1.008000   ; qtot 0.761818
 4130         h1    139    ccc    H24   4130 0.06278000   1.008000   ; qtot 0.824598
 4131         oh    139    ccc     O7   4131 -0.59472000  16.000000   ; qtot 0.229878
 4132         ho    139    ccc    H25   4132 0.41908000   1.008000   ; qtot 0.648958
 4133         os    139    ccc     O8   4133 -0.44552000  16.000000   ; qtot 0.203438
 4134         ho    139    ccc    H26   4134 0.41908000   1.008000   ; qtot 0.622518
 4135         h1    139    ccc    H27   4135 0.08578000   1.008000   ; qtot 0.708298
 4136         oh    139    ccc     O9   4136 -0.58672000  16.000000   ; qtot 0.121578
 4137         ho    139    ccc    H28   4137 0.41908000   1.008000   ; qtot 0.540658
 4138         n3    139    ccc     N3   4138 -0.54282000  14.010000   ; qtot -0.002162
 4139         c3    139    ccc    C17   4139 0.08518000  12.010000   ; qtot 0.083018
 4140         c3    139    ccc    C18   4140 0.07918000  12.010000   ; qtot 0.162198
 4141         h1    139    ccc    H29   4141 0.06978000   1.008000   ; qtot 0.231978
 4142         c3    139    ccc    C19   4142 0.07918000  12.010000   ; qtot 0.311158
 4143         c3    139    ccc    C20   4143 0.03578000  12.010000   ; qtot 0.346938
 4144         c3    139    ccc    C21   4144 0.33498000  12.010000   ; qtot 0.681918
 4145         h1    139    ccc    H30   4145 0.06178000   1.008000   ; qtot 0.743698
 4146         h1    139    ccc    H31   4146 0.11278000   1.008000   ; qtot 0.856478
 4147         h2    139    ccc    H32   4147 0.12178000   1.008000   ; qtot 0.978258
 4148         oh    139    ccc    O10   4148 -0.56972000  16.000000   ; qtot 0.408538
 4149         oh    139    ccc    O11   4149 -0.57772000  16.000000   ; qtot -0.169182
 4150         c3    139    ccc    C22   4150 0.14548000  12.010000   ; qtot -0.023702
 4151         ho    139    ccc    H33   4151 0.40508000   1.008000   ; qtot 0.381378
 4152         hn    139    ccc    H34   4152 0.31758000   1.008000   ; qtot 0.698958
 4153         h1    139    ccc    H35   4153 0.06278000   1.008000   ; qtot 0.761738
 4154         h1    139    ccc    H36   4154 0.06278000   1.008000   ; qtot 0.824518
 4155         oh    139    ccc    O12   4155 -0.59472000  16.000000   ; qtot 0.229798
 4156         ho    139    ccc    H37   4156 0.41908000   1.008000   ; qtot 0.648878
 4157         os    139    ccc    O13   4157 -0.44552000  16.000000   ; qtot 0.203358
 4158         ho    139    ccc    H38   4158 0.41908000   1.008000   ; qtot 0.622438
 4159         h1    139    ccc    H39   4159 0.08578000   1.008000   ; qtot 0.708218
 4160         oh    139    ccc     O5   4160 -0.58672000  16.000000   ; qtot 0.121498
 4161         ho    139    ccc    H40   4161 0.41908000   1.008000   ; qtot 0.540578
 4162         n3    139    ccc     N4   4162 -0.54282000  14.010000   ; qtot -0.002242
; residue  140 ccc rtp ccc q -0.0
 4163          n    140    ccc     N1   4163 -0.46580000  14.010000   ; qtot -0.468042
 4164         hn    140    ccc     H4   4164 0.31480000   1.008000   ; qtot -0.153242
 4165         c3    140    ccc     C3   4165 -0.28250000  12.010000   ; qtot -0.435742
 4166         h1    140    ccc     H5   4166 0.15710000   1.008000   ; qtot -0.278642
 4167         c3    140    ccc     C4   4167 0.44180000  12.010000   ; qtot 0.163158
 4168         h1    140    ccc     H6   4168 0.15710000   1.008000   ; qtot 0.320258
 4169         h1    140    ccc     H7   4169 -0.03530000   1.008000   ; qtot 0.284958
 4170         h1    140    ccc     H8   4170 -0.03530000   1.008000   ; qtot 0.249658
 4171         n3    140    ccc     N2   4171 -0.74090000  14.010000   ; qtot -0.491242
 4172         c3    140    ccc     C5   4172 0.51680000  12.010000   ; qtot 0.025558
 4173         c3    140    ccc     C6   4173 0.51680000  12.010000   ; qtot 0.542358
 4174         h1    140    ccc     H9   4174 -0.05230000   1.008000   ; qtot 0.490058
 4175         c3    140    ccc     C7   4175 -0.60390000  12.010000   ; qtot -0.113842
 4176         h1    140    ccc    H10   4176 -0.05230000   1.008000   ; qtot -0.166142
 4177         hc    140    ccc    H11   4177 0.16730000   1.008000   ; qtot 0.001158
 4178         hc    140    ccc    H12   4178 0.16730000   1.008000   ; qtot 0.168458
 4179          c    140    ccc     C8   4179 0.72110000  12.010000   ; qtot 0.889558
 4180          o    140    ccc     O2   4180 -0.61950000  16.000000   ; qtot 0.270058
 4181         h1    140    ccc    H13   4181 -0.05230000   1.008000   ; qtot 0.217758
 4182         h1    140    ccc    H14   4182 -0.05230000   1.008000   ; qtot 0.165458
 4183         c3    140    ccc     C9   4183 -0.60390000  12.010000   ; qtot -0.438442
 4184         hc    140    ccc    H15   4184 0.16730000   1.008000   ; qtot -0.271142
 4185         hc    140    ccc    H16   4185 0.16730000   1.008000   ; qtot -0.103842
 4186          c    140    ccc    C10   4186 0.72110000  12.010000   ; qtot 0.617258
 4187          o    140    ccc     O4   4187 -0.61950000  16.000000   ; qtot -0.002242
 4188         c3    140    ccc    C11   4188 0.08518000  12.010000   ; qtot 0.082938
 4189         c3    140    ccc    C12   4189 0.07918000  12.010000   ; qtot 0.162118
 4190         h1    140    ccc    H17   4190 0.06978000   1.008000   ; qtot 0.231898
 4191         c3    140    ccc    C13   4191 0.07918000  12.010000   ; qtot 0.311078
 4192         c3    140    ccc    C14   4192 0.03578000  12.010000   ; qtot 0.346858
 4193         c3    140    ccc    C15   4193 0.33498000  12.010000   ; qtot 0.681838
 4194         h1    140    ccc    H18   4194 0.06178000   1.008000   ; qtot 0.743618
 4195         h1    140    ccc    H19   4195 0.11278000   1.008000   ; qtot 0.856398
 4196         h2    140    ccc    H20   4196 0.12178000   1.008000   ; qtot 0.978178
 4197         oh    140    ccc     O1   4197 -0.56972000  16.000000   ; qtot 0.408458
 4198         oh    140    ccc     O6   4198 -0.57772000  16.000000   ; qtot -0.169262
 4199         c3    140    ccc    C16   4199 0.14548000  12.010000   ; qtot -0.023782
 4200         ho    140    ccc    H21   4200 0.40508000   1.008000   ; qtot 0.381298
 4201         hn    140    ccc    H22   4201 0.31758000   1.008000   ; qtot 0.698878
 4202         h1    140    ccc    H23   4202 0.06278000   1.008000   ; qtot 0.761658
 4203         h1    140    ccc    H24   4203 0.06278000   1.008000   ; qtot 0.824438
 4204         oh    140    ccc     O7   4204 -0.59472000  16.000000   ; qtot 0.229718
 4205         ho    140    ccc    H25   4205 0.41908000   1.008000   ; qtot 0.648798
 4206         os    140    ccc     O8   4206 -0.44552000  16.000000   ; qtot 0.203278
 4207         ho    140    ccc    H26   4207 0.41908000   1.008000   ; qtot 0.622358
 4208         h1    140    ccc    H27   4208 0.08578000   1.008000   ; qtot 0.708138
 4209         oh    140    ccc     O9   4209 -0.58672000  16.000000   ; qtot 0.121418
 4210         ho    140    ccc    H28   4210 0.41908000   1.008000   ; qtot 0.540498
 4211         n3    140    ccc     N3   4211 -0.54282000  14.010000   ; qtot -0.002322
 4212         c3    140    ccc    C17   4212 0.08518000  12.010000   ; qtot 0.082858
 4213         c3    140    ccc    C18   4213 0.07918000  12.010000   ; qtot 0.162038
 4214         h1    140    ccc    H29   4214 0.06978000   1.008000   ; qtot 0.231818
 4215         c3    140    ccc    C19   4215 0.07918000  12.010000   ; qtot 0.310998
 4216         c3    140    ccc    C20   4216 0.03578000  12.010000   ; qtot 0.346778
 4217         c3    140    ccc    C21   4217 0.33498000  12.010000   ; qtot 0.681758
 4218         h1    140    ccc    H30   4218 0.06178000   1.008000   ; qtot 0.743538
 4219         h1    140    ccc    H31   4219 0.11278000   1.008000   ; qtot 0.856318
 4220         h2    140    ccc    H32   4220 0.12178000   1.008000   ; qtot 0.978098
 4221         oh    140    ccc    O10   4221 -0.56972000  16.000000   ; qtot 0.408378
 4222         oh    140    ccc    O11   4222 -0.57772000  16.000000   ; qtot -0.169342
 4223         c3    140    ccc    C22   4223 0.14548000  12.010000   ; qtot -0.023862
 4224         ho    140    ccc    H33   4224 0.40508000   1.008000   ; qtot 0.381218
 4225         hn    140    ccc    H34   4225 0.31758000   1.008000   ; qtot 0.698798
 4226         h1    140    ccc    H35   4226 0.06278000   1.008000   ; qtot 0.761578
 4227         h1    140    ccc    H36   4227 0.06278000   1.008000   ; qtot 0.824358
 4228         oh    140    ccc    O12   4228 -0.59472000  16.000000   ; qtot 0.229638
 4229         ho    140    ccc    H37   4229 0.41908000   1.008000   ; qtot 0.648718
 4230         os    140    ccc    O13   4230 -0.44552000  16.000000   ; qtot 0.203198
 4231         ho    140    ccc    H38   4231 0.41908000   1.008000   ; qtot 0.622278
 4232         h1    140    ccc    H39   4232 0.08578000   1.008000   ; qtot 0.708058
 4233         oh    140    ccc     O5   4233 -0.58672000  16.000000   ; qtot 0.121338
 4234         ho    140    ccc    H40   4234 0.41908000   1.008000   ; qtot 0.540418
 4235         n3    140    ccc     N4   4235 -0.54282000  14.010000   ; qtot -0.002402
; residue  141 ccc rtp ccc q -0.0
 4236          n    141    ccc     N1   4236 -0.46580000  14.010000   ; qtot -0.468202
 4237         hn    141    ccc     H4   4237 0.31480000   1.008000   ; qtot -0.153402
 4238         c3    141    ccc     C3   4238 -0.28250000  12.010000   ; qtot -0.435902
 4239         h1    141    ccc     H5   4239 0.15710000   1.008000   ; qtot -0.278802
 4240         c3    141    ccc     C4   4240 0.44180000  12.010000   ; qtot 0.162998
 4241         h1    141    ccc     H6   4241 0.15710000   1.008000   ; qtot 0.320098
 4242         h1    141    ccc     H7   4242 -0.03530000   1.008000   ; qtot 0.284798
 4243         h1    141    ccc     H8   4243 -0.03530000   1.008000   ; qtot 0.249498
 4244         n3    141    ccc     N2   4244 -0.74090000  14.010000   ; qtot -0.491402
 4245         c3    141    ccc     C5   4245 0.51680000  12.010000   ; qtot 0.025398
 4246         c3    141    ccc     C6   4246 0.51680000  12.010000   ; qtot 0.542198
 4247         h1    141    ccc     H9   4247 -0.05230000   1.008000   ; qtot 0.489898
 4248         c3    141    ccc     C7   4248 -0.60390000  12.010000   ; qtot -0.114002
 4249         h1    141    ccc    H10   4249 -0.05230000   1.008000   ; qtot -0.166302
 4250         hc    141    ccc    H11   4250 0.16730000   1.008000   ; qtot 0.000998
 4251         hc    141    ccc    H12   4251 0.16730000   1.008000   ; qtot 0.168298
 4252          c    141    ccc     C8   4252 0.72110000  12.010000   ; qtot 0.889398
 4253          o    141    ccc     O2   4253 -0.61950000  16.000000   ; qtot 0.269898
 4254         h1    141    ccc    H13   4254 -0.05230000   1.008000   ; qtot 0.217598
 4255         h1    141    ccc    H14   4255 -0.05230000   1.008000   ; qtot 0.165298
 4256         c3    141    ccc     C9   4256 -0.60390000  12.010000   ; qtot -0.438602
 4257         hc    141    ccc    H15   4257 0.16730000   1.008000   ; qtot -0.271302
 4258         hc    141    ccc    H16   4258 0.16730000   1.008000   ; qtot -0.104002
 4259          c    141    ccc    C10   4259 0.72110000  12.010000   ; qtot 0.617098
 4260          o    141    ccc     O4   4260 -0.61950000  16.000000   ; qtot -0.002402
 4261         c3    141    ccc    C11   4261 0.08518000  12.010000   ; qtot 0.082778
 4262         c3    141    ccc    C12   4262 0.07918000  12.010000   ; qtot 0.161958
 4263         h1    141    ccc    H17   4263 0.06978000   1.008000   ; qtot 0.231738
 4264         c3    141    ccc    C13   4264 0.07918000  12.010000   ; qtot 0.310918
 4265         c3    141    ccc    C14   4265 0.03578000  12.010000   ; qtot 0.346698
 4266         c3    141    ccc    C15   4266 0.33498000  12.010000   ; qtot 0.681678
 4267         h1    141    ccc    H18   4267 0.06178000   1.008000   ; qtot 0.743458
 4268         h1    141    ccc    H19   4268 0.11278000   1.008000   ; qtot 0.856238
 4269         h2    141    ccc    H20   4269 0.12178000   1.008000   ; qtot 0.978018
 4270         oh    141    ccc     O1   4270 -0.56972000  16.000000   ; qtot 0.408298
 4271         oh    141    ccc     O6   4271 -0.57772000  16.000000   ; qtot -0.169422
 4272         c3    141    ccc    C16   4272 0.14548000  12.010000   ; qtot -0.023942
 4273         ho    141    ccc    H21   4273 0.40508000   1.008000   ; qtot 0.381138
 4274         hn    141    ccc    H22   4274 0.31758000   1.008000   ; qtot 0.698718
 4275         h1    141    ccc    H23   4275 0.06278000   1.008000   ; qtot 0.761498
 4276         h1    141    ccc    H24   4276 0.06278000   1.008000   ; qtot 0.824278
 4277         oh    141    ccc     O7   4277 -0.59472000  16.000000   ; qtot 0.229558
 4278         ho    141    ccc    H25   4278 0.41908000   1.008000   ; qtot 0.648638
 4279         os    141    ccc     O8   4279 -0.44552000  16.000000   ; qtot 0.203118
 4280         ho    141    ccc    H26   4280 0.41908000   1.008000   ; qtot 0.622198
 4281         h1    141    ccc    H27   4281 0.08578000   1.008000   ; qtot 0.707978
 4282         oh    141    ccc     O9   4282 -0.58672000  16.000000   ; qtot 0.121258
 4283         ho    141    ccc    H28   4283 0.41908000   1.008000   ; qtot 0.540338
 4284         n3    141    ccc     N3   4284 -0.54282000  14.010000   ; qtot -0.002482
 4285         c3    141    ccc    C17   4285 0.08518000  12.010000   ; qtot 0.082698
 4286         c3    141    ccc    C18   4286 0.07918000  12.010000   ; qtot 0.161878
 4287         h1    141    ccc    H29   4287 0.06978000   1.008000   ; qtot 0.231658
 4288         c3    141    ccc    C19   4288 0.07918000  12.010000   ; qtot 0.310838
 4289         c3    141    ccc    C20   4289 0.03578000  12.010000   ; qtot 0.346618
 4290         c3    141    ccc    C21   4290 0.33498000  12.010000   ; qtot 0.681598
 4291         h1    141    ccc    H30   4291 0.06178000   1.008000   ; qtot 0.743378
 4292         h1    141    ccc    H31   4292 0.11278000   1.008000   ; qtot 0.856158
 4293         h2    141    ccc    H32   4293 0.12178000   1.008000   ; qtot 0.977938
 4294         oh    141    ccc    O10   4294 -0.56972000  16.000000   ; qtot 0.408218
 4295         oh    141    ccc    O11   4295 -0.57772000  16.000000   ; qtot -0.169502
 4296         c3    141    ccc    C22   4296 0.14548000  12.010000   ; qtot -0.024022
 4297         ho    141    ccc    H33   4297 0.40508000   1.008000   ; qtot 0.381058
 4298         hn    141    ccc    H34   4298 0.31758000   1.008000   ; qtot 0.698638
 4299         h1    141    ccc    H35   4299 0.06278000   1.008000   ; qtot 0.761418
 4300         h1    141    ccc    H36   4300 0.06278000   1.008000   ; qtot 0.824198
 4301         oh    141    ccc    O12   4301 -0.59472000  16.000000   ; qtot 0.229478
 4302         ho    141    ccc    H37   4302 0.41908000   1.008000   ; qtot 0.648558
 4303         os    141    ccc    O13   4303 -0.44552000  16.000000   ; qtot 0.203038
 4304         ho    141    ccc    H38   4304 0.41908000   1.008000   ; qtot 0.622118
 4305         h1    141    ccc    H39   4305 0.08578000   1.008000   ; qtot 0.707898
 4306         oh    141    ccc     O5   4306 -0.58672000  16.000000   ; qtot 0.121178
 4307         ho    141    ccc    H40   4307 0.41908000   1.008000   ; qtot 0.540258
 4308         n3    141    ccc     N4   4308 -0.54282000  14.010000   ; qtot -0.002562
; residue  142 ccc rtp ccc q -0.0
 4309          n    142    ccc     N1   4309 -0.46580000  14.010000   ; qtot -0.468362
 4310         hn    142    ccc     H4   4310 0.31480000   1.008000   ; qtot -0.153562
 4311         c3    142    ccc     C3   4311 -0.28250000  12.010000   ; qtot -0.436062
 4312         h1    142    ccc     H5   4312 0.15710000   1.008000   ; qtot -0.278962
 4313         c3    142    ccc     C4   4313 0.44180000  12.010000   ; qtot 0.162838
 4314         h1    142    ccc     H6   4314 0.15710000   1.008000   ; qtot 0.319938
 4315         h1    142    ccc     H7   4315 -0.03530000   1.008000   ; qtot 0.284638
 4316         h1    142    ccc     H8   4316 -0.03530000   1.008000   ; qtot 0.249338
 4317         n3    142    ccc     N2   4317 -0.74090000  14.010000   ; qtot -0.491562
 4318         c3    142    ccc     C5   4318 0.51680000  12.010000   ; qtot 0.025238
 4319         c3    142    ccc     C6   4319 0.51680000  12.010000   ; qtot 0.542038
 4320         h1    142    ccc     H9   4320 -0.05230000   1.008000   ; qtot 0.489738
 4321         c3    142    ccc     C7   4321 -0.60390000  12.010000   ; qtot -0.114162
 4322         h1    142    ccc    H10   4322 -0.05230000   1.008000   ; qtot -0.166462
 4323         hc    142    ccc    H11   4323 0.16730000   1.008000   ; qtot 0.000838
 4324         hc    142    ccc    H12   4324 0.16730000   1.008000   ; qtot 0.168138
 4325          c    142    ccc     C8   4325 0.72110000  12.010000   ; qtot 0.889238
 4326          o    142    ccc     O2   4326 -0.61950000  16.000000   ; qtot 0.269738
 4327         h1    142    ccc    H13   4327 -0.05230000   1.008000   ; qtot 0.217438
 4328         h1    142    ccc    H14   4328 -0.05230000   1.008000   ; qtot 0.165138
 4329         c3    142    ccc     C9   4329 -0.60390000  12.010000   ; qtot -0.438762
 4330         hc    142    ccc    H15   4330 0.16730000   1.008000   ; qtot -0.271462
 4331         hc    142    ccc    H16   4331 0.16730000   1.008000   ; qtot -0.104162
 4332          c    142    ccc    C10   4332 0.72110000  12.010000   ; qtot 0.616938
 4333          o    142    ccc     O4   4333 -0.61950000  16.000000   ; qtot -0.002562
 4334         c3    142    ccc    C11   4334 0.08518000  12.010000   ; qtot 0.082618
 4335         c3    142    ccc    C12   4335 0.07918000  12.010000   ; qtot 0.161798
 4336         h1    142    ccc    H17   4336 0.06978000   1.008000   ; qtot 0.231578
 4337         c3    142    ccc    C13   4337 0.07918000  12.010000   ; qtot 0.310758
 4338         c3    142    ccc    C14   4338 0.03578000  12.010000   ; qtot 0.346538
 4339         c3    142    ccc    C15   4339 0.33498000  12.010000   ; qtot 0.681518
 4340         h1    142    ccc    H18   4340 0.06178000   1.008000   ; qtot 0.743298
 4341         h1    142    ccc    H19   4341 0.11278000   1.008000   ; qtot 0.856078
 4342         h2    142    ccc    H20   4342 0.12178000   1.008000   ; qtot 0.977858
 4343         oh    142    ccc     O1   4343 -0.56972000  16.000000   ; qtot 0.408138
 4344         oh    142    ccc     O6   4344 -0.57772000  16.000000   ; qtot -0.169582
 4345         c3    142    ccc    C16   4345 0.14548000  12.010000   ; qtot -0.024102
 4346         ho    142    ccc    H21   4346 0.40508000   1.008000   ; qtot 0.380978
 4347         hn    142    ccc    H22   4347 0.31758000   1.008000   ; qtot 0.698558
 4348         h1    142    ccc    H23   4348 0.06278000   1.008000   ; qtot 0.761338
 4349         h1    142    ccc    H24   4349 0.06278000   1.008000   ; qtot 0.824118
 4350         oh    142    ccc     O7   4350 -0.59472000  16.000000   ; qtot 0.229398
 4351         ho    142    ccc    H25   4351 0.41908000   1.008000   ; qtot 0.648478
 4352         os    142    ccc     O8   4352 -0.44552000  16.000000   ; qtot 0.202958
 4353         ho    142    ccc    H26   4353 0.41908000   1.008000   ; qtot 0.622038
 4354         h1    142    ccc    H27   4354 0.08578000   1.008000   ; qtot 0.707818
 4355         oh    142    ccc     O9   4355 -0.58672000  16.000000   ; qtot 0.121098
 4356         ho    142    ccc    H28   4356 0.41908000   1.008000   ; qtot 0.540178
 4357         n3    142    ccc     N3   4357 -0.54282000  14.010000   ; qtot -0.002642
 4358         c3    142    ccc    C17   4358 0.08518000  12.010000   ; qtot 0.082538
 4359         c3    142    ccc    C18   4359 0.07918000  12.010000   ; qtot 0.161718
 4360         h1    142    ccc    H29   4360 0.06978000   1.008000   ; qtot 0.231498
 4361         c3    142    ccc    C19   4361 0.07918000  12.010000   ; qtot 0.310678
 4362         c3    142    ccc    C20   4362 0.03578000  12.010000   ; qtot 0.346458
 4363         c3    142    ccc    C21   4363 0.33498000  12.010000   ; qtot 0.681438
 4364         h1    142    ccc    H30   4364 0.06178000   1.008000   ; qtot 0.743218
 4365         h1    142    ccc    H31   4365 0.11278000   1.008000   ; qtot 0.855998
 4366         h2    142    ccc    H32   4366 0.12178000   1.008000   ; qtot 0.977778
 4367         oh    142    ccc    O10   4367 -0.56972000  16.000000   ; qtot 0.408058
 4368         oh    142    ccc    O11   4368 -0.57772000  16.000000   ; qtot -0.169662
 4369         c3    142    ccc    C22   4369 0.14548000  12.010000   ; qtot -0.024182
 4370         ho    142    ccc    H33   4370 0.40508000   1.008000   ; qtot 0.380898
 4371         hn    142    ccc    H34   4371 0.31758000   1.008000   ; qtot 0.698478
 4372         h1    142    ccc    H35   4372 0.06278000   1.008000   ; qtot 0.761258
 4373         h1    142    ccc    H36   4373 0.06278000   1.008000   ; qtot 0.824038
 4374         oh    142    ccc    O12   4374 -0.59472000  16.000000   ; qtot 0.229318
 4375         ho    142    ccc    H37   4375 0.41908000   1.008000   ; qtot 0.648398
 4376         os    142    ccc    O13   4376 -0.44552000  16.000000   ; qtot 0.202878
 4377         ho    142    ccc    H38   4377 0.41908000   1.008000   ; qtot 0.621958
 4378         h1    142    ccc    H39   4378 0.08578000   1.008000   ; qtot 0.707738
 4379         oh    142    ccc     O5   4379 -0.58672000  16.000000   ; qtot 0.121018
 4380         ho    142    ccc    H40   4380 0.41908000   1.008000   ; qtot 0.540098
 4381         n3    142    ccc     N4   4381 -0.54282000  14.010000   ; qtot -0.002722
; residue  143 ccc rtp ccc q -0.0
 4382          n    143    ccc     N1   4382 -0.46580000  14.010000   ; qtot -0.468522
 4383         hn    143    ccc     H4   4383 0.31480000   1.008000   ; qtot -0.153722
 4384         c3    143    ccc     C3   4384 -0.28250000  12.010000   ; qtot -0.436222
 4385         h1    143    ccc     H5   4385 0.15710000   1.008000   ; qtot -0.279122
 4386         c3    143    ccc     C4   4386 0.44180000  12.010000   ; qtot 0.162678
 4387         h1    143    ccc     H6   4387 0.15710000   1.008000   ; qtot 0.319778
 4388         h1    143    ccc     H7   4388 -0.03530000   1.008000   ; qtot 0.284478
 4389         h1    143    ccc     H8   4389 -0.03530000   1.008000   ; qtot 0.249178
 4390         n3    143    ccc     N2   4390 -0.74090000  14.010000   ; qtot -0.491722
 4391         c3    143    ccc     C5   4391 0.51680000  12.010000   ; qtot 0.025078
 4392         c3    143    ccc     C6   4392 0.51680000  12.010000   ; qtot 0.541878
 4393         h1    143    ccc     H9   4393 -0.05230000   1.008000   ; qtot 0.489578
 4394         c3    143    ccc     C7   4394 -0.60390000  12.010000   ; qtot -0.114322
 4395         h1    143    ccc    H10   4395 -0.05230000   1.008000   ; qtot -0.166622
 4396         hc    143    ccc    H11   4396 0.16730000   1.008000   ; qtot 0.000678
 4397         hc    143    ccc    H12   4397 0.16730000   1.008000   ; qtot 0.167978
 4398          c    143    ccc     C8   4398 0.72110000  12.010000   ; qtot 0.889078
 4399          o    143    ccc     O2   4399 -0.61950000  16.000000   ; qtot 0.269578
 4400         h1    143    ccc    H13   4400 -0.05230000   1.008000   ; qtot 0.217278
 4401         h1    143    ccc    H14   4401 -0.05230000   1.008000   ; qtot 0.164978
 4402         c3    143    ccc     C9   4402 -0.60390000  12.010000   ; qtot -0.438922
 4403         hc    143    ccc    H15   4403 0.16730000   1.008000   ; qtot -0.271622
 4404         hc    143    ccc    H16   4404 0.16730000   1.008000   ; qtot -0.104322
 4405          c    143    ccc    C10   4405 0.72110000  12.010000   ; qtot 0.616778
 4406          o    143    ccc     O4   4406 -0.61950000  16.000000   ; qtot -0.002722
 4407         c3    143    ccc    C11   4407 0.08518000  12.010000   ; qtot 0.082458
 4408         c3    143    ccc    C12   4408 0.07918000  12.010000   ; qtot 0.161638
 4409         h1    143    ccc    H17   4409 0.06978000   1.008000   ; qtot 0.231418
 4410         c3    143    ccc    C13   4410 0.07918000  12.010000   ; qtot 0.310598
 4411         c3    143    ccc    C14   4411 0.03578000  12.010000   ; qtot 0.346378
 4412         c3    143    ccc    C15   4412 0.33498000  12.010000   ; qtot 0.681358
 4413         h1    143    ccc    H18   4413 0.06178000   1.008000   ; qtot 0.743138
 4414         h1    143    ccc    H19   4414 0.11278000   1.008000   ; qtot 0.855918
 4415         h2    143    ccc    H20   4415 0.12178000   1.008000   ; qtot 0.977698
 4416         oh    143    ccc     O1   4416 -0.56972000  16.000000   ; qtot 0.407978
 4417         oh    143    ccc     O6   4417 -0.57772000  16.000000   ; qtot -0.169742
 4418         c3    143    ccc    C16   4418 0.14548000  12.010000   ; qtot -0.024262
 4419         ho    143    ccc    H21   4419 0.40508000   1.008000   ; qtot 0.380818
 4420         hn    143    ccc    H22   4420 0.31758000   1.008000   ; qtot 0.698398
 4421         h1    143    ccc    H23   4421 0.06278000   1.008000   ; qtot 0.761178
 4422         h1    143    ccc    H24   4422 0.06278000   1.008000   ; qtot 0.823958
 4423         oh    143    ccc     O7   4423 -0.59472000  16.000000   ; qtot 0.229238
 4424         ho    143    ccc    H25   4424 0.41908000   1.008000   ; qtot 0.648318
 4425         os    143    ccc     O8   4425 -0.44552000  16.000000   ; qtot 0.202798
 4426         ho    143    ccc    H26   4426 0.41908000   1.008000   ; qtot 0.621878
 4427         h1    143    ccc    H27   4427 0.08578000   1.008000   ; qtot 0.707658
 4428         oh    143    ccc     O9   4428 -0.58672000  16.000000   ; qtot 0.120938
 4429         ho    143    ccc    H28   4429 0.41908000   1.008000   ; qtot 0.540018
 4430         n3    143    ccc     N3   4430 -0.54282000  14.010000   ; qtot -0.002802
 4431         c3    143    ccc    C17   4431 0.08518000  12.010000   ; qtot 0.082378
 4432         c3    143    ccc    C18   4432 0.07918000  12.010000   ; qtot 0.161558
 4433         h1    143    ccc    H29   4433 0.06978000   1.008000   ; qtot 0.231338
 4434         c3    143    ccc    C19   4434 0.07918000  12.010000   ; qtot 0.310518
 4435         c3    143    ccc    C20   4435 0.03578000  12.010000   ; qtot 0.346298
 4436         c3    143    ccc    C21   4436 0.33498000  12.010000   ; qtot 0.681278
 4437         h1    143    ccc    H30   4437 0.06178000   1.008000   ; qtot 0.743058
 4438         h1    143    ccc    H31   4438 0.11278000   1.008000   ; qtot 0.855838
 4439         h2    143    ccc    H32   4439 0.12178000   1.008000   ; qtot 0.977618
 4440         oh    143    ccc    O10   4440 -0.56972000  16.000000   ; qtot 0.407898
 4441         oh    143    ccc    O11   4441 -0.57772000  16.000000   ; qtot -0.169822
 4442         c3    143    ccc    C22   4442 0.14548000  12.010000   ; qtot -0.024342
 4443         ho    143    ccc    H33   4443 0.40508000   1.008000   ; qtot 0.380738
 4444         hn    143    ccc    H34   4444 0.31758000   1.008000   ; qtot 0.698318
 4445         h1    143    ccc    H35   4445 0.06278000   1.008000   ; qtot 0.761098
 4446         h1    143    ccc    H36   4446 0.06278000   1.008000   ; qtot 0.823878
 4447         oh    143    ccc    O12   4447 -0.59472000  16.000000   ; qtot 0.229158
 4448         ho    143    ccc    H37   4448 0.41908000   1.008000   ; qtot 0.648238
 4449         os    143    ccc    O13   4449 -0.44552000  16.000000   ; qtot 0.202718
 4450         ho    143    ccc    H38   4450 0.41908000   1.008000   ; qtot 0.621798
 4451         h1    143    ccc    H39   4451 0.08578000   1.008000   ; qtot 0.707578
 4452         oh    143    ccc     O5   4452 -0.58672000  16.000000   ; qtot 0.120858
 4453         ho    143    ccc    H40   4453 0.41908000   1.008000   ; qtot 0.539938
 4454         n3    143    ccc     N4   4454 -0.54282000  14.010000   ; qtot -0.002882
; residue  144 ccc rtp ccc q -0.0
 4455          n    144    ccc     N1   4455 -0.46580000  14.010000   ; qtot -0.468682
 4456         hn    144    ccc     H4   4456 0.31480000   1.008000   ; qtot -0.153882
 4457         c3    144    ccc     C3   4457 -0.28250000  12.010000   ; qtot -0.436382
 4458         h1    144    ccc     H5   4458 0.15710000   1.008000   ; qtot -0.279282
 4459         c3    144    ccc     C4   4459 0.44180000  12.010000   ; qtot 0.162518
 4460         h1    144    ccc     H6   4460 0.15710000   1.008000   ; qtot 0.319618
 4461         h1    144    ccc     H7   4461 -0.03530000   1.008000   ; qtot 0.284318
 4462         h1    144    ccc     H8   4462 -0.03530000   1.008000   ; qtot 0.249018
 4463         n3    144    ccc     N2   4463 -0.74090000  14.010000   ; qtot -0.491882
 4464         c3    144    ccc     C5   4464 0.51680000  12.010000   ; qtot 0.024918
 4465         c3    144    ccc     C6   4465 0.51680000  12.010000   ; qtot 0.541718
 4466         h1    144    ccc     H9   4466 -0.05230000   1.008000   ; qtot 0.489418
 4467         c3    144    ccc     C7   4467 -0.60390000  12.010000   ; qtot -0.114482
 4468         h1    144    ccc    H10   4468 -0.05230000   1.008000   ; qtot -0.166782
 4469         hc    144    ccc    H11   4469 0.16730000   1.008000   ; qtot 0.000518
 4470         hc    144    ccc    H12   4470 0.16730000   1.008000   ; qtot 0.167818
 4471          c    144    ccc     C8   4471 0.72110000  12.010000   ; qtot 0.888918
 4472          o    144    ccc     O2   4472 -0.61950000  16.000000   ; qtot 0.269418
 4473         h1    144    ccc    H13   4473 -0.05230000   1.008000   ; qtot 0.217118
 4474         h1    144    ccc    H14   4474 -0.05230000   1.008000   ; qtot 0.164818
 4475         c3    144    ccc     C9   4475 -0.60390000  12.010000   ; qtot -0.439082
 4476         hc    144    ccc    H15   4476 0.16730000   1.008000   ; qtot -0.271782
 4477         hc    144    ccc    H16   4477 0.16730000   1.008000   ; qtot -0.104482
 4478          c    144    ccc    C10   4478 0.72110000  12.010000   ; qtot 0.616618
 4479          o    144    ccc     O4   4479 -0.61950000  16.000000   ; qtot -0.002882
 4480         c3    144    ccc    C11   4480 0.08518000  12.010000   ; qtot 0.082298
 4481         c3    144    ccc    C12   4481 0.07918000  12.010000   ; qtot 0.161478
 4482         h1    144    ccc    H17   4482 0.06978000   1.008000   ; qtot 0.231258
 4483         c3    144    ccc    C13   4483 0.07918000  12.010000   ; qtot 0.310438
 4484         c3    144    ccc    C14   4484 0.03578000  12.010000   ; qtot 0.346218
 4485         c3    144    ccc    C15   4485 0.33498000  12.010000   ; qtot 0.681198
 4486         h1    144    ccc    H18   4486 0.06178000   1.008000   ; qtot 0.742978
 4487         h1    144    ccc    H19   4487 0.11278000   1.008000   ; qtot 0.855758
 4488         h2    144    ccc    H20   4488 0.12178000   1.008000   ; qtot 0.977538
 4489         oh    144    ccc     O1   4489 -0.56972000  16.000000   ; qtot 0.407818
 4490         oh    144    ccc     O6   4490 -0.57772000  16.000000   ; qtot -0.169902
 4491         c3    144    ccc    C16   4491 0.14548000  12.010000   ; qtot -0.024422
 4492         ho    144    ccc    H21   4492 0.40508000   1.008000   ; qtot 0.380658
 4493         hn    144    ccc    H22   4493 0.31758000   1.008000   ; qtot 0.698238
 4494         h1    144    ccc    H23   4494 0.06278000   1.008000   ; qtot 0.761018
 4495         h1    144    ccc    H24   4495 0.06278000   1.008000   ; qtot 0.823798
 4496         oh    144    ccc     O7   4496 -0.59472000  16.000000   ; qtot 0.229078
 4497         ho    144    ccc    H25   4497 0.41908000   1.008000   ; qtot 0.648158
 4498         os    144    ccc     O8   4498 -0.44552000  16.000000   ; qtot 0.202638
 4499         ho    144    ccc    H26   4499 0.41908000   1.008000   ; qtot 0.621718
 4500         h1    144    ccc    H27   4500 0.08578000   1.008000   ; qtot 0.707498
 4501         oh    144    ccc     O9   4501 -0.58672000  16.000000   ; qtot 0.120778
 4502         ho    144    ccc    H28   4502 0.41908000   1.008000   ; qtot 0.539858
 4503         n3    144    ccc     N3   4503 -0.54282000  14.010000   ; qtot -0.002962
 4504         c3    144    ccc    C17   4504 0.08518000  12.010000   ; qtot 0.082218
 4505         c3    144    ccc    C18   4505 0.07918000  12.010000   ; qtot 0.161398
 4506         h1    144    ccc    H29   4506 0.06978000   1.008000   ; qtot 0.231178
 4507         c3    144    ccc    C19   4507 0.07918000  12.010000   ; qtot 0.310358
 4508         c3    144    ccc    C20   4508 0.03578000  12.010000   ; qtot 0.346138
 4509         c3    144    ccc    C21   4509 0.33498000  12.010000   ; qtot 0.681118
 4510         h1    144    ccc    H30   4510 0.06178000   1.008000   ; qtot 0.742898
 4511         h1    144    ccc    H31   4511 0.11278000   1.008000   ; qtot 0.855678
 4512         h2    144    ccc    H32   4512 0.12178000   1.008000   ; qtot 0.977458
 4513         oh    144    ccc    O10   4513 -0.56972000  16.000000   ; qtot 0.407738
 4514         oh    144    ccc    O11   4514 -0.57772000  16.000000   ; qtot -0.169982
 4515         c3    144    ccc    C22   4515 0.14548000  12.010000   ; qtot -0.024502
 4516         ho    144    ccc    H33   4516 0.40508000   1.008000   ; qtot 0.380578
 4517         hn    144    ccc    H34   4517 0.31758000   1.008000   ; qtot 0.698158
 4518         h1    144    ccc    H35   4518 0.06278000   1.008000   ; qtot 0.760938
 4519         h1    144    ccc    H36   4519 0.06278000   1.008000   ; qtot 0.823718
 4520         oh    144    ccc    O12   4520 -0.59472000  16.000000   ; qtot 0.228998
 4521         ho    144    ccc    H37   4521 0.41908000   1.008000   ; qtot 0.648078
 4522         os    144    ccc    O13   4522 -0.44552000  16.000000   ; qtot 0.202558
 4523         ho    144    ccc    H38   4523 0.41908000   1.008000   ; qtot 0.621638
 4524         h1    144    ccc    H39   4524 0.08578000   1.008000   ; qtot 0.707418
 4525         oh    144    ccc     O5   4525 -0.58672000  16.000000   ; qtot 0.120698
 4526         ho    144    ccc    H40   4526 0.41908000   1.008000   ; qtot 0.539778
 4527         n3    144    ccc     N4   4527 -0.54282000  14.010000   ; qtot -0.003042
; residue  145 ccc rtp ccc q -0.0
 4528          n    145    ccc     N1   4528 -0.46580000  14.010000   ; qtot -0.468842
 4529         hn    145    ccc     H4   4529 0.31480000   1.008000   ; qtot -0.154042
 4530         c3    145    ccc     C3   4530 -0.28250000  12.010000   ; qtot -0.436542
 4531         h1    145    ccc     H5   4531 0.15710000   1.008000   ; qtot -0.279442
 4532         c3    145    ccc     C4   4532 0.44180000  12.010000   ; qtot 0.162358
 4533         h1    145    ccc     H6   4533 0.15710000   1.008000   ; qtot 0.319458
 4534         h1    145    ccc     H7   4534 -0.03530000   1.008000   ; qtot 0.284158
 4535         h1    145    ccc     H8   4535 -0.03530000   1.008000   ; qtot 0.248858
 4536         n3    145    ccc     N2   4536 -0.74090000  14.010000   ; qtot -0.492042
 4537         c3    145    ccc     C5   4537 0.51680000  12.010000   ; qtot 0.024758
 4538         c3    145    ccc     C6   4538 0.51680000  12.010000   ; qtot 0.541558
 4539         h1    145    ccc     H9   4539 -0.05230000   1.008000   ; qtot 0.489258
 4540         c3    145    ccc     C7   4540 -0.60390000  12.010000   ; qtot -0.114642
 4541         h1    145    ccc    H10   4541 -0.05230000   1.008000   ; qtot -0.166942
 4542         hc    145    ccc    H11   4542 0.16730000   1.008000   ; qtot 0.000358
 4543         hc    145    ccc    H12   4543 0.16730000   1.008000   ; qtot 0.167658
 4544          c    145    ccc     C8   4544 0.72110000  12.010000   ; qtot 0.888758
 4545          o    145    ccc     O2   4545 -0.61950000  16.000000   ; qtot 0.269257
 4546         h1    145    ccc    H13   4546 -0.05230000   1.008000   ; qtot 0.216957
 4547         h1    145    ccc    H14   4547 -0.05230000   1.008000   ; qtot 0.164657
 4548         c3    145    ccc     C9   4548 -0.60390000  12.010000   ; qtot -0.439243
 4549         hc    145    ccc    H15   4549 0.16730000   1.008000   ; qtot -0.271943
 4550         hc    145    ccc    H16   4550 0.16730000   1.008000   ; qtot -0.104643
 4551          c    145    ccc    C10   4551 0.72110000  12.010000   ; qtot 0.616457
 4552          o    145    ccc     O4   4552 -0.61950000  16.000000   ; qtot -0.003043
 4553         c3    145    ccc    C11   4553 0.08518000  12.010000   ; qtot 0.082137
 4554         c3    145    ccc    C12   4554 0.07918000  12.010000   ; qtot 0.161317
 4555         h1    145    ccc    H17   4555 0.06978000   1.008000   ; qtot 0.231097
 4556         c3    145    ccc    C13   4556 0.07918000  12.010000   ; qtot 0.310277
 4557         c3    145    ccc    C14   4557 0.03578000  12.010000   ; qtot 0.346057
 4558         c3    145    ccc    C15   4558 0.33498000  12.010000   ; qtot 0.681037
 4559         h1    145    ccc    H18   4559 0.06178000   1.008000   ; qtot 0.742817
 4560         h1    145    ccc    H19   4560 0.11278000   1.008000   ; qtot 0.855597
 4561         h2    145    ccc    H20   4561 0.12178000   1.008000   ; qtot 0.977377
 4562         oh    145    ccc     O1   4562 -0.56972000  16.000000   ; qtot 0.407657
 4563         oh    145    ccc     O6   4563 -0.57772000  16.000000   ; qtot -0.170063
 4564         c3    145    ccc    C16   4564 0.14548000  12.010000   ; qtot -0.024583
 4565         ho    145    ccc    H21   4565 0.40508000   1.008000   ; qtot 0.380497
 4566         hn    145    ccc    H22   4566 0.31758000   1.008000   ; qtot 0.698077
 4567         h1    145    ccc    H23   4567 0.06278000   1.008000   ; qtot 0.760857
 4568         h1    145    ccc    H24   4568 0.06278000   1.008000   ; qtot 0.823637
 4569         oh    145    ccc     O7   4569 -0.59472000  16.000000   ; qtot 0.228917
 4570         ho    145    ccc    H25   4570 0.41908000   1.008000   ; qtot 0.647997
 4571         os    145    ccc     O8   4571 -0.44552000  16.000000   ; qtot 0.202477
 4572         ho    145    ccc    H26   4572 0.41908000   1.008000   ; qtot 0.621557
 4573         h1    145    ccc    H27   4573 0.08578000   1.008000   ; qtot 0.707337
 4574         oh    145    ccc     O9   4574 -0.58672000  16.000000   ; qtot 0.120617
 4575         ho    145    ccc    H28   4575 0.41908000   1.008000   ; qtot 0.539697
 4576         n3    145    ccc     N3   4576 -0.54282000  14.010000   ; qtot -0.003123
 4577         c3    145    ccc    C17   4577 0.08518000  12.010000   ; qtot 0.082057
 4578         c3    145    ccc    C18   4578 0.07918000  12.010000   ; qtot 0.161237
 4579         h1    145    ccc    H29   4579 0.06978000   1.008000   ; qtot 0.231017
 4580         c3    145    ccc    C19   4580 0.07918000  12.010000   ; qtot 0.310197
 4581         c3    145    ccc    C20   4581 0.03578000  12.010000   ; qtot 0.345977
 4582         c3    145    ccc    C21   4582 0.33498000  12.010000   ; qtot 0.680957
 4583         h1    145    ccc    H30   4583 0.06178000   1.008000   ; qtot 0.742737
 4584         h1    145    ccc    H31   4584 0.11278000   1.008000   ; qtot 0.855517
 4585         h2    145    ccc    H32   4585 0.12178000   1.008000   ; qtot 0.977297
 4586         oh    145    ccc    O10   4586 -0.56972000  16.000000   ; qtot 0.407577
 4587         oh    145    ccc    O11   4587 -0.57772000  16.000000   ; qtot -0.170143
 4588         c3    145    ccc    C22   4588 0.14548000  12.010000   ; qtot -0.024663
 4589         ho    145    ccc    H33   4589 0.40508000   1.008000   ; qtot 0.380417
 4590         hn    145    ccc    H34   4590 0.31758000   1.008000   ; qtot 0.697997
 4591         h1    145    ccc    H35   4591 0.06278000   1.008000   ; qtot 0.760777
 4592         h1    145    ccc    H36   4592 0.06278000   1.008000   ; qtot 0.823557
 4593         oh    145    ccc    O12   4593 -0.59472000  16.000000   ; qtot 0.228837
 4594         ho    145    ccc    H37   4594 0.41908000   1.008000   ; qtot 0.647917
 4595         os    145    ccc    O13   4595 -0.44552000  16.000000   ; qtot 0.202397
 4596         ho    145    ccc    H38   4596 0.41908000   1.008000   ; qtot 0.621477
 4597         h1    145    ccc    H39   4597 0.08578000   1.008000   ; qtot 0.707257
 4598         oh    145    ccc     O5   4598 -0.58672000  16.000000   ; qtot 0.120537
 4599         ho    145    ccc    H40   4599 0.41908000   1.008000   ; qtot 0.539617
 4600         n3    145    ccc     N4   4600 -0.54282000  14.010000   ; qtot -0.003203
; residue  146 ccc rtp ccc q -0.0
 4601          n    146    ccc     N1   4601 -0.46580000  14.010000   ; qtot -0.469003
 4602         hn    146    ccc     H4   4602 0.31480000   1.008000   ; qtot -0.154203
 4603         c3    146    ccc     C3   4603 -0.28250000  12.010000   ; qtot -0.436703
 4604         h1    146    ccc     H5   4604 0.15710000   1.008000   ; qtot -0.279603
 4605         c3    146    ccc     C4   4605 0.44180000  12.010000   ; qtot 0.162197
 4606         h1    146    ccc     H6   4606 0.15710000   1.008000   ; qtot 0.319297
 4607         h1    146    ccc     H7   4607 -0.03530000   1.008000   ; qtot 0.283997
 4608         h1    146    ccc     H8   4608 -0.03530000   1.008000   ; qtot 0.248697
 4609         n3    146    ccc     N2   4609 -0.74090000  14.010000   ; qtot -0.492203
 4610         c3    146    ccc     C5   4610 0.51680000  12.010000   ; qtot 0.024597
 4611         c3    146    ccc     C6   4611 0.51680000  12.010000   ; qtot 0.541397
 4612         h1    146    ccc     H9   4612 -0.05230000   1.008000   ; qtot 0.489097
 4613         c3    146    ccc     C7   4613 -0.60390000  12.010000   ; qtot -0.114803
 4614         h1    146    ccc    H10   4614 -0.05230000   1.008000   ; qtot -0.167103
 4615         hc    146    ccc    H11   4615 0.16730000   1.008000   ; qtot 0.000197
 4616         hc    146    ccc    H12   4616 0.16730000   1.008000   ; qtot 0.167497
 4617          c    146    ccc     C8   4617 0.72110000  12.010000   ; qtot 0.888597
 4618          o    146    ccc     O2   4618 -0.61950000  16.000000   ; qtot 0.269097
 4619         h1    146    ccc    H13   4619 -0.05230000   1.008000   ; qtot 0.216797
 4620         h1    146    ccc    H14   4620 -0.05230000   1.008000   ; qtot 0.164497
 4621         c3    146    ccc     C9   4621 -0.60390000  12.010000   ; qtot -0.439403
 4622         hc    146    ccc    H15   4622 0.16730000   1.008000   ; qtot -0.272103
 4623         hc    146    ccc    H16   4623 0.16730000   1.008000   ; qtot -0.104803
 4624          c    146    ccc    C10   4624 0.72110000  12.010000   ; qtot 0.616297
 4625          o    146    ccc     O4   4625 -0.61950000  16.000000   ; qtot -0.003203
 4626         c3    146    ccc    C11   4626 0.08518000  12.010000   ; qtot 0.081977
 4627         c3    146    ccc    C12   4627 0.07918000  12.010000   ; qtot 0.161157
 4628         h1    146    ccc    H17   4628 0.06978000   1.008000   ; qtot 0.230937
 4629         c3    146    ccc    C13   4629 0.07918000  12.010000   ; qtot 0.310117
 4630         c3    146    ccc    C14   4630 0.03578000  12.010000   ; qtot 0.345897
 4631         c3    146    ccc    C15   4631 0.33498000  12.010000   ; qtot 0.680877
 4632         h1    146    ccc    H18   4632 0.06178000   1.008000   ; qtot 0.742657
 4633         h1    146    ccc    H19   4633 0.11278000   1.008000   ; qtot 0.855437
 4634         h2    146    ccc    H20   4634 0.12178000   1.008000   ; qtot 0.977217
 4635         oh    146    ccc     O1   4635 -0.56972000  16.000000   ; qtot 0.407497
 4636         oh    146    ccc     O6   4636 -0.57772000  16.000000   ; qtot -0.170223
 4637         c3    146    ccc    C16   4637 0.14548000  12.010000   ; qtot -0.024743
 4638         ho    146    ccc    H21   4638 0.40508000   1.008000   ; qtot 0.380337
 4639         hn    146    ccc    H22   4639 0.31758000   1.008000   ; qtot 0.697917
 4640         h1    146    ccc    H23   4640 0.06278000   1.008000   ; qtot 0.760697
 4641         h1    146    ccc    H24   4641 0.06278000   1.008000   ; qtot 0.823477
 4642         oh    146    ccc     O7   4642 -0.59472000  16.000000   ; qtot 0.228757
 4643         ho    146    ccc    H25   4643 0.41908000   1.008000   ; qtot 0.647837
 4644         os    146    ccc     O8   4644 -0.44552000  16.000000   ; qtot 0.202317
 4645         ho    146    ccc    H26   4645 0.41908000   1.008000   ; qtot 0.621397
 4646         h1    146    ccc    H27   4646 0.08578000   1.008000   ; qtot 0.707177
 4647         oh    146    ccc     O9   4647 -0.58672000  16.000000   ; qtot 0.120457
 4648         ho    146    ccc    H28   4648 0.41908000   1.008000   ; qtot 0.539537
 4649         n3    146    ccc     N3   4649 -0.54282000  14.010000   ; qtot -0.003283
 4650         c3    146    ccc    C17   4650 0.08518000  12.010000   ; qtot 0.081897
 4651         c3    146    ccc    C18   4651 0.07918000  12.010000   ; qtot 0.161077
 4652         h1    146    ccc    H29   4652 0.06978000   1.008000   ; qtot 0.230857
 4653         c3    146    ccc    C19   4653 0.07918000  12.010000   ; qtot 0.310037
 4654         c3    146    ccc    C20   4654 0.03578000  12.010000   ; qtot 0.345817
 4655         c3    146    ccc    C21   4655 0.33498000  12.010000   ; qtot 0.680797
 4656         h1    146    ccc    H30   4656 0.06178000   1.008000   ; qtot 0.742577
 4657         h1    146    ccc    H31   4657 0.11278000   1.008000   ; qtot 0.855357
 4658         h2    146    ccc    H32   4658 0.12178000   1.008000   ; qtot 0.977137
 4659         oh    146    ccc    O10   4659 -0.56972000  16.000000   ; qtot 0.407417
 4660         oh    146    ccc    O11   4660 -0.57772000  16.000000   ; qtot -0.170303
 4661         c3    146    ccc    C22   4661 0.14548000  12.010000   ; qtot -0.024823
 4662         ho    146    ccc    H33   4662 0.40508000   1.008000   ; qtot 0.380257
 4663         hn    146    ccc    H34   4663 0.31758000   1.008000   ; qtot 0.697837
 4664         h1    146    ccc    H35   4664 0.06278000   1.008000   ; qtot 0.760617
 4665         h1    146    ccc    H36   4665 0.06278000   1.008000   ; qtot 0.823397
 4666         oh    146    ccc    O12   4666 -0.59472000  16.000000   ; qtot 0.228677
 4667         ho    146    ccc    H37   4667 0.41908000   1.008000   ; qtot 0.647757
 4668         os    146    ccc    O13   4668 -0.44552000  16.000000   ; qtot 0.202237
 4669         ho    146    ccc    H38   4669 0.41908000   1.008000   ; qtot 0.621317
 4670         h1    146    ccc    H39   4670 0.08578000   1.008000   ; qtot 0.707097
 4671         oh    146    ccc     O5   4671 -0.58672000  16.000000   ; qtot 0.120377
 4672         ho    146    ccc    H40   4672 0.41908000   1.008000   ; qtot 0.539457
 4673         n3    146    ccc     N4   4673 -0.54282000  14.010000   ; qtot -0.003363
; residue  147 ccc rtp ccc q -0.0
 4674          n    147    ccc     N1   4674 -0.46580000  14.010000   ; qtot -0.469163
 4675         hn    147    ccc     H4   4675 0.31480000   1.008000   ; qtot -0.154363
 4676         c3    147    ccc     C3   4676 -0.28250000  12.010000   ; qtot -0.436863
 4677         h1    147    ccc     H5   4677 0.15710000   1.008000   ; qtot -0.279763
 4678         c3    147    ccc     C4   4678 0.44180000  12.010000   ; qtot 0.162037
 4679         h1    147    ccc     H6   4679 0.15710000   1.008000   ; qtot 0.319137
 4680         h1    147    ccc     H7   4680 -0.03530000   1.008000   ; qtot 0.283837
 4681         h1    147    ccc     H8   4681 -0.03530000   1.008000   ; qtot 0.248537
 4682         n3    147    ccc     N2   4682 -0.74090000  14.010000   ; qtot -0.492363
 4683         c3    147    ccc     C5   4683 0.51680000  12.010000   ; qtot 0.024437
 4684         c3    147    ccc     C6   4684 0.51680000  12.010000   ; qtot 0.541237
 4685         h1    147    ccc     H9   4685 -0.05230000   1.008000   ; qtot 0.488937
 4686         c3    147    ccc     C7   4686 -0.60390000  12.010000   ; qtot -0.114963
 4687         h1    147    ccc    H10   4687 -0.05230000   1.008000   ; qtot -0.167263
 4688         hc    147    ccc    H11   4688 0.16730000   1.008000   ; qtot 0.000037
 4689         hc    147    ccc    H12   4689 0.16730000   1.008000   ; qtot 0.167337
 4690          c    147    ccc     C8   4690 0.72110000  12.010000   ; qtot 0.888437
 4691          o    147    ccc     O2   4691 -0.61950000  16.000000   ; qtot 0.268937
 4692         h1    147    ccc    H13   4692 -0.05230000   1.008000   ; qtot 0.216637
 4693         h1    147    ccc    H14   4693 -0.05230000   1.008000   ; qtot 0.164337
 4694         c3    147    ccc     C9   4694 -0.60390000  12.010000   ; qtot -0.439563
 4695         hc    147    ccc    H15   4695 0.16730000   1.008000   ; qtot -0.272263
 4696         hc    147    ccc    H16   4696 0.16730000   1.008000   ; qtot -0.104963
 4697          c    147    ccc    C10   4697 0.72110000  12.010000   ; qtot 0.616137
 4698          o    147    ccc     O4   4698 -0.61950000  16.000000   ; qtot -0.003363
 4699         c3    147    ccc    C11   4699 0.08518000  12.010000   ; qtot 0.081817
 4700         c3    147    ccc    C12   4700 0.07918000  12.010000   ; qtot 0.160997
 4701         h1    147    ccc    H17   4701 0.06978000   1.008000   ; qtot 0.230777
 4702         c3    147    ccc    C13   4702 0.07918000  12.010000   ; qtot 0.309957
 4703         c3    147    ccc    C14   4703 0.03578000  12.010000   ; qtot 0.345737
 4704         c3    147    ccc    C15   4704 0.33498000  12.010000   ; qtot 0.680717
 4705         h1    147    ccc    H18   4705 0.06178000   1.008000   ; qtot 0.742497
 4706         h1    147    ccc    H19   4706 0.11278000   1.008000   ; qtot 0.855277
 4707         h2    147    ccc    H20   4707 0.12178000   1.008000   ; qtot 0.977057
 4708         oh    147    ccc     O1   4708 -0.56972000  16.000000   ; qtot 0.407337
 4709         oh    147    ccc     O6   4709 -0.57772000  16.000000   ; qtot -0.170383
 4710         c3    147    ccc    C16   4710 0.14548000  12.010000   ; qtot -0.024903
 4711         ho    147    ccc    H21   4711 0.40508000   1.008000   ; qtot 0.380177
 4712         hn    147    ccc    H22   4712 0.31758000   1.008000   ; qtot 0.697757
 4713         h1    147    ccc    H23   4713 0.06278000   1.008000   ; qtot 0.760537
 4714         h1    147    ccc    H24   4714 0.06278000   1.008000   ; qtot 0.823317
 4715         oh    147    ccc     O7   4715 -0.59472000  16.000000   ; qtot 0.228597
 4716         ho    147    ccc    H25   4716 0.41908000   1.008000   ; qtot 0.647677
 4717         os    147    ccc     O8   4717 -0.44552000  16.000000   ; qtot 0.202157
 4718         ho    147    ccc    H26   4718 0.41908000   1.008000   ; qtot 0.621237
 4719         h1    147    ccc    H27   4719 0.08578000   1.008000   ; qtot 0.707017
 4720         oh    147    ccc     O9   4720 -0.58672000  16.000000   ; qtot 0.120297
 4721         ho    147    ccc    H28   4721 0.41908000   1.008000   ; qtot 0.539377
 4722         n3    147    ccc     N3   4722 -0.54282000  14.010000   ; qtot -0.003443
 4723         c3    147    ccc    C17   4723 0.08518000  12.010000   ; qtot 0.081737
 4724         c3    147    ccc    C18   4724 0.07918000  12.010000   ; qtot 0.160917
 4725         h1    147    ccc    H29   4725 0.06978000   1.008000   ; qtot 0.230697
 4726         c3    147    ccc    C19   4726 0.07918000  12.010000   ; qtot 0.309877
 4727         c3    147    ccc    C20   4727 0.03578000  12.010000   ; qtot 0.345657
 4728         c3    147    ccc    C21   4728 0.33498000  12.010000   ; qtot 0.680637
 4729         h1    147    ccc    H30   4729 0.06178000   1.008000   ; qtot 0.742417
 4730         h1    147    ccc    H31   4730 0.11278000   1.008000   ; qtot 0.855197
 4731         h2    147    ccc    H32   4731 0.12178000   1.008000   ; qtot 0.976977
 4732         oh    147    ccc    O10   4732 -0.56972000  16.000000   ; qtot 0.407257
 4733         oh    147    ccc    O11   4733 -0.57772000  16.000000   ; qtot -0.170463
 4734         c3    147    ccc    C22   4734 0.14548000  12.010000   ; qtot -0.024983
 4735         ho    147    ccc    H33   4735 0.40508000   1.008000   ; qtot 0.380097
 4736         hn    147    ccc    H34   4736 0.31758000   1.008000   ; qtot 0.697677
 4737         h1    147    ccc    H35   4737 0.06278000   1.008000   ; qtot 0.760457
 4738         h1    147    ccc    H36   4738 0.06278000   1.008000   ; qtot 0.823237
 4739         oh    147    ccc    O12   4739 -0.59472000  16.000000   ; qtot 0.228517
 4740         ho    147    ccc    H37   4740 0.41908000   1.008000   ; qtot 0.647597
 4741         os    147    ccc    O13   4741 -0.44552000  16.000000   ; qtot 0.202077
 4742         ho    147    ccc    H38   4742 0.41908000   1.008000   ; qtot 0.621157
 4743         h1    147    ccc    H39   4743 0.08578000   1.008000   ; qtot 0.706937
 4744         oh    147    ccc     O5   4744 -0.58672000  16.000000   ; qtot 0.120217
 4745         ho    147    ccc    H40   4745 0.41908000   1.008000   ; qtot 0.539297
 4746         n3    147    ccc     N4   4746 -0.54282000  14.010000   ; qtot -0.003523
; residue  148 ccc rtp ccc q -0.0
 4747          n    148    ccc     N1   4747 -0.46580000  14.010000   ; qtot -0.469323
 4748         hn    148    ccc     H4   4748 0.31480000   1.008000   ; qtot -0.154523
 4749         c3    148    ccc     C3   4749 -0.28250000  12.010000   ; qtot -0.437023
 4750         h1    148    ccc     H5   4750 0.15710000   1.008000   ; qtot -0.279923
 4751         c3    148    ccc     C4   4751 0.44180000  12.010000   ; qtot 0.161877
 4752         h1    148    ccc     H6   4752 0.15710000   1.008000   ; qtot 0.318977
 4753         h1    148    ccc     H7   4753 -0.03530000   1.008000   ; qtot 0.283677
 4754         h1    148    ccc     H8   4754 -0.03530000   1.008000   ; qtot 0.248377
 4755         n3    148    ccc     N2   4755 -0.74090000  14.010000   ; qtot -0.492523
 4756         c3    148    ccc     C5   4756 0.51680000  12.010000   ; qtot 0.024277
 4757         c3    148    ccc     C6   4757 0.51680000  12.010000   ; qtot 0.541077
 4758         h1    148    ccc     H9   4758 -0.05230000   1.008000   ; qtot 0.488777
 4759         c3    148    ccc     C7   4759 -0.60390000  12.010000   ; qtot -0.115123
 4760         h1    148    ccc    H10   4760 -0.05230000   1.008000   ; qtot -0.167423
 4761         hc    148    ccc    H11   4761 0.16730000   1.008000   ; qtot -0.000123
 4762         hc    148    ccc    H12   4762 0.16730000   1.008000   ; qtot 0.167177
 4763          c    148    ccc     C8   4763 0.72110000  12.010000   ; qtot 0.888277
 4764          o    148    ccc     O2   4764 -0.61950000  16.000000   ; qtot 0.268777
 4765         h1    148    ccc    H13   4765 -0.05230000   1.008000   ; qtot 0.216477
 4766         h1    148    ccc    H14   4766 -0.05230000   1.008000   ; qtot 0.164177
 4767         c3    148    ccc     C9   4767 -0.60390000  12.010000   ; qtot -0.439723
 4768         hc    148    ccc    H15   4768 0.16730000   1.008000   ; qtot -0.272423
 4769         hc    148    ccc    H16   4769 0.16730000   1.008000   ; qtot -0.105123
 4770          c    148    ccc    C10   4770 0.72110000  12.010000   ; qtot 0.615977
 4771          o    148    ccc     O4   4771 -0.61950000  16.000000   ; qtot -0.003523
 4772         c3    148    ccc    C11   4772 0.08518000  12.010000   ; qtot 0.081657
 4773         c3    148    ccc    C12   4773 0.07918000  12.010000   ; qtot 0.160837
 4774         h1    148    ccc    H17   4774 0.06978000   1.008000   ; qtot 0.230617
 4775         c3    148    ccc    C13   4775 0.07918000  12.010000   ; qtot 0.309797
 4776         c3    148    ccc    C14   4776 0.03578000  12.010000   ; qtot 0.345577
 4777         c3    148    ccc    C15   4777 0.33498000  12.010000   ; qtot 0.680557
 4778         h1    148    ccc    H18   4778 0.06178000   1.008000   ; qtot 0.742337
 4779         h1    148    ccc    H19   4779 0.11278000   1.008000   ; qtot 0.855117
 4780         h2    148    ccc    H20   4780 0.12178000   1.008000   ; qtot 0.976897
 4781         oh    148    ccc     O1   4781 -0.56972000  16.000000   ; qtot 0.407177
 4782         oh    148    ccc     O6   4782 -0.57772000  16.000000   ; qtot -0.170543
 4783         c3    148    ccc    C16   4783 0.14548000  12.010000   ; qtot -0.025063
 4784         ho    148    ccc    H21   4784 0.40508000   1.008000   ; qtot 0.380017
 4785         hn    148    ccc    H22   4785 0.31758000   1.008000   ; qtot 0.697597
 4786         h1    148    ccc    H23   4786 0.06278000   1.008000   ; qtot 0.760377
 4787         h1    148    ccc    H24   4787 0.06278000   1.008000   ; qtot 0.823157
 4788         oh    148    ccc     O7   4788 -0.59472000  16.000000   ; qtot 0.228437
 4789         ho    148    ccc    H25   4789 0.41908000   1.008000   ; qtot 0.647517
 4790         os    148    ccc     O8   4790 -0.44552000  16.000000   ; qtot 0.201997
 4791         ho    148    ccc    H26   4791 0.41908000   1.008000   ; qtot 0.621077
 4792         h1    148    ccc    H27   4792 0.08578000   1.008000   ; qtot 0.706857
 4793         oh    148    ccc     O9   4793 -0.58672000  16.000000   ; qtot 0.120137
 4794         ho    148    ccc    H28   4794 0.41908000   1.008000   ; qtot 0.539217
 4795         n3    148    ccc     N3   4795 -0.54282000  14.010000   ; qtot -0.003603
 4796         c3    148    ccc    C17   4796 0.08518000  12.010000   ; qtot 0.081577
 4797         c3    148    ccc    C18   4797 0.07918000  12.010000   ; qtot 0.160757
 4798         h1    148    ccc    H29   4798 0.06978000   1.008000   ; qtot 0.230537
 4799         c3    148    ccc    C19   4799 0.07918000  12.010000   ; qtot 0.309717
 4800         c3    148    ccc    C20   4800 0.03578000  12.010000   ; qtot 0.345497
 4801         c3    148    ccc    C21   4801 0.33498000  12.010000   ; qtot 0.680477
 4802         h1    148    ccc    H30   4802 0.06178000   1.008000   ; qtot 0.742257
 4803         h1    148    ccc    H31   4803 0.11278000   1.008000   ; qtot 0.855037
 4804         h2    148    ccc    H32   4804 0.12178000   1.008000   ; qtot 0.976817
 4805         oh    148    ccc    O10   4805 -0.56972000  16.000000   ; qtot 0.407097
 4806         oh    148    ccc    O11   4806 -0.57772000  16.000000   ; qtot -0.170623
 4807         c3    148    ccc    C22   4807 0.14548000  12.010000   ; qtot -0.025143
 4808         ho    148    ccc    H33   4808 0.40508000   1.008000   ; qtot 0.379937
 4809         hn    148    ccc    H34   4809 0.31758000   1.008000   ; qtot 0.697517
 4810         h1    148    ccc    H35   4810 0.06278000   1.008000   ; qtot 0.760297
 4811         h1    148    ccc    H36   4811 0.06278000   1.008000   ; qtot 0.823077
 4812         oh    148    ccc    O12   4812 -0.59472000  16.000000   ; qtot 0.228357
 4813         ho    148    ccc    H37   4813 0.41908000   1.008000   ; qtot 0.647437
 4814         os    148    ccc    O13   4814 -0.44552000  16.000000   ; qtot 0.201917
 4815         ho    148    ccc    H38   4815 0.41908000   1.008000   ; qtot 0.620997
 4816         h1    148    ccc    H39   4816 0.08578000   1.008000   ; qtot 0.706777
 4817         oh    148    ccc     O5   4817 -0.58672000  16.000000   ; qtot 0.120057
 4818         ho    148    ccc    H40   4818 0.41908000   1.008000   ; qtot 0.539137
 4819         n3    148    ccc     N4   4819 -0.54282000  14.010000   ; qtot -0.003683
; residue  149 ccc rtp ccc q -0.0
 4820          n    149    ccc     N1   4820 -0.46580000  14.010000   ; qtot -0.469483
 4821         hn    149    ccc     H4   4821 0.31480000   1.008000   ; qtot -0.154683
 4822         c3    149    ccc     C3   4822 -0.28250000  12.010000   ; qtot -0.437183
 4823         h1    149    ccc     H5   4823 0.15710000   1.008000   ; qtot -0.280083
 4824         c3    149    ccc     C4   4824 0.44180000  12.010000   ; qtot 0.161717
 4825         h1    149    ccc     H6   4825 0.15710000   1.008000   ; qtot 0.318817
 4826         h1    149    ccc     H7   4826 -0.03530000   1.008000   ; qtot 0.283517
 4827         h1    149    ccc     H8   4827 -0.03530000   1.008000   ; qtot 0.248217
 4828         n3    149    ccc     N2   4828 -0.74090000  14.010000   ; qtot -0.492683
 4829         c3    149    ccc     C5   4829 0.51680000  12.010000   ; qtot 0.024117
 4830         c3    149    ccc     C6   4830 0.51680000  12.010000   ; qtot 0.540917
 4831         h1    149    ccc     H9   4831 -0.05230000   1.008000   ; qtot 0.488617
 4832         c3    149    ccc     C7   4832 -0.60390000  12.010000   ; qtot -0.115283
 4833         h1    149    ccc    H10   4833 -0.05230000   1.008000   ; qtot -0.167583
 4834         hc    149    ccc    H11   4834 0.16730000   1.008000   ; qtot -0.000283
 4835         hc    149    ccc    H12   4835 0.16730000   1.008000   ; qtot 0.167017
 4836          c    149    ccc     C8   4836 0.72110000  12.010000   ; qtot 0.888117
 4837          o    149    ccc     O2   4837 -0.61950000  16.000000   ; qtot 0.268617
 4838         h1    149    ccc    H13   4838 -0.05230000   1.008000   ; qtot 0.216317
 4839         h1    149    ccc    H14   4839 -0.05230000   1.008000   ; qtot 0.164017
 4840         c3    149    ccc     C9   4840 -0.60390000  12.010000   ; qtot -0.439883
 4841         hc    149    ccc    H15   4841 0.16730000   1.008000   ; qtot -0.272583
 4842         hc    149    ccc    H16   4842 0.16730000   1.008000   ; qtot -0.105283
 4843          c    149    ccc    C10   4843 0.72110000  12.010000   ; qtot 0.615817
 4844          o    149    ccc     O4   4844 -0.61950000  16.000000   ; qtot -0.003683
 4845         c3    149    ccc    C11   4845 0.08518000  12.010000   ; qtot 0.081497
 4846         c3    149    ccc    C12   4846 0.07918000  12.010000   ; qtot 0.160677
 4847         h1    149    ccc    H17   4847 0.06978000   1.008000   ; qtot 0.230457
 4848         c3    149    ccc    C13   4848 0.07918000  12.010000   ; qtot 0.309637
 4849         c3    149    ccc    C14   4849 0.03578000  12.010000   ; qtot 0.345417
 4850         c3    149    ccc    C15   4850 0.33498000  12.010000   ; qtot 0.680397
 4851         h1    149    ccc    H18   4851 0.06178000   1.008000   ; qtot 0.742177
 4852         h1    149    ccc    H19   4852 0.11278000   1.008000   ; qtot 0.854957
 4853         h2    149    ccc    H20   4853 0.12178000   1.008000   ; qtot 0.976737
 4854         oh    149    ccc     O1   4854 -0.56972000  16.000000   ; qtot 0.407017
 4855         oh    149    ccc     O6   4855 -0.57772000  16.000000   ; qtot -0.170703
 4856         c3    149    ccc    C16   4856 0.14548000  12.010000   ; qtot -0.025223
 4857         ho    149    ccc    H21   4857 0.40508000   1.008000   ; qtot 0.379857
 4858         hn    149    ccc    H22   4858 0.31758000   1.008000   ; qtot 0.697437
 4859         h1    149    ccc    H23   4859 0.06278000   1.008000   ; qtot 0.760217
 4860         h1    149    ccc    H24   4860 0.06278000   1.008000   ; qtot 0.822997
 4861         oh    149    ccc     O7   4861 -0.59472000  16.000000   ; qtot 0.228277
 4862         ho    149    ccc    H25   4862 0.41908000   1.008000   ; qtot 0.647357
 4863         os    149    ccc     O8   4863 -0.44552000  16.000000   ; qtot 0.201837
 4864         ho    149    ccc    H26   4864 0.41908000   1.008000   ; qtot 0.620917
 4865         h1    149    ccc    H27   4865 0.08578000   1.008000   ; qtot 0.706697
 4866         oh    149    ccc     O9   4866 -0.58672000  16.000000   ; qtot 0.119977
 4867         ho    149    ccc    H28   4867 0.41908000   1.008000   ; qtot 0.539057
 4868         n3    149    ccc     N3   4868 -0.54282000  14.010000   ; qtot -0.003763
 4869         c3    149    ccc    C17   4869 0.08518000  12.010000   ; qtot 0.081417
 4870         c3    149    ccc    C18   4870 0.07918000  12.010000   ; qtot 0.160597
 4871         h1    149    ccc    H29   4871 0.06978000   1.008000   ; qtot 0.230377
 4872         c3    149    ccc    C19   4872 0.07918000  12.010000   ; qtot 0.309557
 4873         c3    149    ccc    C20   4873 0.03578000  12.010000   ; qtot 0.345337
 4874         c3    149    ccc    C21   4874 0.33498000  12.010000   ; qtot 0.680317
 4875         h1    149    ccc    H30   4875 0.06178000   1.008000   ; qtot 0.742097
 4876         h1    149    ccc    H31   4876 0.11278000   1.008000   ; qtot 0.854877
 4877         h2    149    ccc    H32   4877 0.12178000   1.008000   ; qtot 0.976657
 4878         oh    149    ccc    O10   4878 -0.56972000  16.000000   ; qtot 0.406937
 4879         oh    149    ccc    O11   4879 -0.57772000  16.000000   ; qtot -0.170783
 4880         c3    149    ccc    C22   4880 0.14548000  12.010000   ; qtot -0.025303
 4881         ho    149    ccc    H33   4881 0.40508000   1.008000   ; qtot 0.379777
 4882         hn    149    ccc    H34   4882 0.31758000   1.008000   ; qtot 0.697357
 4883         h1    149    ccc    H35   4883 0.06278000   1.008000   ; qtot 0.760137
 4884         h1    149    ccc    H36   4884 0.06278000   1.008000   ; qtot 0.822917
 4885         oh    149    ccc    O12   4885 -0.59472000  16.000000   ; qtot 0.228197
 4886         ho    149    ccc    H37   4886 0.41908000   1.008000   ; qtot 0.647277
 4887         os    149    ccc    O13   4887 -0.44552000  16.000000   ; qtot 0.201757
 4888         ho    149    ccc    H38   4888 0.41908000   1.008000   ; qtot 0.620837
 4889         h1    149    ccc    H39   4889 0.08578000   1.008000   ; qtot 0.706617
 4890         oh    149    ccc     O5   4890 -0.58672000  16.000000   ; qtot 0.119897
 4891         ho    149    ccc    H40   4891 0.41908000   1.008000   ; qtot 0.538977
 4892         n3    149    ccc     N4   4892 -0.54282000  14.010000   ; qtot -0.003843
; residue  150 ccc rtp ccc q -0.0
 4893          n    150    ccc     N1   4893 -0.46580000  14.010000   ; qtot -0.469643
 4894         hn    150    ccc     H4   4894 0.31480000   1.008000   ; qtot -0.154843
 4895         c3    150    ccc     C3   4895 -0.28250000  12.010000   ; qtot -0.437343
 4896         h1    150    ccc     H5   4896 0.15710000   1.008000   ; qtot -0.280243
 4897         c3    150    ccc     C4   4897 0.44180000  12.010000   ; qtot 0.161557
 4898         h1    150    ccc     H6   4898 0.15710000   1.008000   ; qtot 0.318657
 4899         h1    150    ccc     H7   4899 -0.03530000   1.008000   ; qtot 0.283357
 4900         h1    150    ccc     H8   4900 -0.03530000   1.008000   ; qtot 0.248057
 4901         n3    150    ccc     N2   4901 -0.74090000  14.010000   ; qtot -0.492843
 4902         c3    150    ccc     C5   4902 0.51680000  12.010000   ; qtot 0.023957
 4903         c3    150    ccc     C6   4903 0.51680000  12.010000   ; qtot 0.540757
 4904         h1    150    ccc     H9   4904 -0.05230000   1.008000   ; qtot 0.488457
 4905         c3    150    ccc     C7   4905 -0.60390000  12.010000   ; qtot -0.115443
 4906         h1    150    ccc    H10   4906 -0.05230000   1.008000   ; qtot -0.167743
 4907         hc    150    ccc    H11   4907 0.16730000   1.008000   ; qtot -0.000443
 4908         hc    150    ccc    H12   4908 0.16730000   1.008000   ; qtot 0.166857
 4909          c    150    ccc     C8   4909 0.72110000  12.010000   ; qtot 0.887957
 4910          o    150    ccc     O2   4910 -0.61950000  16.000000   ; qtot 0.268457
 4911         h1    150    ccc    H13   4911 -0.05230000   1.008000   ; qtot 0.216157
 4912         h1    150    ccc    H14   4912 -0.05230000   1.008000   ; qtot 0.163857
 4913         c3    150    ccc     C9   4913 -0.60390000  12.010000   ; qtot -0.440043
 4914         hc    150    ccc    H15   4914 0.16730000   1.008000   ; qtot -0.272743
 4915         hc    150    ccc    H16   4915 0.16730000   1.008000   ; qtot -0.105443
 4916          c    150    ccc    C10   4916 0.72110000  12.010000   ; qtot 0.615657
 4917          o    150    ccc     O4   4917 -0.61950000  16.000000   ; qtot -0.003843
 4918         c3    150    ccc    C11   4918 0.08518000  12.010000   ; qtot 0.081337
 4919         c3    150    ccc    C12   4919 0.07918000  12.010000   ; qtot 0.160517
 4920         h1    150    ccc    H17   4920 0.06978000   1.008000   ; qtot 0.230297
 4921         c3    150    ccc    C13   4921 0.07918000  12.010000   ; qtot 0.309477
 4922         c3    150    ccc    C14   4922 0.03578000  12.010000   ; qtot 0.345257
 4923         c3    150    ccc    C15   4923 0.33498000  12.010000   ; qtot 0.680237
 4924         h1    150    ccc    H18   4924 0.06178000   1.008000   ; qtot 0.742017
 4925         h1    150    ccc    H19   4925 0.11278000   1.008000   ; qtot 0.854797
 4926         h2    150    ccc    H20   4926 0.12178000   1.008000   ; qtot 0.976577
 4927         oh    150    ccc     O1   4927 -0.56972000  16.000000   ; qtot 0.406857
 4928         oh    150    ccc     O6   4928 -0.57772000  16.000000   ; qtot -0.170863
 4929         c3    150    ccc    C16   4929 0.14548000  12.010000   ; qtot -0.025383
 4930         ho    150    ccc    H21   4930 0.40508000   1.008000   ; qtot 0.379697
 4931         hn    150    ccc    H22   4931 0.31758000   1.008000   ; qtot 0.697277
 4932         h1    150    ccc    H23   4932 0.06278000   1.008000   ; qtot 0.760057
 4933         h1    150    ccc    H24   4933 0.06278000   1.008000   ; qtot 0.822837
 4934         oh    150    ccc     O7   4934 -0.59472000  16.000000   ; qtot 0.228117
 4935         ho    150    ccc    H25   4935 0.41908000   1.008000   ; qtot 0.647197
 4936         os    150    ccc     O8   4936 -0.44552000  16.000000   ; qtot 0.201677
 4937         ho    150    ccc    H26   4937 0.41908000   1.008000   ; qtot 0.620757
 4938         h1    150    ccc    H27   4938 0.08578000   1.008000   ; qtot 0.706537
 4939         oh    150    ccc     O9   4939 -0.58672000  16.000000   ; qtot 0.119817
 4940         ho    150    ccc    H28   4940 0.41908000   1.008000   ; qtot 0.538897
 4941         n3    150    ccc     N3   4941 -0.54282000  14.010000   ; qtot -0.003923
 4942         c3    150    ccc    C17   4942 0.08518000  12.010000   ; qtot 0.081257
 4943         c3    150    ccc    C18   4943 0.07918000  12.010000   ; qtot 0.160437
 4944         h1    150    ccc    H29   4944 0.06978000   1.008000   ; qtot 0.230217
 4945         c3    150    ccc    C19   4945 0.07918000  12.010000   ; qtot 0.309397
 4946         c3    150    ccc    C20   4946 0.03578000  12.010000   ; qtot 0.345177
 4947         c3    150    ccc    C21   4947 0.33498000  12.010000   ; qtot 0.680157
 4948         h1    150    ccc    H30   4948 0.06178000   1.008000   ; qtot 0.741937
 4949         h1    150    ccc    H31   4949 0.11278000   1.008000   ; qtot 0.854717
 4950         h2    150    ccc    H32   4950 0.12178000   1.008000   ; qtot 0.976497
 4951         oh    150    ccc    O10   4951 -0.56972000  16.000000   ; qtot 0.406777
 4952         oh    150    ccc    O11   4952 -0.57772000  16.000000   ; qtot -0.170943
 4953         c3    150    ccc    C22   4953 0.14548000  12.010000   ; qtot -0.025463
 4954         ho    150    ccc    H33   4954 0.40508000   1.008000   ; qtot 0.379617
 4955         hn    150    ccc    H34   4955 0.31758000   1.008000   ; qtot 0.697197
 4956         h1    150    ccc    H35   4956 0.06278000   1.008000   ; qtot 0.759977
 4957         h1    150    ccc    H36   4957 0.06278000   1.008000   ; qtot 0.822757
 4958         oh    150    ccc    O12   4958 -0.59472000  16.000000   ; qtot 0.228037
 4959         ho    150    ccc    H37   4959 0.41908000   1.008000   ; qtot 0.647117
 4960         os    150    ccc    O13   4960 -0.44552000  16.000000   ; qtot 0.201597
 4961         ho    150    ccc    H38   4961 0.41908000   1.008000   ; qtot 0.620677
 4962         h1    150    ccc    H39   4962 0.08578000   1.008000   ; qtot 0.706457
 4963         oh    150    ccc     O5   4963 -0.58672000  16.000000   ; qtot 0.119737
 4964         ho    150    ccc    H40   4964 0.41908000   1.008000   ; qtot 0.538817
 4965         n3    150    ccc     N4   4965 -0.54282000  14.010000   ; qtot -0.004003
; residue  151 ccc rtp ccc q -0.0
 4966          n    151    ccc     N1   4966 -0.46580000  14.010000   ; qtot -0.469803
 4967         hn    151    ccc     H4   4967 0.31480000   1.008000   ; qtot -0.155003
 4968         c3    151    ccc     C3   4968 -0.28250000  12.010000   ; qtot -0.437503
 4969         h1    151    ccc     H5   4969 0.15710000   1.008000   ; qtot -0.280403
 4970         c3    151    ccc     C4   4970 0.44180000  12.010000   ; qtot 0.161397
 4971         h1    151    ccc     H6   4971 0.15710000   1.008000   ; qtot 0.318497
 4972         h1    151    ccc     H7   4972 -0.03530000   1.008000   ; qtot 0.283197
 4973         h1    151    ccc     H8   4973 -0.03530000   1.008000   ; qtot 0.247897
 4974         n3    151    ccc     N2   4974 -0.74090000  14.010000   ; qtot -0.493003
 4975         c3    151    ccc     C5   4975 0.51680000  12.010000   ; qtot 0.023797
 4976         c3    151    ccc     C6   4976 0.51680000  12.010000   ; qtot 0.540597
 4977         h1    151    ccc     H9   4977 -0.05230000   1.008000   ; qtot 0.488297
 4978         c3    151    ccc     C7   4978 -0.60390000  12.010000   ; qtot -0.115603
 4979         h1    151    ccc    H10   4979 -0.05230000   1.008000   ; qtot -0.167903
 4980         hc    151    ccc    H11   4980 0.16730000   1.008000   ; qtot -0.000603
 4981         hc    151    ccc    H12   4981 0.16730000   1.008000   ; qtot 0.166697
 4982          c    151    ccc     C8   4982 0.72110000  12.010000   ; qtot 0.887797
 4983          o    151    ccc     O2   4983 -0.61950000  16.000000   ; qtot 0.268297
 4984         h1    151    ccc    H13   4984 -0.05230000   1.008000   ; qtot 0.215997
 4985         h1    151    ccc    H14   4985 -0.05230000   1.008000   ; qtot 0.163697
 4986         c3    151    ccc     C9   4986 -0.60390000  12.010000   ; qtot -0.440203
 4987         hc    151    ccc    H15   4987 0.16730000   1.008000   ; qtot -0.272903
 4988         hc    151    ccc    H16   4988 0.16730000   1.008000   ; qtot -0.105603
 4989          c    151    ccc    C10   4989 0.72110000  12.010000   ; qtot 0.615497
 4990          o    151    ccc     O4   4990 -0.61950000  16.000000   ; qtot -0.004003
 4991         c3    151    ccc    C11   4991 0.08518000  12.010000   ; qtot 0.081177
 4992         c3    151    ccc    C12   4992 0.07918000  12.010000   ; qtot 0.160357
 4993         h1    151    ccc    H17   4993 0.06978000   1.008000   ; qtot 0.230137
 4994         c3    151    ccc    C13   4994 0.07918000  12.010000   ; qtot 0.309317
 4995         c3    151    ccc    C14   4995 0.03578000  12.010000   ; qtot 0.345097
 4996         c3    151    ccc    C15   4996 0.33498000  12.010000   ; qtot 0.680077
 4997         h1    151    ccc    H18   4997 0.06178000   1.008000   ; qtot 0.741857
 4998         h1    151    ccc    H19   4998 0.11278000   1.008000   ; qtot 0.854637
 4999         h2    151    ccc    H20   4999 0.12178000   1.008000   ; qtot 0.976417
 5000         oh    151    ccc     O1   5000 -0.56972000  16.000000   ; qtot 0.406697
 5001         oh    151    ccc     O6   5001 -0.57772000  16.000000   ; qtot -0.171023
 5002         c3    151    ccc    C16   5002 0.14548000  12.010000   ; qtot -0.025543
 5003         ho    151    ccc    H21   5003 0.40508000   1.008000   ; qtot 0.379537
 5004         hn    151    ccc    H22   5004 0.31758000   1.008000   ; qtot 0.697117
 5005         h1    151    ccc    H23   5005 0.06278000   1.008000   ; qtot 0.759897
 5006         h1    151    ccc    H24   5006 0.06278000   1.008000   ; qtot 0.822677
 5007         oh    151    ccc     O7   5007 -0.59472000  16.000000   ; qtot 0.227957
 5008         ho    151    ccc    H25   5008 0.41908000   1.008000   ; qtot 0.647037
 5009         os    151    ccc     O8   5009 -0.44552000  16.000000   ; qtot 0.201517
 5010         ho    151    ccc    H26   5010 0.41908000   1.008000   ; qtot 0.620597
 5011         h1    151    ccc    H27   5011 0.08578000   1.008000   ; qtot 0.706377
 5012         oh    151    ccc     O9   5012 -0.58672000  16.000000   ; qtot 0.119657
 5013         ho    151    ccc    H28   5013 0.41908000   1.008000   ; qtot 0.538737
 5014         n3    151    ccc     N3   5014 -0.54282000  14.010000   ; qtot -0.004083
 5015         c3    151    ccc    C17   5015 0.08518000  12.010000   ; qtot 0.081097
 5016         c3    151    ccc    C18   5016 0.07918000  12.010000   ; qtot 0.160277
 5017         h1    151    ccc    H29   5017 0.06978000   1.008000   ; qtot 0.230057
 5018         c3    151    ccc    C19   5018 0.07918000  12.010000   ; qtot 0.309237
 5019         c3    151    ccc    C20   5019 0.03578000  12.010000   ; qtot 0.345017
 5020         c3    151    ccc    C21   5020 0.33498000  12.010000   ; qtot 0.679997
 5021         h1    151    ccc    H30   5021 0.06178000   1.008000   ; qtot 0.741777
 5022         h1    151    ccc    H31   5022 0.11278000   1.008000   ; qtot 0.854557
 5023         h2    151    ccc    H32   5023 0.12178000   1.008000   ; qtot 0.976337
 5024         oh    151    ccc    O10   5024 -0.56972000  16.000000   ; qtot 0.406617
 5025         oh    151    ccc    O11   5025 -0.57772000  16.000000   ; qtot -0.171103
 5026         c3    151    ccc    C22   5026 0.14548000  12.010000   ; qtot -0.025623
 5027         ho    151    ccc    H33   5027 0.40508000   1.008000   ; qtot 0.379457
 5028         hn    151    ccc    H34   5028 0.31758000   1.008000   ; qtot 0.697037
 5029         h1    151    ccc    H35   5029 0.06278000   1.008000   ; qtot 0.759817
 5030         h1    151    ccc    H36   5030 0.06278000   1.008000   ; qtot 0.822597
 5031         oh    151    ccc    O12   5031 -0.59472000  16.000000   ; qtot 0.227877
 5032         ho    151    ccc    H37   5032 0.41908000   1.008000   ; qtot 0.646957
 5033         os    151    ccc    O13   5033 -0.44552000  16.000000   ; qtot 0.201437
 5034         ho    151    ccc    H38   5034 0.41908000   1.008000   ; qtot 0.620517
 5035         h1    151    ccc    H39   5035 0.08578000   1.008000   ; qtot 0.706297
 5036         oh    151    ccc     O5   5036 -0.58672000  16.000000   ; qtot 0.119577
 5037         ho    151    ccc    H40   5037 0.41908000   1.008000   ; qtot 0.538657
 5038         n3    151    ccc     N4   5038 -0.54282000  14.010000   ; qtot -0.004163
; residue  152 ccc rtp ccc q -0.0
 5039          n    152    ccc     N1   5039 -0.46580000  14.010000   ; qtot -0.469963
 5040         hn    152    ccc     H4   5040 0.31480000   1.008000   ; qtot -0.155163
 5041         c3    152    ccc     C3   5041 -0.28250000  12.010000   ; qtot -0.437663
 5042         h1    152    ccc     H5   5042 0.15710000   1.008000   ; qtot -0.280563
 5043         c3    152    ccc     C4   5043 0.44180000  12.010000   ; qtot 0.161237
 5044         h1    152    ccc     H6   5044 0.15710000   1.008000   ; qtot 0.318337
 5045         h1    152    ccc     H7   5045 -0.03530000   1.008000   ; qtot 0.283037
 5046         h1    152    ccc     H8   5046 -0.03530000   1.008000   ; qtot 0.247737
 5047         n3    152    ccc     N2   5047 -0.74090000  14.010000   ; qtot -0.493163
 5048         c3    152    ccc     C5   5048 0.51680000  12.010000   ; qtot 0.023637
 5049         c3    152    ccc     C6   5049 0.51680000  12.010000   ; qtot 0.540437
 5050         h1    152    ccc     H9   5050 -0.05230000   1.008000   ; qtot 0.488137
 5051         c3    152    ccc     C7   5051 -0.60390000  12.010000   ; qtot -0.115763
 5052         h1    152    ccc    H10   5052 -0.05230000   1.008000   ; qtot -0.168063
 5053         hc    152    ccc    H11   5053 0.16730000   1.008000   ; qtot -0.000763
 5054         hc    152    ccc    H12   5054 0.16730000   1.008000   ; qtot 0.166537
 5055          c    152    ccc     C8   5055 0.72110000  12.010000   ; qtot 0.887637
 5056          o    152    ccc     O2   5056 -0.61950000  16.000000   ; qtot 0.268137
 5057         h1    152    ccc    H13   5057 -0.05230000   1.008000   ; qtot 0.215837
 5058         h1    152    ccc    H14   5058 -0.05230000   1.008000   ; qtot 0.163537
 5059         c3    152    ccc     C9   5059 -0.60390000  12.010000   ; qtot -0.440363
 5060         hc    152    ccc    H15   5060 0.16730000   1.008000   ; qtot -0.273063
 5061         hc    152    ccc    H16   5061 0.16730000   1.008000   ; qtot -0.105763
 5062          c    152    ccc    C10   5062 0.72110000  12.010000   ; qtot 0.615337
 5063          o    152    ccc     O4   5063 -0.61950000  16.000000   ; qtot -0.004163
 5064         c3    152    ccc    C11   5064 0.08518000  12.010000   ; qtot 0.081017
 5065         c3    152    ccc    C12   5065 0.07918000  12.010000   ; qtot 0.160197
 5066         h1    152    ccc    H17   5066 0.06978000   1.008000   ; qtot 0.229977
 5067         c3    152    ccc    C13   5067 0.07918000  12.010000   ; qtot 0.309157
 5068         c3    152    ccc    C14   5068 0.03578000  12.010000   ; qtot 0.344937
 5069         c3    152    ccc    C15   5069 0.33498000  12.010000   ; qtot 0.679917
 5070         h1    152    ccc    H18   5070 0.06178000   1.008000   ; qtot 0.741697
 5071         h1    152    ccc    H19   5071 0.11278000   1.008000   ; qtot 0.854477
 5072         h2    152    ccc    H20   5072 0.12178000   1.008000   ; qtot 0.976257
 5073         oh    152    ccc     O1   5073 -0.56972000  16.000000   ; qtot 0.406537
 5074         oh    152    ccc     O6   5074 -0.57772000  16.000000   ; qtot -0.171183
 5075         c3    152    ccc    C16   5075 0.14548000  12.010000   ; qtot -0.025703
 5076         ho    152    ccc    H21   5076 0.40508000   1.008000   ; qtot 0.379377
 5077         hn    152    ccc    H22   5077 0.31758000   1.008000   ; qtot 0.696957
 5078         h1    152    ccc    H23   5078 0.06278000   1.008000   ; qtot 0.759737
 5079         h1    152    ccc    H24   5079 0.06278000   1.008000   ; qtot 0.822517
 5080         oh    152    ccc     O7   5080 -0.59472000  16.000000   ; qtot 0.227797
 5081         ho    152    ccc    H25   5081 0.41908000   1.008000   ; qtot 0.646877
 5082         os    152    ccc     O8   5082 -0.44552000  16.000000   ; qtot 0.201357
 5083         ho    152    ccc    H26   5083 0.41908000   1.008000   ; qtot 0.620437
 5084         h1    152    ccc    H27   5084 0.08578000   1.008000   ; qtot 0.706217
 5085         oh    152    ccc     O9   5085 -0.58672000  16.000000   ; qtot 0.119497
 5086         ho    152    ccc    H28   5086 0.41908000   1.008000   ; qtot 0.538577
 5087         n3    152    ccc     N3   5087 -0.54282000  14.010000   ; qtot -0.004243
 5088         c3    152    ccc    C17   5088 0.08518000  12.010000   ; qtot 0.080937
 5089         c3    152    ccc    C18   5089 0.07918000  12.010000   ; qtot 0.160117
 5090         h1    152    ccc    H29   5090 0.06978000   1.008000   ; qtot 0.229897
 5091         c3    152    ccc    C19   5091 0.07918000  12.010000   ; qtot 0.309077
 5092         c3    152    ccc    C20   5092 0.03578000  12.010000   ; qtot 0.344857
 5093         c3    152    ccc    C21   5093 0.33498000  12.010000   ; qtot 0.679837
 5094         h1    152    ccc    H30   5094 0.06178000   1.008000   ; qtot 0.741617
 5095         h1    152    ccc    H31   5095 0.11278000   1.008000   ; qtot 0.854397
 5096         h2    152    ccc    H32   5096 0.12178000   1.008000   ; qtot 0.976177
 5097         oh    152    ccc    O10   5097 -0.56972000  16.000000   ; qtot 0.406457
 5098         oh    152    ccc    O11   5098 -0.57772000  16.000000   ; qtot -0.171263
 5099         c3    152    ccc    C22   5099 0.14548000  12.010000   ; qtot -0.025783
 5100         ho    152    ccc    H33   5100 0.40508000   1.008000   ; qtot 0.379297
 5101         hn    152    ccc    H34   5101 0.31758000   1.008000   ; qtot 0.696877
 5102         h1    152    ccc    H35   5102 0.06278000   1.008000   ; qtot 0.759657
 5103         h1    152    ccc    H36   5103 0.06278000   1.008000   ; qtot 0.822437
 5104         oh    152    ccc    O12   5104 -0.59472000  16.000000   ; qtot 0.227717
 5105         ho    152    ccc    H37   5105 0.41908000   1.008000   ; qtot 0.646797
 5106         os    152    ccc    O13   5106 -0.44552000  16.000000   ; qtot 0.201277
 5107         ho    152    ccc    H38   5107 0.41908000   1.008000   ; qtot 0.620357
 5108         h1    152    ccc    H39   5108 0.08578000   1.008000   ; qtot 0.706137
 5109         oh    152    ccc     O5   5109 -0.58672000  16.000000   ; qtot 0.119417
 5110         ho    152    ccc    H40   5110 0.41908000   1.008000   ; qtot 0.538497
 5111         n3    152    ccc     N4   5111 -0.54282000  14.010000   ; qtot -0.004323
; residue  153 ccc rtp ccc q -0.0
 5112          n    153    ccc     N1   5112 -0.46580000  14.010000   ; qtot -0.470123
 5113         hn    153    ccc     H4   5113 0.31480000   1.008000   ; qtot -0.155323
 5114         c3    153    ccc     C3   5114 -0.28250000  12.010000   ; qtot -0.437823
 5115         h1    153    ccc     H5   5115 0.15710000   1.008000   ; qtot -0.280723
 5116         c3    153    ccc     C4   5116 0.44180000  12.010000   ; qtot 0.161077
 5117         h1    153    ccc     H6   5117 0.15710000   1.008000   ; qtot 0.318177
 5118         h1    153    ccc     H7   5118 -0.03530000   1.008000   ; qtot 0.282877
 5119         h1    153    ccc     H8   5119 -0.03530000   1.008000   ; qtot 0.247577
 5120         n3    153    ccc     N2   5120 -0.74090000  14.010000   ; qtot -0.493323
 5121         c3    153    ccc     C5   5121 0.51680000  12.010000   ; qtot 0.023477
 5122         c3    153    ccc     C6   5122 0.51680000  12.010000   ; qtot 0.540277
 5123         h1    153    ccc     H9   5123 -0.05230000   1.008000   ; qtot 0.487977
 5124         c3    153    ccc     C7   5124 -0.60390000  12.010000   ; qtot -0.115923
 5125         h1    153    ccc    H10   5125 -0.05230000   1.008000   ; qtot -0.168223
 5126         hc    153    ccc    H11   5126 0.16730000   1.008000   ; qtot -0.000923
 5127         hc    153    ccc    H12   5127 0.16730000   1.008000   ; qtot 0.166377
 5128          c    153    ccc     C8   5128 0.72110000  12.010000   ; qtot 0.887477
 5129          o    153    ccc     O2   5129 -0.61950000  16.000000   ; qtot 0.267977
 5130         h1    153    ccc    H13   5130 -0.05230000   1.008000   ; qtot 0.215677
 5131         h1    153    ccc    H14   5131 -0.05230000   1.008000   ; qtot 0.163377
 5132         c3    153    ccc     C9   5132 -0.60390000  12.010000   ; qtot -0.440523
 5133         hc    153    ccc    H15   5133 0.16730000   1.008000   ; qtot -0.273223
 5134         hc    153    ccc    H16   5134 0.16730000   1.008000   ; qtot -0.105923
 5135          c    153    ccc    C10   5135 0.72110000  12.010000   ; qtot 0.615177
 5136          o    153    ccc     O4   5136 -0.61950000  16.000000   ; qtot -0.004323
 5137         c3    153    ccc    C11   5137 0.08518000  12.010000   ; qtot 0.080857
 5138         c3    153    ccc    C12   5138 0.07918000  12.010000   ; qtot 0.160037
 5139         h1    153    ccc    H17   5139 0.06978000   1.008000   ; qtot 0.229817
 5140         c3    153    ccc    C13   5140 0.07918000  12.010000   ; qtot 0.308997
 5141         c3    153    ccc    C14   5141 0.03578000  12.010000   ; qtot 0.344777
 5142         c3    153    ccc    C15   5142 0.33498000  12.010000   ; qtot 0.679757
 5143         h1    153    ccc    H18   5143 0.06178000   1.008000   ; qtot 0.741537
 5144         h1    153    ccc    H19   5144 0.11278000   1.008000   ; qtot 0.854317
 5145         h2    153    ccc    H20   5145 0.12178000   1.008000   ; qtot 0.976097
 5146         oh    153    ccc     O1   5146 -0.56972000  16.000000   ; qtot 0.406377
 5147         oh    153    ccc     O6   5147 -0.57772000  16.000000   ; qtot -0.171343
 5148         c3    153    ccc    C16   5148 0.14548000  12.010000   ; qtot -0.025863
 5149         ho    153    ccc    H21   5149 0.40508000   1.008000   ; qtot 0.379217
 5150         hn    153    ccc    H22   5150 0.31758000   1.008000   ; qtot 0.696797
 5151         h1    153    ccc    H23   5151 0.06278000   1.008000   ; qtot 0.759577
 5152         h1    153    ccc    H24   5152 0.06278000   1.008000   ; qtot 0.822357
 5153         oh    153    ccc     O7   5153 -0.59472000  16.000000   ; qtot 0.227637
 5154         ho    153    ccc    H25   5154 0.41908000   1.008000   ; qtot 0.646717
 5155         os    153    ccc     O8   5155 -0.44552000  16.000000   ; qtot 0.201197
 5156         ho    153    ccc    H26   5156 0.41908000   1.008000   ; qtot 0.620277
 5157         h1    153    ccc    H27   5157 0.08578000   1.008000   ; qtot 0.706057
 5158         oh    153    ccc     O9   5158 -0.58672000  16.000000   ; qtot 0.119337
 5159         ho    153    ccc    H28   5159 0.41908000   1.008000   ; qtot 0.538417
 5160         n3    153    ccc     N3   5160 -0.54282000  14.010000   ; qtot -0.004403
 5161         c3    153    ccc    C17   5161 0.08518000  12.010000   ; qtot 0.080777
 5162         c3    153    ccc    C18   5162 0.07918000  12.010000   ; qtot 0.159957
 5163         h1    153    ccc    H29   5163 0.06978000   1.008000   ; qtot 0.229737
 5164         c3    153    ccc    C19   5164 0.07918000  12.010000   ; qtot 0.308917
 5165         c3    153    ccc    C20   5165 0.03578000  12.010000   ; qtot 0.344697
 5166         c3    153    ccc    C21   5166 0.33498000  12.010000   ; qtot 0.679677
 5167         h1    153    ccc    H30   5167 0.06178000   1.008000   ; qtot 0.741457
 5168         h1    153    ccc    H31   5168 0.11278000   1.008000   ; qtot 0.854237
 5169         h2    153    ccc    H32   5169 0.12178000   1.008000   ; qtot 0.976017
 5170         oh    153    ccc    O10   5170 -0.56972000  16.000000   ; qtot 0.406297
 5171         oh    153    ccc    O11   5171 -0.57772000  16.000000   ; qtot -0.171423
 5172         c3    153    ccc    C22   5172 0.14548000  12.010000   ; qtot -0.025943
 5173         ho    153    ccc    H33   5173 0.40508000   1.008000   ; qtot 0.379137
 5174         hn    153    ccc    H34   5174 0.31758000   1.008000   ; qtot 0.696717
 5175         h1    153    ccc    H35   5175 0.06278000   1.008000   ; qtot 0.759497
 5176         h1    153    ccc    H36   5176 0.06278000   1.008000   ; qtot 0.822277
 5177         oh    153    ccc    O12   5177 -0.59472000  16.000000   ; qtot 0.227557
 5178         ho    153    ccc    H37   5178 0.41908000   1.008000   ; qtot 0.646637
 5179         os    153    ccc    O13   5179 -0.44552000  16.000000   ; qtot 0.201117
 5180         ho    153    ccc    H38   5180 0.41908000   1.008000   ; qtot 0.620197
 5181         h1    153    ccc    H39   5181 0.08578000   1.008000   ; qtot 0.705977
 5182         oh    153    ccc     O5   5182 -0.58672000  16.000000   ; qtot 0.119257
 5183         ho    153    ccc    H40   5183 0.41908000   1.008000   ; qtot 0.538337
 5184         n3    153    ccc     N4   5184 -0.54282000  14.010000   ; qtot -0.004483
; residue  154 ccc rtp ccc q -0.0
 5185          n    154    ccc     N1   5185 -0.46580000  14.010000   ; qtot -0.470283
 5186         hn    154    ccc     H4   5186 0.31480000   1.008000   ; qtot -0.155483
 5187         c3    154    ccc     C3   5187 -0.28250000  12.010000   ; qtot -0.437983
 5188         h1    154    ccc     H5   5188 0.15710000   1.008000   ; qtot -0.280883
 5189         c3    154    ccc     C4   5189 0.44180000  12.010000   ; qtot 0.160917
 5190         h1    154    ccc     H6   5190 0.15710000   1.008000   ; qtot 0.318017
 5191         h1    154    ccc     H7   5191 -0.03530000   1.008000   ; qtot 0.282717
 5192         h1    154    ccc     H8   5192 -0.03530000   1.008000   ; qtot 0.247417
 5193         n3    154    ccc     N2   5193 -0.74090000  14.010000   ; qtot -0.493483
 5194         c3    154    ccc     C5   5194 0.51680000  12.010000   ; qtot 0.023317
 5195         c3    154    ccc     C6   5195 0.51680000  12.010000   ; qtot 0.540117
 5196         h1    154    ccc     H9   5196 -0.05230000   1.008000   ; qtot 0.487817
 5197         c3    154    ccc     C7   5197 -0.60390000  12.010000   ; qtot -0.116083
 5198         h1    154    ccc    H10   5198 -0.05230000   1.008000   ; qtot -0.168383
 5199         hc    154    ccc    H11   5199 0.16730000   1.008000   ; qtot -0.001083
 5200         hc    154    ccc    H12   5200 0.16730000   1.008000   ; qtot 0.166217
 5201          c    154    ccc     C8   5201 0.72110000  12.010000   ; qtot 0.887317
 5202          o    154    ccc     O2   5202 -0.61950000  16.000000   ; qtot 0.267817
 5203         h1    154    ccc    H13   5203 -0.05230000   1.008000   ; qtot 0.215517
 5204         h1    154    ccc    H14   5204 -0.05230000   1.008000   ; qtot 0.163217
 5205         c3    154    ccc     C9   5205 -0.60390000  12.010000   ; qtot -0.440683
 5206         hc    154    ccc    H15   5206 0.16730000   1.008000   ; qtot -0.273383
 5207         hc    154    ccc    H16   5207 0.16730000   1.008000   ; qtot -0.106083
 5208          c    154    ccc    C10   5208 0.72110000  12.010000   ; qtot 0.615017
 5209          o    154    ccc     O4   5209 -0.61950000  16.000000   ; qtot -0.004483
 5210         c3    154    ccc    C11   5210 0.08518000  12.010000   ; qtot 0.080697
 5211         c3    154    ccc    C12   5211 0.07918000  12.010000   ; qtot 0.159877
 5212         h1    154    ccc    H17   5212 0.06978000   1.008000   ; qtot 0.229657
 5213         c3    154    ccc    C13   5213 0.07918000  12.010000   ; qtot 0.308837
 5214         c3    154    ccc    C14   5214 0.03578000  12.010000   ; qtot 0.344617
 5215         c3    154    ccc    C15   5215 0.33498000  12.010000   ; qtot 0.679597
 5216         h1    154    ccc    H18   5216 0.06178000   1.008000   ; qtot 0.741377
 5217         h1    154    ccc    H19   5217 0.11278000   1.008000   ; qtot 0.854157
 5218         h2    154    ccc    H20   5218 0.12178000   1.008000   ; qtot 0.975937
 5219         oh    154    ccc     O1   5219 -0.56972000  16.000000   ; qtot 0.406217
 5220         oh    154    ccc     O6   5220 -0.57772000  16.000000   ; qtot -0.171503
 5221         c3    154    ccc    C16   5221 0.14548000  12.010000   ; qtot -0.026023
 5222         ho    154    ccc    H21   5222 0.40508000   1.008000   ; qtot 0.379057
 5223         hn    154    ccc    H22   5223 0.31758000   1.008000   ; qtot 0.696637
 5224         h1    154    ccc    H23   5224 0.06278000   1.008000   ; qtot 0.759417
 5225         h1    154    ccc    H24   5225 0.06278000   1.008000   ; qtot 0.822197
 5226         oh    154    ccc     O7   5226 -0.59472000  16.000000   ; qtot 0.227477
 5227         ho    154    ccc    H25   5227 0.41908000   1.008000   ; qtot 0.646557
 5228         os    154    ccc     O8   5228 -0.44552000  16.000000   ; qtot 0.201037
 5229         ho    154    ccc    H26   5229 0.41908000   1.008000   ; qtot 0.620117
 5230         h1    154    ccc    H27   5230 0.08578000   1.008000   ; qtot 0.705897
 5231         oh    154    ccc     O9   5231 -0.58672000  16.000000   ; qtot 0.119177
 5232         ho    154    ccc    H28   5232 0.41908000   1.008000   ; qtot 0.538257
 5233         n3    154    ccc     N3   5233 -0.54282000  14.010000   ; qtot -0.004563
 5234         c3    154    ccc    C17   5234 0.08518000  12.010000   ; qtot 0.080617
 5235         c3    154    ccc    C18   5235 0.07918000  12.010000   ; qtot 0.159797
 5236         h1    154    ccc    H29   5236 0.06978000   1.008000   ; qtot 0.229577
 5237         c3    154    ccc    C19   5237 0.07918000  12.010000   ; qtot 0.308757
 5238         c3    154    ccc    C20   5238 0.03578000  12.010000   ; qtot 0.344537
 5239         c3    154    ccc    C21   5239 0.33498000  12.010000   ; qtot 0.679517
 5240         h1    154    ccc    H30   5240 0.06178000   1.008000   ; qtot 0.741297
 5241         h1    154    ccc    H31   5241 0.11278000   1.008000   ; qtot 0.854077
 5242         h2    154    ccc    H32   5242 0.12178000   1.008000   ; qtot 0.975857
 5243         oh    154    ccc    O10   5243 -0.56972000  16.000000   ; qtot 0.406137
 5244         oh    154    ccc    O11   5244 -0.57772000  16.000000   ; qtot -0.171583
 5245         c3    154    ccc    C22   5245 0.14548000  12.010000   ; qtot -0.026103
 5246         ho    154    ccc    H33   5246 0.40508000   1.008000   ; qtot 0.378977
 5247         hn    154    ccc    H34   5247 0.31758000   1.008000   ; qtot 0.696557
 5248         h1    154    ccc    H35   5248 0.06278000   1.008000   ; qtot 0.759337
 5249         h1    154    ccc    H36   5249 0.06278000   1.008000   ; qtot 0.822117
 5250         oh    154    ccc    O12   5250 -0.59472000  16.000000   ; qtot 0.227397
 5251         ho    154    ccc    H37   5251 0.41908000   1.008000   ; qtot 0.646477
 5252         os    154    ccc    O13   5252 -0.44552000  16.000000   ; qtot 0.200957
 5253         ho    154    ccc    H38   5253 0.41908000   1.008000   ; qtot 0.620037
 5254         h1    154    ccc    H39   5254 0.08578000   1.008000   ; qtot 0.705817
 5255         oh    154    ccc     O5   5255 -0.58672000  16.000000   ; qtot 0.119097
 5256         ho    154    ccc    H40   5256 0.41908000   1.008000   ; qtot 0.538177
 5257         n3    154    ccc     N4   5257 -0.54282000  14.010000   ; qtot -0.004643
; residue  155 ccc rtp ccc q -0.0
 5258          n    155    ccc     N1   5258 -0.46580000  14.010000   ; qtot -0.470443
 5259         hn    155    ccc     H4   5259 0.31480000   1.008000   ; qtot -0.155643
 5260         c3    155    ccc     C3   5260 -0.28250000  12.010000   ; qtot -0.438143
 5261         h1    155    ccc     H5   5261 0.15710000   1.008000   ; qtot -0.281043
 5262         c3    155    ccc     C4   5262 0.44180000  12.010000   ; qtot 0.160757
 5263         h1    155    ccc     H6   5263 0.15710000   1.008000   ; qtot 0.317857
 5264         h1    155    ccc     H7   5264 -0.03530000   1.008000   ; qtot 0.282557
 5265         h1    155    ccc     H8   5265 -0.03530000   1.008000   ; qtot 0.247257
 5266         n3    155    ccc     N2   5266 -0.74090000  14.010000   ; qtot -0.493643
 5267         c3    155    ccc     C5   5267 0.51680000  12.010000   ; qtot 0.023157
 5268         c3    155    ccc     C6   5268 0.51680000  12.010000   ; qtot 0.539957
 5269         h1    155    ccc     H9   5269 -0.05230000   1.008000   ; qtot 0.487657
 5270         c3    155    ccc     C7   5270 -0.60390000  12.010000   ; qtot -0.116243
 5271         h1    155    ccc    H10   5271 -0.05230000   1.008000   ; qtot -0.168543
 5272         hc    155    ccc    H11   5272 0.16730000   1.008000   ; qtot -0.001243
 5273         hc    155    ccc    H12   5273 0.16730000   1.008000   ; qtot 0.166057
 5274          c    155    ccc     C8   5274 0.72110000  12.010000   ; qtot 0.887157
 5275          o    155    ccc     O2   5275 -0.61950000  16.000000   ; qtot 0.267657
 5276         h1    155    ccc    H13   5276 -0.05230000   1.008000   ; qtot 0.215357
 5277         h1    155    ccc    H14   5277 -0.05230000   1.008000   ; qtot 0.163057
 5278         c3    155    ccc     C9   5278 -0.60390000  12.010000   ; qtot -0.440843
 5279         hc    155    ccc    H15   5279 0.16730000   1.008000   ; qtot -0.273543
 5280         hc    155    ccc    H16   5280 0.16730000   1.008000   ; qtot -0.106243
 5281          c    155    ccc    C10   5281 0.72110000  12.010000   ; qtot 0.614857
 5282          o    155    ccc     O4   5282 -0.61950000  16.000000   ; qtot -0.004643
 5283         c3    155    ccc    C11   5283 0.08518000  12.010000   ; qtot 0.080537
 5284         c3    155    ccc    C12   5284 0.07918000  12.010000   ; qtot 0.159717
 5285         h1    155    ccc    H17   5285 0.06978000   1.008000   ; qtot 0.229497
 5286         c3    155    ccc    C13   5286 0.07918000  12.010000   ; qtot 0.308677
 5287         c3    155    ccc    C14   5287 0.03578000  12.010000   ; qtot 0.344457
 5288         c3    155    ccc    C15   5288 0.33498000  12.010000   ; qtot 0.679437
 5289         h1    155    ccc    H18   5289 0.06178000   1.008000   ; qtot 0.741217
 5290         h1    155    ccc    H19   5290 0.11278000   1.008000   ; qtot 0.853997
 5291         h2    155    ccc    H20   5291 0.12178000   1.008000   ; qtot 0.975777
 5292         oh    155    ccc     O1   5292 -0.56972000  16.000000   ; qtot 0.406057
 5293         oh    155    ccc     O6   5293 -0.57772000  16.000000   ; qtot -0.171663
 5294         c3    155    ccc    C16   5294 0.14548000  12.010000   ; qtot -0.026183
 5295         ho    155    ccc    H21   5295 0.40508000   1.008000   ; qtot 0.378897
 5296         hn    155    ccc    H22   5296 0.31758000   1.008000   ; qtot 0.696477
 5297         h1    155    ccc    H23   5297 0.06278000   1.008000   ; qtot 0.759257
 5298         h1    155    ccc    H24   5298 0.06278000   1.008000   ; qtot 0.822037
 5299         oh    155    ccc     O7   5299 -0.59472000  16.000000   ; qtot 0.227317
 5300         ho    155    ccc    H25   5300 0.41908000   1.008000   ; qtot 0.646397
 5301         os    155    ccc     O8   5301 -0.44552000  16.000000   ; qtot 0.200877
 5302         ho    155    ccc    H26   5302 0.41908000   1.008000   ; qtot 0.619957
 5303         h1    155    ccc    H27   5303 0.08578000   1.008000   ; qtot 0.705737
 5304         oh    155    ccc     O9   5304 -0.58672000  16.000000   ; qtot 0.119017
 5305         ho    155    ccc    H28   5305 0.41908000   1.008000   ; qtot 0.538097
 5306         n3    155    ccc     N3   5306 -0.54282000  14.010000   ; qtot -0.004723
 5307         c3    155    ccc    C17   5307 0.08518000  12.010000   ; qtot 0.080457
 5308         c3    155    ccc    C18   5308 0.07918000  12.010000   ; qtot 0.159637
 5309         h1    155    ccc    H29   5309 0.06978000   1.008000   ; qtot 0.229417
 5310         c3    155    ccc    C19   5310 0.07918000  12.010000   ; qtot 0.308597
 5311         c3    155    ccc    C20   5311 0.03578000  12.010000   ; qtot 0.344377
 5312         c3    155    ccc    C21   5312 0.33498000  12.010000   ; qtot 0.679357
 5313         h1    155    ccc    H30   5313 0.06178000   1.008000   ; qtot 0.741137
 5314         h1    155    ccc    H31   5314 0.11278000   1.008000   ; qtot 0.853917
 5315         h2    155    ccc    H32   5315 0.12178000   1.008000   ; qtot 0.975697
 5316         oh    155    ccc    O10   5316 -0.56972000  16.000000   ; qtot 0.405977
 5317         oh    155    ccc    O11   5317 -0.57772000  16.000000   ; qtot -0.171743
 5318         c3    155    ccc    C22   5318 0.14548000  12.010000   ; qtot -0.026263
 5319         ho    155    ccc    H33   5319 0.40508000   1.008000   ; qtot 0.378817
 5320         hn    155    ccc    H34   5320 0.31758000   1.008000   ; qtot 0.696397
 5321         h1    155    ccc    H35   5321 0.06278000   1.008000   ; qtot 0.759177
 5322         h1    155    ccc    H36   5322 0.06278000   1.008000   ; qtot 0.821957
 5323         oh    155    ccc    O12   5323 -0.59472000  16.000000   ; qtot 0.227237
 5324         ho    155    ccc    H37   5324 0.41908000   1.008000   ; qtot 0.646317
 5325         os    155    ccc    O13   5325 -0.44552000  16.000000   ; qtot 0.200797
 5326         ho    155    ccc    H38   5326 0.41908000   1.008000   ; qtot 0.619877
 5327         h1    155    ccc    H39   5327 0.08578000   1.008000   ; qtot 0.705657
 5328         oh    155    ccc     O5   5328 -0.58672000  16.000000   ; qtot 0.118937
 5329         ho    155    ccc    H40   5329 0.41908000   1.008000   ; qtot 0.538017
 5330         n3    155    ccc     N4   5330 -0.54282000  14.010000   ; qtot -0.004803
; residue  156 ccc rtp ccc q -0.0
 5331          n    156    ccc     N1   5331 -0.46580000  14.010000   ; qtot -0.470603
 5332         hn    156    ccc     H4   5332 0.31480000   1.008000   ; qtot -0.155803
 5333         c3    156    ccc     C3   5333 -0.28250000  12.010000   ; qtot -0.438303
 5334         h1    156    ccc     H5   5334 0.15710000   1.008000   ; qtot -0.281203
 5335         c3    156    ccc     C4   5335 0.44180000  12.010000   ; qtot 0.160597
 5336         h1    156    ccc     H6   5336 0.15710000   1.008000   ; qtot 0.317697
 5337         h1    156    ccc     H7   5337 -0.03530000   1.008000   ; qtot 0.282397
 5338         h1    156    ccc     H8   5338 -0.03530000   1.008000   ; qtot 0.247097
 5339         n3    156    ccc     N2   5339 -0.74090000  14.010000   ; qtot -0.493803
 5340         c3    156    ccc     C5   5340 0.51680000  12.010000   ; qtot 0.022997
 5341         c3    156    ccc     C6   5341 0.51680000  12.010000   ; qtot 0.539797
 5342         h1    156    ccc     H9   5342 -0.05230000   1.008000   ; qtot 0.487497
 5343         c3    156    ccc     C7   5343 -0.60390000  12.010000   ; qtot -0.116403
 5344         h1    156    ccc    H10   5344 -0.05230000   1.008000   ; qtot -0.168703
 5345         hc    156    ccc    H11   5345 0.16730000   1.008000   ; qtot -0.001403
 5346         hc    156    ccc    H12   5346 0.16730000   1.008000   ; qtot 0.165897
 5347          c    156    ccc     C8   5347 0.72110000  12.010000   ; qtot 0.886997
 5348          o    156    ccc     O2   5348 -0.61950000  16.000000   ; qtot 0.267497
 5349         h1    156    ccc    H13   5349 -0.05230000   1.008000   ; qtot 0.215197
 5350         h1    156    ccc    H14   5350 -0.05230000   1.008000   ; qtot 0.162897
 5351         c3    156    ccc     C9   5351 -0.60390000  12.010000   ; qtot -0.441003
 5352         hc    156    ccc    H15   5352 0.16730000   1.008000   ; qtot -0.273703
 5353         hc    156    ccc    H16   5353 0.16730000   1.008000   ; qtot -0.106403
 5354          c    156    ccc    C10   5354 0.72110000  12.010000   ; qtot 0.614697
 5355          o    156    ccc     O4   5355 -0.61950000  16.000000   ; qtot -0.004803
 5356         c3    156    ccc    C11   5356 0.08518000  12.010000   ; qtot 0.080377
 5357         c3    156    ccc    C12   5357 0.07918000  12.010000   ; qtot 0.159557
 5358         h1    156    ccc    H17   5358 0.06978000   1.008000   ; qtot 0.229337
 5359         c3    156    ccc    C13   5359 0.07918000  12.010000   ; qtot 0.308517
 5360         c3    156    ccc    C14   5360 0.03578000  12.010000   ; qtot 0.344297
 5361         c3    156    ccc    C15   5361 0.33498000  12.010000   ; qtot 0.679277
 5362         h1    156    ccc    H18   5362 0.06178000   1.008000   ; qtot 0.741057
 5363         h1    156    ccc    H19   5363 0.11278000   1.008000   ; qtot 0.853837
 5364         h2    156    ccc    H20   5364 0.12178000   1.008000   ; qtot 0.975617
 5365         oh    156    ccc     O1   5365 -0.56972000  16.000000   ; qtot 0.405897
 5366         oh    156    ccc     O6   5366 -0.57772000  16.000000   ; qtot -0.171823
 5367         c3    156    ccc    C16   5367 0.14548000  12.010000   ; qtot -0.026343
 5368         ho    156    ccc    H21   5368 0.40508000   1.008000   ; qtot 0.378737
 5369         hn    156    ccc    H22   5369 0.31758000   1.008000   ; qtot 0.696317
 5370         h1    156    ccc    H23   5370 0.06278000   1.008000   ; qtot 0.759097
 5371         h1    156    ccc    H24   5371 0.06278000   1.008000   ; qtot 0.821877
 5372         oh    156    ccc     O7   5372 -0.59472000  16.000000   ; qtot 0.227157
 5373         ho    156    ccc    H25   5373 0.41908000   1.008000   ; qtot 0.646237
 5374         os    156    ccc     O8   5374 -0.44552000  16.000000   ; qtot 0.200717
 5375         ho    156    ccc    H26   5375 0.41908000   1.008000   ; qtot 0.619797
 5376         h1    156    ccc    H27   5376 0.08578000   1.008000   ; qtot 0.705577
 5377         oh    156    ccc     O9   5377 -0.58672000  16.000000   ; qtot 0.118857
 5378         ho    156    ccc    H28   5378 0.41908000   1.008000   ; qtot 0.537937
 5379         n3    156    ccc     N3   5379 -0.54282000  14.010000   ; qtot -0.004883
 5380         c3    156    ccc    C17   5380 0.08518000  12.010000   ; qtot 0.080297
 5381         c3    156    ccc    C18   5381 0.07918000  12.010000   ; qtot 0.159477
 5382         h1    156    ccc    H29   5382 0.06978000   1.008000   ; qtot 0.229257
 5383         c3    156    ccc    C19   5383 0.07918000  12.010000   ; qtot 0.308437
 5384         c3    156    ccc    C20   5384 0.03578000  12.010000   ; qtot 0.344217
 5385         c3    156    ccc    C21   5385 0.33498000  12.010000   ; qtot 0.679197
 5386         h1    156    ccc    H30   5386 0.06178000   1.008000   ; qtot 0.740977
 5387         h1    156    ccc    H31   5387 0.11278000   1.008000   ; qtot 0.853757
 5388         h2    156    ccc    H32   5388 0.12178000   1.008000   ; qtot 0.975537
 5389         oh    156    ccc    O10   5389 -0.56972000  16.000000   ; qtot 0.405817
 5390         oh    156    ccc    O11   5390 -0.57772000  16.000000   ; qtot -0.171903
 5391         c3    156    ccc    C22   5391 0.14548000  12.010000   ; qtot -0.026423
 5392         ho    156    ccc    H33   5392 0.40508000   1.008000   ; qtot 0.378657
 5393         hn    156    ccc    H34   5393 0.31758000   1.008000   ; qtot 0.696237
 5394         h1    156    ccc    H35   5394 0.06278000   1.008000   ; qtot 0.759017
 5395         h1    156    ccc    H36   5395 0.06278000   1.008000   ; qtot 0.821797
 5396         oh    156    ccc    O12   5396 -0.59472000  16.000000   ; qtot 0.227077
 5397         ho    156    ccc    H37   5397 0.41908000   1.008000   ; qtot 0.646157
 5398         os    156    ccc    O13   5398 -0.44552000  16.000000   ; qtot 0.200637
 5399         ho    156    ccc    H38   5399 0.41908000   1.008000   ; qtot 0.619717
 5400         h1    156    ccc    H39   5400 0.08578000   1.008000   ; qtot 0.705497
 5401         oh    156    ccc     O5   5401 -0.58672000  16.000000   ; qtot 0.118777
 5402         ho    156    ccc    H40   5402 0.41908000   1.008000   ; qtot 0.537857
 5403         n3    156    ccc     N4   5403 -0.54282000  14.010000   ; qtot -0.004963
; residue  157 ccc rtp ccc q -0.0
 5404          n    157    ccc     N1   5404 -0.46580000  14.010000   ; qtot -0.470763
 5405         hn    157    ccc     H4   5405 0.31480000   1.008000   ; qtot -0.155963
 5406         c3    157    ccc     C3   5406 -0.28250000  12.010000   ; qtot -0.438463
 5407         h1    157    ccc     H5   5407 0.15710000   1.008000   ; qtot -0.281363
 5408         c3    157    ccc     C4   5408 0.44180000  12.010000   ; qtot 0.160437
 5409         h1    157    ccc     H6   5409 0.15710000   1.008000   ; qtot 0.317537
 5410         h1    157    ccc     H7   5410 -0.03530000   1.008000   ; qtot 0.282237
 5411         h1    157    ccc     H8   5411 -0.03530000   1.008000   ; qtot 0.246937
 5412         n3    157    ccc     N2   5412 -0.74090000  14.010000   ; qtot -0.493963
 5413         c3    157    ccc     C5   5413 0.51680000  12.010000   ; qtot 0.022837
 5414         c3    157    ccc     C6   5414 0.51680000  12.010000   ; qtot 0.539637
 5415         h1    157    ccc     H9   5415 -0.05230000   1.008000   ; qtot 0.487337
 5416         c3    157    ccc     C7   5416 -0.60390000  12.010000   ; qtot -0.116563
 5417         h1    157    ccc    H10   5417 -0.05230000   1.008000   ; qtot -0.168863
 5418         hc    157    ccc    H11   5418 0.16730000   1.008000   ; qtot -0.001563
 5419         hc    157    ccc    H12   5419 0.16730000   1.008000   ; qtot 0.165737
 5420          c    157    ccc     C8   5420 0.72110000  12.010000   ; qtot 0.886837
 5421          o    157    ccc     O2   5421 -0.61950000  16.000000   ; qtot 0.267337
 5422         h1    157    ccc    H13   5422 -0.05230000   1.008000   ; qtot 0.215037
 5423         h1    157    ccc    H14   5423 -0.05230000   1.008000   ; qtot 0.162737
 5424         c3    157    ccc     C9   5424 -0.60390000  12.010000   ; qtot -0.441163
 5425         hc    157    ccc    H15   5425 0.16730000   1.008000   ; qtot -0.273863
 5426         hc    157    ccc    H16   5426 0.16730000   1.008000   ; qtot -0.106563
 5427          c    157    ccc    C10   5427 0.72110000  12.010000   ; qtot 0.614537
 5428          o    157    ccc     O4   5428 -0.61950000  16.000000   ; qtot -0.004963
 5429         c3    157    ccc    C11   5429 0.08518000  12.010000   ; qtot 0.080217
 5430         c3    157    ccc    C12   5430 0.07918000  12.010000   ; qtot 0.159397
 5431         h1    157    ccc    H17   5431 0.06978000   1.008000   ; qtot 0.229177
 5432         c3    157    ccc    C13   5432 0.07918000  12.010000   ; qtot 0.308357
 5433         c3    157    ccc    C14   5433 0.03578000  12.010000   ; qtot 0.344137
 5434         c3    157    ccc    C15   5434 0.33498000  12.010000   ; qtot 0.679117
 5435         h1    157    ccc    H18   5435 0.06178000   1.008000   ; qtot 0.740897
 5436         h1    157    ccc    H19   5436 0.11278000   1.008000   ; qtot 0.853677
 5437         h2    157    ccc    H20   5437 0.12178000   1.008000   ; qtot 0.975457
 5438         oh    157    ccc     O1   5438 -0.56972000  16.000000   ; qtot 0.405737
 5439         oh    157    ccc     O6   5439 -0.57772000  16.000000   ; qtot -0.171983
 5440         c3    157    ccc    C16   5440 0.14548000  12.010000   ; qtot -0.026503
 5441         ho    157    ccc    H21   5441 0.40508000   1.008000   ; qtot 0.378577
 5442         hn    157    ccc    H22   5442 0.31758000   1.008000   ; qtot 0.696157
 5443         h1    157    ccc    H23   5443 0.06278000   1.008000   ; qtot 0.758937
 5444         h1    157    ccc    H24   5444 0.06278000   1.008000   ; qtot 0.821717
 5445         oh    157    ccc     O7   5445 -0.59472000  16.000000   ; qtot 0.226997
 5446         ho    157    ccc    H25   5446 0.41908000   1.008000   ; qtot 0.646077
 5447         os    157    ccc     O8   5447 -0.44552000  16.000000   ; qtot 0.200557
 5448         ho    157    ccc    H26   5448 0.41908000   1.008000   ; qtot 0.619637
 5449         h1    157    ccc    H27   5449 0.08578000   1.008000   ; qtot 0.705417
 5450         oh    157    ccc     O9   5450 -0.58672000  16.000000   ; qtot 0.118697
 5451         ho    157    ccc    H28   5451 0.41908000   1.008000   ; qtot 0.537777
 5452         n3    157    ccc     N3   5452 -0.54282000  14.010000   ; qtot -0.005043
 5453         c3    157    ccc    C17   5453 0.08518000  12.010000   ; qtot 0.080137
 5454         c3    157    ccc    C18   5454 0.07918000  12.010000   ; qtot 0.159317
 5455         h1    157    ccc    H29   5455 0.06978000   1.008000   ; qtot 0.229097
 5456         c3    157    ccc    C19   5456 0.07918000  12.010000   ; qtot 0.308277
 5457         c3    157    ccc    C20   5457 0.03578000  12.010000   ; qtot 0.344057
 5458         c3    157    ccc    C21   5458 0.33498000  12.010000   ; qtot 0.679037
 5459         h1    157    ccc    H30   5459 0.06178000   1.008000   ; qtot 0.740817
 5460         h1    157    ccc    H31   5460 0.11278000   1.008000   ; qtot 0.853597
 5461         h2    157    ccc    H32   5461 0.12178000   1.008000   ; qtot 0.975377
 5462         oh    157    ccc    O10   5462 -0.56972000  16.000000   ; qtot 0.405657
 5463         oh    157    ccc    O11   5463 -0.57772000  16.000000   ; qtot -0.172063
 5464         c3    157    ccc    C22   5464 0.14548000  12.010000   ; qtot -0.026583
 5465         ho    157    ccc    H33   5465 0.40508000   1.008000   ; qtot 0.378497
 5466         hn    157    ccc    H34   5466 0.31758000   1.008000   ; qtot 0.696077
 5467         h1    157    ccc    H35   5467 0.06278000   1.008000   ; qtot 0.758857
 5468         h1    157    ccc    H36   5468 0.06278000   1.008000   ; qtot 0.821637
 5469         oh    157    ccc    O12   5469 -0.59472000  16.000000   ; qtot 0.226917
 5470         ho    157    ccc    H37   5470 0.41908000   1.008000   ; qtot 0.645997
 5471         os    157    ccc    O13   5471 -0.44552000  16.000000   ; qtot 0.200477
 5472         ho    157    ccc    H38   5472 0.41908000   1.008000   ; qtot 0.619557
 5473         h1    157    ccc    H39   5473 0.08578000   1.008000   ; qtot 0.705337
 5474         oh    157    ccc     O5   5474 -0.58672000  16.000000   ; qtot 0.118617
 5475         ho    157    ccc    H40   5475 0.41908000   1.008000   ; qtot 0.537697
 5476         n3    157    ccc     N4   5476 -0.54282000  14.010000   ; qtot -0.005123
; residue  158 ccc rtp ccc q -0.0
 5477          n    158    ccc     N1   5477 -0.46580000  14.010000   ; qtot -0.470923
 5478         hn    158    ccc     H4   5478 0.31480000   1.008000   ; qtot -0.156123
 5479         c3    158    ccc     C3   5479 -0.28250000  12.010000   ; qtot -0.438623
 5480         h1    158    ccc     H5   5480 0.15710000   1.008000   ; qtot -0.281523
 5481         c3    158    ccc     C4   5481 0.44180000  12.010000   ; qtot 0.160277
 5482         h1    158    ccc     H6   5482 0.15710000   1.008000   ; qtot 0.317377
 5483         h1    158    ccc     H7   5483 -0.03530000   1.008000   ; qtot 0.282077
 5484         h1    158    ccc     H8   5484 -0.03530000   1.008000   ; qtot 0.246777
 5485         n3    158    ccc     N2   5485 -0.74090000  14.010000   ; qtot -0.494123
 5486         c3    158    ccc     C5   5486 0.51680000  12.010000   ; qtot 0.022677
 5487         c3    158    ccc     C6   5487 0.51680000  12.010000   ; qtot 0.539477
 5488         h1    158    ccc     H9   5488 -0.05230000   1.008000   ; qtot 0.487177
 5489         c3    158    ccc     C7   5489 -0.60390000  12.010000   ; qtot -0.116723
 5490         h1    158    ccc    H10   5490 -0.05230000   1.008000   ; qtot -0.169023
 5491         hc    158    ccc    H11   5491 0.16730000   1.008000   ; qtot -0.001723
 5492         hc    158    ccc    H12   5492 0.16730000   1.008000   ; qtot 0.165577
 5493          c    158    ccc     C8   5493 0.72110000  12.010000   ; qtot 0.886677
 5494          o    158    ccc     O2   5494 -0.61950000  16.000000   ; qtot 0.267177
 5495         h1    158    ccc    H13   5495 -0.05230000   1.008000   ; qtot 0.214877
 5496         h1    158    ccc    H14   5496 -0.05230000   1.008000   ; qtot 0.162577
 5497         c3    158    ccc     C9   5497 -0.60390000  12.010000   ; qtot -0.441323
 5498         hc    158    ccc    H15   5498 0.16730000   1.008000   ; qtot -0.274023
 5499         hc    158    ccc    H16   5499 0.16730000   1.008000   ; qtot -0.106723
 5500          c    158    ccc    C10   5500 0.72110000  12.010000   ; qtot 0.614377
 5501          o    158    ccc     O4   5501 -0.61950000  16.000000   ; qtot -0.005123
 5502         c3    158    ccc    C11   5502 0.08518000  12.010000   ; qtot 0.080057
 5503         c3    158    ccc    C12   5503 0.07918000  12.010000   ; qtot 0.159237
 5504         h1    158    ccc    H17   5504 0.06978000   1.008000   ; qtot 0.229017
 5505         c3    158    ccc    C13   5505 0.07918000  12.010000   ; qtot 0.308197
 5506         c3    158    ccc    C14   5506 0.03578000  12.010000   ; qtot 0.343977
 5507         c3    158    ccc    C15   5507 0.33498000  12.010000   ; qtot 0.678957
 5508         h1    158    ccc    H18   5508 0.06178000   1.008000   ; qtot 0.740737
 5509         h1    158    ccc    H19   5509 0.11278000   1.008000   ; qtot 0.853517
 5510         h2    158    ccc    H20   5510 0.12178000   1.008000   ; qtot 0.975297
 5511         oh    158    ccc     O1   5511 -0.56972000  16.000000   ; qtot 0.405577
 5512         oh    158    ccc     O6   5512 -0.57772000  16.000000   ; qtot -0.172143
 5513         c3    158    ccc    C16   5513 0.14548000  12.010000   ; qtot -0.026663
 5514         ho    158    ccc    H21   5514 0.40508000   1.008000   ; qtot 0.378417
 5515         hn    158    ccc    H22   5515 0.31758000   1.008000   ; qtot 0.695997
 5516         h1    158    ccc    H23   5516 0.06278000   1.008000   ; qtot 0.758777
 5517         h1    158    ccc    H24   5517 0.06278000   1.008000   ; qtot 0.821557
 5518         oh    158    ccc     O7   5518 -0.59472000  16.000000   ; qtot 0.226837
 5519         ho    158    ccc    H25   5519 0.41908000   1.008000   ; qtot 0.645917
 5520         os    158    ccc     O8   5520 -0.44552000  16.000000   ; qtot 0.200397
 5521         ho    158    ccc    H26   5521 0.41908000   1.008000   ; qtot 0.619477
 5522         h1    158    ccc    H27   5522 0.08578000   1.008000   ; qtot 0.705257
 5523         oh    158    ccc     O9   5523 -0.58672000  16.000000   ; qtot 0.118537
 5524         ho    158    ccc    H28   5524 0.41908000   1.008000   ; qtot 0.537617
 5525         n3    158    ccc     N3   5525 -0.54282000  14.010000   ; qtot -0.005203
 5526         c3    158    ccc    C17   5526 0.08518000  12.010000   ; qtot 0.079977
 5527         c3    158    ccc    C18   5527 0.07918000  12.010000   ; qtot 0.159157
 5528         h1    158    ccc    H29   5528 0.06978000   1.008000   ; qtot 0.228937
 5529         c3    158    ccc    C19   5529 0.07918000  12.010000   ; qtot 0.308117
 5530         c3    158    ccc    C20   5530 0.03578000  12.010000   ; qtot 0.343897
 5531         c3    158    ccc    C21   5531 0.33498000  12.010000   ; qtot 0.678877
 5532         h1    158    ccc    H30   5532 0.06178000   1.008000   ; qtot 0.740657
 5533         h1    158    ccc    H31   5533 0.11278000   1.008000   ; qtot 0.853437
 5534         h2    158    ccc    H32   5534 0.12178000   1.008000   ; qtot 0.975217
 5535         oh    158    ccc    O10   5535 -0.56972000  16.000000   ; qtot 0.405497
 5536         oh    158    ccc    O11   5536 -0.57772000  16.000000   ; qtot -0.172223
 5537         c3    158    ccc    C22   5537 0.14548000  12.010000   ; qtot -0.026743
 5538         ho    158    ccc    H33   5538 0.40508000   1.008000   ; qtot 0.378337
 5539         hn    158    ccc    H34   5539 0.31758000   1.008000   ; qtot 0.695917
 5540         h1    158    ccc    H35   5540 0.06278000   1.008000   ; qtot 0.758697
 5541         h1    158    ccc    H36   5541 0.06278000   1.008000   ; qtot 0.821477
 5542         oh    158    ccc    O12   5542 -0.59472000  16.000000   ; qtot 0.226757
 5543         ho    158    ccc    H37   5543 0.41908000   1.008000   ; qtot 0.645837
 5544         os    158    ccc    O13   5544 -0.44552000  16.000000   ; qtot 0.200317
 5545         ho    158    ccc    H38   5545 0.41908000   1.008000   ; qtot 0.619397
 5546         h1    158    ccc    H39   5546 0.08578000   1.008000   ; qtot 0.705177
 5547         oh    158    ccc     O5   5547 -0.58672000  16.000000   ; qtot 0.118457
 5548         ho    158    ccc    H40   5548 0.41908000   1.008000   ; qtot 0.537537
 5549         n3    158    ccc     N4   5549 -0.54282000  14.010000   ; qtot -0.005283
; residue  159 ccc rtp ccc q -0.0
 5550          n    159    ccc     N1   5550 -0.46580000  14.010000   ; qtot -0.471083
 5551         hn    159    ccc     H4   5551 0.31480000   1.008000   ; qtot -0.156283
 5552         c3    159    ccc     C3   5552 -0.28250000  12.010000   ; qtot -0.438783
 5553         h1    159    ccc     H5   5553 0.15710000   1.008000   ; qtot -0.281683
 5554         c3    159    ccc     C4   5554 0.44180000  12.010000   ; qtot 0.160117
 5555         h1    159    ccc     H6   5555 0.15710000   1.008000   ; qtot 0.317217
 5556         h1    159    ccc     H7   5556 -0.03530000   1.008000   ; qtot 0.281917
 5557         h1    159    ccc     H8   5557 -0.03530000   1.008000   ; qtot 0.246617
 5558         n3    159    ccc     N2   5558 -0.74090000  14.010000   ; qtot -0.494283
 5559         c3    159    ccc     C5   5559 0.51680000  12.010000   ; qtot 0.022517
 5560         c3    159    ccc     C6   5560 0.51680000  12.010000   ; qtot 0.539317
 5561         h1    159    ccc     H9   5561 -0.05230000   1.008000   ; qtot 0.487017
 5562         c3    159    ccc     C7   5562 -0.60390000  12.010000   ; qtot -0.116883
 5563         h1    159    ccc    H10   5563 -0.05230000   1.008000   ; qtot -0.169183
 5564         hc    159    ccc    H11   5564 0.16730000   1.008000   ; qtot -0.001883
 5565         hc    159    ccc    H12   5565 0.16730000   1.008000   ; qtot 0.165417
 5566          c    159    ccc     C8   5566 0.72110000  12.010000   ; qtot 0.886517
 5567          o    159    ccc     O2   5567 -0.61950000  16.000000   ; qtot 0.267017
 5568         h1    159    ccc    H13   5568 -0.05230000   1.008000   ; qtot 0.214717
 5569         h1    159    ccc    H14   5569 -0.05230000   1.008000   ; qtot 0.162417
 5570         c3    159    ccc     C9   5570 -0.60390000  12.010000   ; qtot -0.441483
 5571         hc    159    ccc    H15   5571 0.16730000   1.008000   ; qtot -0.274183
 5572         hc    159    ccc    H16   5572 0.16730000   1.008000   ; qtot -0.106883
 5573          c    159    ccc    C10   5573 0.72110000  12.010000   ; qtot 0.614217
 5574          o    159    ccc     O4   5574 -0.61950000  16.000000   ; qtot -0.005283
 5575         c3    159    ccc    C11   5575 0.08518000  12.010000   ; qtot 0.079897
 5576         c3    159    ccc    C12   5576 0.07918000  12.010000   ; qtot 0.159077
 5577         h1    159    ccc    H17   5577 0.06978000   1.008000   ; qtot 0.228857
 5578         c3    159    ccc    C13   5578 0.07918000  12.010000   ; qtot 0.308037
 5579         c3    159    ccc    C14   5579 0.03578000  12.010000   ; qtot 0.343817
 5580         c3    159    ccc    C15   5580 0.33498000  12.010000   ; qtot 0.678797
 5581         h1    159    ccc    H18   5581 0.06178000   1.008000   ; qtot 0.740577
 5582         h1    159    ccc    H19   5582 0.11278000   1.008000   ; qtot 0.853357
 5583         h2    159    ccc    H20   5583 0.12178000   1.008000   ; qtot 0.975137
 5584         oh    159    ccc     O1   5584 -0.56972000  16.000000   ; qtot 0.405417
 5585         oh    159    ccc     O6   5585 -0.57772000  16.000000   ; qtot -0.172303
 5586         c3    159    ccc    C16   5586 0.14548000  12.010000   ; qtot -0.026823
 5587         ho    159    ccc    H21   5587 0.40508000   1.008000   ; qtot 0.378257
 5588         hn    159    ccc    H22   5588 0.31758000   1.008000   ; qtot 0.695837
 5589         h1    159    ccc    H23   5589 0.06278000   1.008000   ; qtot 0.758617
 5590         h1    159    ccc    H24   5590 0.06278000   1.008000   ; qtot 0.821397
 5591         oh    159    ccc     O7   5591 -0.59472000  16.000000   ; qtot 0.226677
 5592         ho    159    ccc    H25   5592 0.41908000   1.008000   ; qtot 0.645757
 5593         os    159    ccc     O8   5593 -0.44552000  16.000000   ; qtot 0.200237
 5594         ho    159    ccc    H26   5594 0.41908000   1.008000   ; qtot 0.619317
 5595         h1    159    ccc    H27   5595 0.08578000   1.008000   ; qtot 0.705097
 5596         oh    159    ccc     O9   5596 -0.58672000  16.000000   ; qtot 0.118377
 5597         ho    159    ccc    H28   5597 0.41908000   1.008000   ; qtot 0.537457
 5598         n3    159    ccc     N3   5598 -0.54282000  14.010000   ; qtot -0.005363
 5599         c3    159    ccc    C17   5599 0.08518000  12.010000   ; qtot 0.079817
 5600         c3    159    ccc    C18   5600 0.07918000  12.010000   ; qtot 0.158997
 5601         h1    159    ccc    H29   5601 0.06978000   1.008000   ; qtot 0.228777
 5602         c3    159    ccc    C19   5602 0.07918000  12.010000   ; qtot 0.307957
 5603         c3    159    ccc    C20   5603 0.03578000  12.010000   ; qtot 0.343737
 5604         c3    159    ccc    C21   5604 0.33498000  12.010000   ; qtot 0.678717
 5605         h1    159    ccc    H30   5605 0.06178000   1.008000   ; qtot 0.740497
 5606         h1    159    ccc    H31   5606 0.11278000   1.008000   ; qtot 0.853277
 5607         h2    159    ccc    H32   5607 0.12178000   1.008000   ; qtot 0.975057
 5608         oh    159    ccc    O10   5608 -0.56972000  16.000000   ; qtot 0.405337
 5609         oh    159    ccc    O11   5609 -0.57772000  16.000000   ; qtot -0.172383
 5610         c3    159    ccc    C22   5610 0.14548000  12.010000   ; qtot -0.026903
 5611         ho    159    ccc    H33   5611 0.40508000   1.008000   ; qtot 0.378177
 5612         hn    159    ccc    H34   5612 0.31758000   1.008000   ; qtot 0.695757
 5613         h1    159    ccc    H35   5613 0.06278000   1.008000   ; qtot 0.758537
 5614         h1    159    ccc    H36   5614 0.06278000   1.008000   ; qtot 0.821317
 5615         oh    159    ccc    O12   5615 -0.59472000  16.000000   ; qtot 0.226597
 5616         ho    159    ccc    H37   5616 0.41908000   1.008000   ; qtot 0.645677
 5617         os    159    ccc    O13   5617 -0.44552000  16.000000   ; qtot 0.200157
 5618         ho    159    ccc    H38   5618 0.41908000   1.008000   ; qtot 0.619237
 5619         h1    159    ccc    H39   5619 0.08578000   1.008000   ; qtot 0.705017
 5620         oh    159    ccc     O5   5620 -0.58672000  16.000000   ; qtot 0.118297
 5621         ho    159    ccc    H40   5621 0.41908000   1.008000   ; qtot 0.537377
 5622         n3    159    ccc     N4   5622 -0.54282000  14.010000   ; qtot -0.005443
; residue  160 ccc rtp ccc q -0.0
 5623          n    160    ccc     N1   5623 -0.46580000  14.010000   ; qtot -0.471243
 5624         hn    160    ccc     H4   5624 0.31480000   1.008000   ; qtot -0.156443
 5625         c3    160    ccc     C3   5625 -0.28250000  12.010000   ; qtot -0.438943
 5626         h1    160    ccc     H5   5626 0.15710000   1.008000   ; qtot -0.281843
 5627         c3    160    ccc     C4   5627 0.44180000  12.010000   ; qtot 0.159957
 5628         h1    160    ccc     H6   5628 0.15710000   1.008000   ; qtot 0.317057
 5629         h1    160    ccc     H7   5629 -0.03530000   1.008000   ; qtot 0.281757
 5630         h1    160    ccc     H8   5630 -0.03530000   1.008000   ; qtot 0.246457
 5631         n3    160    ccc     N2   5631 -0.74090000  14.010000   ; qtot -0.494443
 5632         c3    160    ccc     C5   5632 0.51680000  12.010000   ; qtot 0.022357
 5633         c3    160    ccc     C6   5633 0.51680000  12.010000   ; qtot 0.539157
 5634         h1    160    ccc     H9   5634 -0.05230000   1.008000   ; qtot 0.486857
 5635         c3    160    ccc     C7   5635 -0.60390000  12.010000   ; qtot -0.117043
 5636         h1    160    ccc    H10   5636 -0.05230000   1.008000   ; qtot -0.169343
 5637         hc    160    ccc    H11   5637 0.16730000   1.008000   ; qtot -0.002043
 5638         hc    160    ccc    H12   5638 0.16730000   1.008000   ; qtot 0.165257
 5639          c    160    ccc     C8   5639 0.72110000  12.010000   ; qtot 0.886357
 5640          o    160    ccc     O2   5640 -0.61950000  16.000000   ; qtot 0.266857
 5641         h1    160    ccc    H13   5641 -0.05230000   1.008000   ; qtot 0.214557
 5642         h1    160    ccc    H14   5642 -0.05230000   1.008000   ; qtot 0.162257
 5643         c3    160    ccc     C9   5643 -0.60390000  12.010000   ; qtot -0.441643
 5644         hc    160    ccc    H15   5644 0.16730000   1.008000   ; qtot -0.274343
 5645         hc    160    ccc    H16   5645 0.16730000   1.008000   ; qtot -0.107043
 5646          c    160    ccc    C10   5646 0.72110000  12.010000   ; qtot 0.614057
 5647          o    160    ccc     O4   5647 -0.61950000  16.000000   ; qtot -0.005443
 5648         c3    160    ccc    C11   5648 0.08518000  12.010000   ; qtot 0.079737
 5649         c3    160    ccc    C12   5649 0.07918000  12.010000   ; qtot 0.158917
 5650         h1    160    ccc    H17   5650 0.06978000   1.008000   ; qtot 0.228697
 5651         c3    160    ccc    C13   5651 0.07918000  12.010000   ; qtot 0.307877
 5652         c3    160    ccc    C14   5652 0.03578000  12.010000   ; qtot 0.343657
 5653         c3    160    ccc    C15   5653 0.33498000  12.010000   ; qtot 0.678637
 5654         h1    160    ccc    H18   5654 0.06178000   1.008000   ; qtot 0.740417
 5655         h1    160    ccc    H19   5655 0.11278000   1.008000   ; qtot 0.853197
 5656         h2    160    ccc    H20   5656 0.12178000   1.008000   ; qtot 0.974977
 5657         oh    160    ccc     O1   5657 -0.56972000  16.000000   ; qtot 0.405257
 5658         oh    160    ccc     O6   5658 -0.57772000  16.000000   ; qtot -0.172463
 5659         c3    160    ccc    C16   5659 0.14548000  12.010000   ; qtot -0.026983
 5660         ho    160    ccc    H21   5660 0.40508000   1.008000   ; qtot 0.378097
 5661         hn    160    ccc    H22   5661 0.31758000   1.008000   ; qtot 0.695677
 5662         h1    160    ccc    H23   5662 0.06278000   1.008000   ; qtot 0.758457
 5663         h1    160    ccc    H24   5663 0.06278000   1.008000   ; qtot 0.821237
 5664         oh    160    ccc     O7   5664 -0.59472000  16.000000   ; qtot 0.226517
 5665         ho    160    ccc    H25   5665 0.41908000   1.008000   ; qtot 0.645597
 5666         os    160    ccc     O8   5666 -0.44552000  16.000000   ; qtot 0.200077
 5667         ho    160    ccc    H26   5667 0.41908000   1.008000   ; qtot 0.619157
 5668         h1    160    ccc    H27   5668 0.08578000   1.008000   ; qtot 0.704937
 5669         oh    160    ccc     O9   5669 -0.58672000  16.000000   ; qtot 0.118217
 5670         ho    160    ccc    H28   5670 0.41908000   1.008000   ; qtot 0.537297
 5671         n3    160    ccc     N3   5671 -0.54282000  14.010000   ; qtot -0.005523
 5672         c3    160    ccc    C17   5672 0.08518000  12.010000   ; qtot 0.079657
 5673         c3    160    ccc    C18   5673 0.07918000  12.010000   ; qtot 0.158837
 5674         h1    160    ccc    H29   5674 0.06978000   1.008000   ; qtot 0.228617
 5675         c3    160    ccc    C19   5675 0.07918000  12.010000   ; qtot 0.307797
 5676         c3    160    ccc    C20   5676 0.03578000  12.010000   ; qtot 0.343577
 5677         c3    160    ccc    C21   5677 0.33498000  12.010000   ; qtot 0.678557
 5678         h1    160    ccc    H30   5678 0.06178000   1.008000   ; qtot 0.740337
 5679         h1    160    ccc    H31   5679 0.11278000   1.008000   ; qtot 0.853117
 5680         h2    160    ccc    H32   5680 0.12178000   1.008000   ; qtot 0.974897
 5681         oh    160    ccc    O10   5681 -0.56972000  16.000000   ; qtot 0.405177
 5682         oh    160    ccc    O11   5682 -0.57772000  16.000000   ; qtot -0.172543
 5683         c3    160    ccc    C22   5683 0.14548000  12.010000   ; qtot -0.027063
 5684         ho    160    ccc    H33   5684 0.40508000   1.008000   ; qtot 0.378017
 5685         hn    160    ccc    H34   5685 0.31758000   1.008000   ; qtot 0.695597
 5686         h1    160    ccc    H35   5686 0.06278000   1.008000   ; qtot 0.758377
 5687         h1    160    ccc    H36   5687 0.06278000   1.008000   ; qtot 0.821157
 5688         oh    160    ccc    O12   5688 -0.59472000  16.000000   ; qtot 0.226437
 5689         ho    160    ccc    H37   5689 0.41908000   1.008000   ; qtot 0.645517
 5690         os    160    ccc    O13   5690 -0.44552000  16.000000   ; qtot 0.199997
 5691         ho    160    ccc    H38   5691 0.41908000   1.008000   ; qtot 0.619077
 5692         h1    160    ccc    H39   5692 0.08578000   1.008000   ; qtot 0.704857
 5693         oh    160    ccc     O5   5693 -0.58672000  16.000000   ; qtot 0.118137
 5694         ho    160    ccc    H40   5694 0.41908000   1.008000   ; qtot 0.537217
 5695         n3    160    ccc     N4   5695 -0.54282000  14.010000   ; qtot -0.005603
; residue  161 ccc rtp ccc q -0.0
 5696          n    161    ccc     N1   5696 -0.46580000  14.010000   ; qtot -0.471403
 5697         hn    161    ccc     H4   5697 0.31480000   1.008000   ; qtot -0.156603
 5698         c3    161    ccc     C3   5698 -0.28250000  12.010000   ; qtot -0.439103
 5699         h1    161    ccc     H5   5699 0.15710000   1.008000   ; qtot -0.282003
 5700         c3    161    ccc     C4   5700 0.44180000  12.010000   ; qtot 0.159797
 5701         h1    161    ccc     H6   5701 0.15710000   1.008000   ; qtot 0.316897
 5702         h1    161    ccc     H7   5702 -0.03530000   1.008000   ; qtot 0.281597
 5703         h1    161    ccc     H8   5703 -0.03530000   1.008000   ; qtot 0.246297
 5704         n3    161    ccc     N2   5704 -0.74090000  14.010000   ; qtot -0.494603
 5705         c3    161    ccc     C5   5705 0.51680000  12.010000   ; qtot 0.022197
 5706         c3    161    ccc     C6   5706 0.51680000  12.010000   ; qtot 0.538997
 5707         h1    161    ccc     H9   5707 -0.05230000   1.008000   ; qtot 0.486697
 5708         c3    161    ccc     C7   5708 -0.60390000  12.010000   ; qtot -0.117203
 5709         h1    161    ccc    H10   5709 -0.05230000   1.008000   ; qtot -0.169503
 5710         hc    161    ccc    H11   5710 0.16730000   1.008000   ; qtot -0.002203
 5711         hc    161    ccc    H12   5711 0.16730000   1.008000   ; qtot 0.165097
 5712          c    161    ccc     C8   5712 0.72110000  12.010000   ; qtot 0.886197
 5713          o    161    ccc     O2   5713 -0.61950000  16.000000   ; qtot 0.266697
 5714         h1    161    ccc    H13   5714 -0.05230000   1.008000   ; qtot 0.214397
 5715         h1    161    ccc    H14   5715 -0.05230000   1.008000   ; qtot 0.162097
 5716         c3    161    ccc     C9   5716 -0.60390000  12.010000   ; qtot -0.441803
 5717         hc    161    ccc    H15   5717 0.16730000   1.008000   ; qtot -0.274503
 5718         hc    161    ccc    H16   5718 0.16730000   1.008000   ; qtot -0.107203
 5719          c    161    ccc    C10   5719 0.72110000  12.010000   ; qtot 0.613897
 5720          o    161    ccc     O4   5720 -0.61950000  16.000000   ; qtot -0.005603
 5721         c3    161    ccc    C11   5721 0.08518000  12.010000   ; qtot 0.079577
 5722         c3    161    ccc    C12   5722 0.07918000  12.010000   ; qtot 0.158757
 5723         h1    161    ccc    H17   5723 0.06978000   1.008000   ; qtot 0.228537
 5724         c3    161    ccc    C13   5724 0.07918000  12.010000   ; qtot 0.307717
 5725         c3    161    ccc    C14   5725 0.03578000  12.010000   ; qtot 0.343497
 5726         c3    161    ccc    C15   5726 0.33498000  12.010000   ; qtot 0.678477
 5727         h1    161    ccc    H18   5727 0.06178000   1.008000   ; qtot 0.740257
 5728         h1    161    ccc    H19   5728 0.11278000   1.008000   ; qtot 0.853037
 5729         h2    161    ccc    H20   5729 0.12178000   1.008000   ; qtot 0.974817
 5730         oh    161    ccc     O1   5730 -0.56972000  16.000000   ; qtot 0.405097
 5731         oh    161    ccc     O6   5731 -0.57772000  16.000000   ; qtot -0.172623
 5732         c3    161    ccc    C16   5732 0.14548000  12.010000   ; qtot -0.027143
 5733         ho    161    ccc    H21   5733 0.40508000   1.008000   ; qtot 0.377937
 5734         hn    161    ccc    H22   5734 0.31758000   1.008000   ; qtot 0.695517
 5735         h1    161    ccc    H23   5735 0.06278000   1.008000   ; qtot 0.758297
 5736         h1    161    ccc    H24   5736 0.06278000   1.008000   ; qtot 0.821077
 5737         oh    161    ccc     O7   5737 -0.59472000  16.000000   ; qtot 0.226357
 5738         ho    161    ccc    H25   5738 0.41908000   1.008000   ; qtot 0.645437
 5739         os    161    ccc     O8   5739 -0.44552000  16.000000   ; qtot 0.199917
 5740         ho    161    ccc    H26   5740 0.41908000   1.008000   ; qtot 0.618997
 5741         h1    161    ccc    H27   5741 0.08578000   1.008000   ; qtot 0.704777
 5742         oh    161    ccc     O9   5742 -0.58672000  16.000000   ; qtot 0.118057
 5743         ho    161    ccc    H28   5743 0.41908000   1.008000   ; qtot 0.537137
 5744         n3    161    ccc     N3   5744 -0.54282000  14.010000   ; qtot -0.005683
 5745         c3    161    ccc    C17   5745 0.08518000  12.010000   ; qtot 0.079497
 5746         c3    161    ccc    C18   5746 0.07918000  12.010000   ; qtot 0.158677
 5747         h1    161    ccc    H29   5747 0.06978000   1.008000   ; qtot 0.228457
 5748         c3    161    ccc    C19   5748 0.07918000  12.010000   ; qtot 0.307637
 5749         c3    161    ccc    C20   5749 0.03578000  12.010000   ; qtot 0.343417
 5750         c3    161    ccc    C21   5750 0.33498000  12.010000   ; qtot 0.678397
 5751         h1    161    ccc    H30   5751 0.06178000   1.008000   ; qtot 0.740177
 5752         h1    161    ccc    H31   5752 0.11278000   1.008000   ; qtot 0.852957
 5753         h2    161    ccc    H32   5753 0.12178000   1.008000   ; qtot 0.974737
 5754         oh    161    ccc    O10   5754 -0.56972000  16.000000   ; qtot 0.405017
 5755         oh    161    ccc    O11   5755 -0.57772000  16.000000   ; qtot -0.172703
 5756         c3    161    ccc    C22   5756 0.14548000  12.010000   ; qtot -0.027223
 5757         ho    161    ccc    H33   5757 0.40508000   1.008000   ; qtot 0.377857
 5758         hn    161    ccc    H34   5758 0.31758000   1.008000   ; qtot 0.695437
 5759         h1    161    ccc    H35   5759 0.06278000   1.008000   ; qtot 0.758217
 5760         h1    161    ccc    H36   5760 0.06278000   1.008000   ; qtot 0.820997
 5761         oh    161    ccc    O12   5761 -0.59472000  16.000000   ; qtot 0.226277
 5762         ho    161    ccc    H37   5762 0.41908000   1.008000   ; qtot 0.645357
 5763         os    161    ccc    O13   5763 -0.44552000  16.000000   ; qtot 0.199837
 5764         ho    161    ccc    H38   5764 0.41908000   1.008000   ; qtot 0.618917
 5765         h1    161    ccc    H39   5765 0.08578000   1.008000   ; qtot 0.704697
 5766         oh    161    ccc     O5   5766 -0.58672000  16.000000   ; qtot 0.117977
 5767         ho    161    ccc    H40   5767 0.41908000   1.008000   ; qtot 0.537057
 5768         n3    161    ccc     N4   5768 -0.54282000  14.010000   ; qtot -0.005763
; residue  162 ccc rtp ccc q -0.0
 5769          n    162    ccc     N1   5769 -0.46580000  14.010000   ; qtot -0.471563
 5770         hn    162    ccc     H4   5770 0.31480000   1.008000   ; qtot -0.156763
 5771         c3    162    ccc     C3   5771 -0.28250000  12.010000   ; qtot -0.439263
 5772         h1    162    ccc     H5   5772 0.15710000   1.008000   ; qtot -0.282163
 5773         c3    162    ccc     C4   5773 0.44180000  12.010000   ; qtot 0.159637
 5774         h1    162    ccc     H6   5774 0.15710000   1.008000   ; qtot 0.316737
 5775         h1    162    ccc     H7   5775 -0.03530000   1.008000   ; qtot 0.281437
 5776         h1    162    ccc     H8   5776 -0.03530000   1.008000   ; qtot 0.246137
 5777         n3    162    ccc     N2   5777 -0.74090000  14.010000   ; qtot -0.494763
 5778         c3    162    ccc     C5   5778 0.51680000  12.010000   ; qtot 0.022037
 5779         c3    162    ccc     C6   5779 0.51680000  12.010000   ; qtot 0.538837
 5780         h1    162    ccc     H9   5780 -0.05230000   1.008000   ; qtot 0.486537
 5781         c3    162    ccc     C7   5781 -0.60390000  12.010000   ; qtot -0.117363
 5782         h1    162    ccc    H10   5782 -0.05230000   1.008000   ; qtot -0.169663
 5783         hc    162    ccc    H11   5783 0.16730000   1.008000   ; qtot -0.002363
 5784         hc    162    ccc    H12   5784 0.16730000   1.008000   ; qtot 0.164937
 5785          c    162    ccc     C8   5785 0.72110000  12.010000   ; qtot 0.886037
 5786          o    162    ccc     O2   5786 -0.61950000  16.000000   ; qtot 0.266537
 5787         h1    162    ccc    H13   5787 -0.05230000   1.008000   ; qtot 0.214237
 5788         h1    162    ccc    H14   5788 -0.05230000   1.008000   ; qtot 0.161937
 5789         c3    162    ccc     C9   5789 -0.60390000  12.010000   ; qtot -0.441963
 5790         hc    162    ccc    H15   5790 0.16730000   1.008000   ; qtot -0.274663
 5791         hc    162    ccc    H16   5791 0.16730000   1.008000   ; qtot -0.107363
 5792          c    162    ccc    C10   5792 0.72110000  12.010000   ; qtot 0.613737
 5793          o    162    ccc     O4   5793 -0.61950000  16.000000   ; qtot -0.005763
 5794         c3    162    ccc    C11   5794 0.08518000  12.010000   ; qtot 0.079417
 5795         c3    162    ccc    C12   5795 0.07918000  12.010000   ; qtot 0.158597
 5796         h1    162    ccc    H17   5796 0.06978000   1.008000   ; qtot 0.228377
 5797         c3    162    ccc    C13   5797 0.07918000  12.010000   ; qtot 0.307557
 5798         c3    162    ccc    C14   5798 0.03578000  12.010000   ; qtot 0.343337
 5799         c3    162    ccc    C15   5799 0.33498000  12.010000   ; qtot 0.678317
 5800         h1    162    ccc    H18   5800 0.06178000   1.008000   ; qtot 0.740097
 5801         h1    162    ccc    H19   5801 0.11278000   1.008000   ; qtot 0.852877
 5802         h2    162    ccc    H20   5802 0.12178000   1.008000   ; qtot 0.974657
 5803         oh    162    ccc     O1   5803 -0.56972000  16.000000   ; qtot 0.404937
 5804         oh    162    ccc     O6   5804 -0.57772000  16.000000   ; qtot -0.172783
 5805         c3    162    ccc    C16   5805 0.14548000  12.010000   ; qtot -0.027303
 5806         ho    162    ccc    H21   5806 0.40508000   1.008000   ; qtot 0.377777
 5807         hn    162    ccc    H22   5807 0.31758000   1.008000   ; qtot 0.695357
 5808         h1    162    ccc    H23   5808 0.06278000   1.008000   ; qtot 0.758137
 5809         h1    162    ccc    H24   5809 0.06278000   1.008000   ; qtot 0.820917
 5810         oh    162    ccc     O7   5810 -0.59472000  16.000000   ; qtot 0.226197
 5811         ho    162    ccc    H25   5811 0.41908000   1.008000   ; qtot 0.645277
 5812         os    162    ccc     O8   5812 -0.44552000  16.000000   ; qtot 0.199757
 5813         ho    162    ccc    H26   5813 0.41908000   1.008000   ; qtot 0.618837
 5814         h1    162    ccc    H27   5814 0.08578000   1.008000   ; qtot 0.704617
 5815         oh    162    ccc     O9   5815 -0.58672000  16.000000   ; qtot 0.117897
 5816         ho    162    ccc    H28   5816 0.41908000   1.008000   ; qtot 0.536977
 5817         n3    162    ccc     N3   5817 -0.54282000  14.010000   ; qtot -0.005843
 5818         c3    162    ccc    C17   5818 0.08518000  12.010000   ; qtot 0.079337
 5819         c3    162    ccc    C18   5819 0.07918000  12.010000   ; qtot 0.158517
 5820         h1    162    ccc    H29   5820 0.06978000   1.008000   ; qtot 0.228297
 5821         c3    162    ccc    C19   5821 0.07918000  12.010000   ; qtot 0.307477
 5822         c3    162    ccc    C20   5822 0.03578000  12.010000   ; qtot 0.343257
 5823         c3    162    ccc    C21   5823 0.33498000  12.010000   ; qtot 0.678237
 5824         h1    162    ccc    H30   5824 0.06178000   1.008000   ; qtot 0.740017
 5825         h1    162    ccc    H31   5825 0.11278000   1.008000   ; qtot 0.852797
 5826         h2    162    ccc    H32   5826 0.12178000   1.008000   ; qtot 0.974577
 5827         oh    162    ccc    O10   5827 -0.56972000  16.000000   ; qtot 0.404857
 5828         oh    162    ccc    O11   5828 -0.57772000  16.000000   ; qtot -0.172863
 5829         c3    162    ccc    C22   5829 0.14548000  12.010000   ; qtot -0.027383
 5830         ho    162    ccc    H33   5830 0.40508000   1.008000   ; qtot 0.377697
 5831         hn    162    ccc    H34   5831 0.31758000   1.008000   ; qtot 0.695277
 5832         h1    162    ccc    H35   5832 0.06278000   1.008000   ; qtot 0.758057
 5833         h1    162    ccc    H36   5833 0.06278000   1.008000   ; qtot 0.820837
 5834         oh    162    ccc    O12   5834 -0.59472000  16.000000   ; qtot 0.226117
 5835         ho    162    ccc    H37   5835 0.41908000   1.008000   ; qtot 0.645197
 5836         os    162    ccc    O13   5836 -0.44552000  16.000000   ; qtot 0.199677
 5837         ho    162    ccc    H38   5837 0.41908000   1.008000   ; qtot 0.618757
 5838         h1    162    ccc    H39   5838 0.08578000   1.008000   ; qtot 0.704537
 5839         oh    162    ccc     O5   5839 -0.58672000  16.000000   ; qtot 0.117817
 5840         ho    162    ccc    H40   5840 0.41908000   1.008000   ; qtot 0.536897
 5841         n3    162    ccc     N4   5841 -0.54282000  14.010000   ; qtot -0.005923
; residue  163 ccc rtp ccc q -0.0
 5842          n    163    ccc     N1   5842 -0.46580000  14.010000   ; qtot -0.471723
 5843         hn    163    ccc     H4   5843 0.31480000   1.008000   ; qtot -0.156923
 5844         c3    163    ccc     C3   5844 -0.28250000  12.010000   ; qtot -0.439423
 5845         h1    163    ccc     H5   5845 0.15710000   1.008000   ; qtot -0.282323
 5846         c3    163    ccc     C4   5846 0.44180000  12.010000   ; qtot 0.159477
 5847         h1    163    ccc     H6   5847 0.15710000   1.008000   ; qtot 0.316577
 5848         h1    163    ccc     H7   5848 -0.03530000   1.008000   ; qtot 0.281277
 5849         h1    163    ccc     H8   5849 -0.03530000   1.008000   ; qtot 0.245977
 5850         n3    163    ccc     N2   5850 -0.74090000  14.010000   ; qtot -0.494923
 5851         c3    163    ccc     C5   5851 0.51680000  12.010000   ; qtot 0.021877
 5852         c3    163    ccc     C6   5852 0.51680000  12.010000   ; qtot 0.538677
 5853         h1    163    ccc     H9   5853 -0.05230000   1.008000   ; qtot 0.486377
 5854         c3    163    ccc     C7   5854 -0.60390000  12.010000   ; qtot -0.117523
 5855         h1    163    ccc    H10   5855 -0.05230000   1.008000   ; qtot -0.169823
 5856         hc    163    ccc    H11   5856 0.16730000   1.008000   ; qtot -0.002523
 5857         hc    163    ccc    H12   5857 0.16730000   1.008000   ; qtot 0.164777
 5858          c    163    ccc     C8   5858 0.72110000  12.010000   ; qtot 0.885877
 5859          o    163    ccc     O2   5859 -0.61950000  16.000000   ; qtot 0.266377
 5860         h1    163    ccc    H13   5860 -0.05230000   1.008000   ; qtot 0.214077
 5861         h1    163    ccc    H14   5861 -0.05230000   1.008000   ; qtot 0.161777
 5862         c3    163    ccc     C9   5862 -0.60390000  12.010000   ; qtot -0.442123
 5863         hc    163    ccc    H15   5863 0.16730000   1.008000   ; qtot -0.274823
 5864         hc    163    ccc    H16   5864 0.16730000   1.008000   ; qtot -0.107523
 5865          c    163    ccc    C10   5865 0.72110000  12.010000   ; qtot 0.613577
 5866          o    163    ccc     O4   5866 -0.61950000  16.000000   ; qtot -0.005923
 5867         c3    163    ccc    C11   5867 0.08518000  12.010000   ; qtot 0.079257
 5868         c3    163    ccc    C12   5868 0.07918000  12.010000   ; qtot 0.158437
 5869         h1    163    ccc    H17   5869 0.06978000   1.008000   ; qtot 0.228217
 5870         c3    163    ccc    C13   5870 0.07918000  12.010000   ; qtot 0.307397
 5871         c3    163    ccc    C14   5871 0.03578000  12.010000   ; qtot 0.343177
 5872         c3    163    ccc    C15   5872 0.33498000  12.010000   ; qtot 0.678157
 5873         h1    163    ccc    H18   5873 0.06178000   1.008000   ; qtot 0.739937
 5874         h1    163    ccc    H19   5874 0.11278000   1.008000   ; qtot 0.852717
 5875         h2    163    ccc    H20   5875 0.12178000   1.008000   ; qtot 0.974497
 5876         oh    163    ccc     O1   5876 -0.56972000  16.000000   ; qtot 0.404777
 5877         oh    163    ccc     O6   5877 -0.57772000  16.000000   ; qtot -0.172943
 5878         c3    163    ccc    C16   5878 0.14548000  12.010000   ; qtot -0.027463
 5879         ho    163    ccc    H21   5879 0.40508000   1.008000   ; qtot 0.377617
 5880         hn    163    ccc    H22   5880 0.31758000   1.008000   ; qtot 0.695197
 5881         h1    163    ccc    H23   5881 0.06278000   1.008000   ; qtot 0.757977
 5882         h1    163    ccc    H24   5882 0.06278000   1.008000   ; qtot 0.820757
 5883         oh    163    ccc     O7   5883 -0.59472000  16.000000   ; qtot 0.226037
 5884         ho    163    ccc    H25   5884 0.41908000   1.008000   ; qtot 0.645117
 5885         os    163    ccc     O8   5885 -0.44552000  16.000000   ; qtot 0.199597
 5886         ho    163    ccc    H26   5886 0.41908000   1.008000   ; qtot 0.618677
 5887         h1    163    ccc    H27   5887 0.08578000   1.008000   ; qtot 0.704457
 5888         oh    163    ccc     O9   5888 -0.58672000  16.000000   ; qtot 0.117737
 5889         ho    163    ccc    H28   5889 0.41908000   1.008000   ; qtot 0.536817
 5890         n3    163    ccc     N3   5890 -0.54282000  14.010000   ; qtot -0.006003
 5891         c3    163    ccc    C17   5891 0.08518000  12.010000   ; qtot 0.079177
 5892         c3    163    ccc    C18   5892 0.07918000  12.010000   ; qtot 0.158357
 5893         h1    163    ccc    H29   5893 0.06978000   1.008000   ; qtot 0.228137
 5894         c3    163    ccc    C19   5894 0.07918000  12.010000   ; qtot 0.307317
 5895         c3    163    ccc    C20   5895 0.03578000  12.010000   ; qtot 0.343097
 5896         c3    163    ccc    C21   5896 0.33498000  12.010000   ; qtot 0.678077
 5897         h1    163    ccc    H30   5897 0.06178000   1.008000   ; qtot 0.739857
 5898         h1    163    ccc    H31   5898 0.11278000   1.008000   ; qtot 0.852637
 5899         h2    163    ccc    H32   5899 0.12178000   1.008000   ; qtot 0.974417
 5900         oh    163    ccc    O10   5900 -0.56972000  16.000000   ; qtot 0.404697
 5901         oh    163    ccc    O11   5901 -0.57772000  16.000000   ; qtot -0.173023
 5902         c3    163    ccc    C22   5902 0.14548000  12.010000   ; qtot -0.027543
 5903         ho    163    ccc    H33   5903 0.40508000   1.008000   ; qtot 0.377537
 5904         hn    163    ccc    H34   5904 0.31758000   1.008000   ; qtot 0.695117
 5905         h1    163    ccc    H35   5905 0.06278000   1.008000   ; qtot 0.757897
 5906         h1    163    ccc    H36   5906 0.06278000   1.008000   ; qtot 0.820677
 5907         oh    163    ccc    O12   5907 -0.59472000  16.000000   ; qtot 0.225957
 5908         ho    163    ccc    H37   5908 0.41908000   1.008000   ; qtot 0.645037
 5909         os    163    ccc    O13   5909 -0.44552000  16.000000   ; qtot 0.199517
 5910         ho    163    ccc    H38   5910 0.41908000   1.008000   ; qtot 0.618597
 5911         h1    163    ccc    H39   5911 0.08578000   1.008000   ; qtot 0.704377
 5912         oh    163    ccc     O5   5912 -0.58672000  16.000000   ; qtot 0.117657
 5913         ho    163    ccc    H40   5913 0.41908000   1.008000   ; qtot 0.536737
 5914         n3    163    ccc     N4   5914 -0.54282000  14.010000   ; qtot -0.006083
; residue  164 ccc rtp ccc q -0.0
 5915          n    164    ccc     N1   5915 -0.46580000  14.010000   ; qtot -0.471883
 5916         hn    164    ccc     H4   5916 0.31480000   1.008000   ; qtot -0.157083
 5917         c3    164    ccc     C3   5917 -0.28250000  12.010000   ; qtot -0.439583
 5918         h1    164    ccc     H5   5918 0.15710000   1.008000   ; qtot -0.282483
 5919         c3    164    ccc     C4   5919 0.44180000  12.010000   ; qtot 0.159317
 5920         h1    164    ccc     H6   5920 0.15710000   1.008000   ; qtot 0.316417
 5921         h1    164    ccc     H7   5921 -0.03530000   1.008000   ; qtot 0.281117
 5922         h1    164    ccc     H8   5922 -0.03530000   1.008000   ; qtot 0.245817
 5923         n3    164    ccc     N2   5923 -0.74090000  14.010000   ; qtot -0.495083
 5924         c3    164    ccc     C5   5924 0.51680000  12.010000   ; qtot 0.021717
 5925         c3    164    ccc     C6   5925 0.51680000  12.010000   ; qtot 0.538517
 5926         h1    164    ccc     H9   5926 -0.05230000   1.008000   ; qtot 0.486217
 5927         c3    164    ccc     C7   5927 -0.60390000  12.010000   ; qtot -0.117683
 5928         h1    164    ccc    H10   5928 -0.05230000   1.008000   ; qtot -0.169983
 5929         hc    164    ccc    H11   5929 0.16730000   1.008000   ; qtot -0.002683
 5930         hc    164    ccc    H12   5930 0.16730000   1.008000   ; qtot 0.164617
 5931          c    164    ccc     C8   5931 0.72110000  12.010000   ; qtot 0.885717
 5932          o    164    ccc     O2   5932 -0.61950000  16.000000   ; qtot 0.266217
 5933         h1    164    ccc    H13   5933 -0.05230000   1.008000   ; qtot 0.213917
 5934         h1    164    ccc    H14   5934 -0.05230000   1.008000   ; qtot 0.161617
 5935         c3    164    ccc     C9   5935 -0.60390000  12.010000   ; qtot -0.442283
 5936         hc    164    ccc    H15   5936 0.16730000   1.008000   ; qtot -0.274983
 5937         hc    164    ccc    H16   5937 0.16730000   1.008000   ; qtot -0.107683
 5938          c    164    ccc    C10   5938 0.72110000  12.010000   ; qtot 0.613417
 5939          o    164    ccc     O4   5939 -0.61950000  16.000000   ; qtot -0.006083
 5940         c3    164    ccc    C11   5940 0.08518000  12.010000   ; qtot 0.079097
 5941         c3    164    ccc    C12   5941 0.07918000  12.010000   ; qtot 0.158277
 5942         h1    164    ccc    H17   5942 0.06978000   1.008000   ; qtot 0.228057
 5943         c3    164    ccc    C13   5943 0.07918000  12.010000   ; qtot 0.307237
 5944         c3    164    ccc    C14   5944 0.03578000  12.010000   ; qtot 0.343017
 5945         c3    164    ccc    C15   5945 0.33498000  12.010000   ; qtot 0.677997
 5946         h1    164    ccc    H18   5946 0.06178000   1.008000   ; qtot 0.739777
 5947         h1    164    ccc    H19   5947 0.11278000   1.008000   ; qtot 0.852557
 5948         h2    164    ccc    H20   5948 0.12178000   1.008000   ; qtot 0.974337
 5949         oh    164    ccc     O1   5949 -0.56972000  16.000000   ; qtot 0.404617
 5950         oh    164    ccc     O6   5950 -0.57772000  16.000000   ; qtot -0.173103
 5951         c3    164    ccc    C16   5951 0.14548000  12.010000   ; qtot -0.027623
 5952         ho    164    ccc    H21   5952 0.40508000   1.008000   ; qtot 0.377457
 5953         hn    164    ccc    H22   5953 0.31758000   1.008000   ; qtot 0.695037
 5954         h1    164    ccc    H23   5954 0.06278000   1.008000   ; qtot 0.757817
 5955         h1    164    ccc    H24   5955 0.06278000   1.008000   ; qtot 0.820597
 5956         oh    164    ccc     O7   5956 -0.59472000  16.000000   ; qtot 0.225877
 5957         ho    164    ccc    H25   5957 0.41908000   1.008000   ; qtot 0.644957
 5958         os    164    ccc     O8   5958 -0.44552000  16.000000   ; qtot 0.199437
 5959         ho    164    ccc    H26   5959 0.41908000   1.008000   ; qtot 0.618517
 5960         h1    164    ccc    H27   5960 0.08578000   1.008000   ; qtot 0.704297
 5961         oh    164    ccc     O9   5961 -0.58672000  16.000000   ; qtot 0.117577
 5962         ho    164    ccc    H28   5962 0.41908000   1.008000   ; qtot 0.536657
 5963         n3    164    ccc     N3   5963 -0.54282000  14.010000   ; qtot -0.006163
 5964         c3    164    ccc    C17   5964 0.08518000  12.010000   ; qtot 0.079017
 5965         c3    164    ccc    C18   5965 0.07918000  12.010000   ; qtot 0.158197
 5966         h1    164    ccc    H29   5966 0.06978000   1.008000   ; qtot 0.227977
 5967         c3    164    ccc    C19   5967 0.07918000  12.010000   ; qtot 0.307157
 5968         c3    164    ccc    C20   5968 0.03578000  12.010000   ; qtot 0.342937
 5969         c3    164    ccc    C21   5969 0.33498000  12.010000   ; qtot 0.677917
 5970         h1    164    ccc    H30   5970 0.06178000   1.008000   ; qtot 0.739697
 5971         h1    164    ccc    H31   5971 0.11278000   1.008000   ; qtot 0.852477
 5972         h2    164    ccc    H32   5972 0.12178000   1.008000   ; qtot 0.974257
 5973         oh    164    ccc    O10   5973 -0.56972000  16.000000   ; qtot 0.404537
 5974         oh    164    ccc    O11   5974 -0.57772000  16.000000   ; qtot -0.173183
 5975         c3    164    ccc    C22   5975 0.14548000  12.010000   ; qtot -0.027703
 5976         ho    164    ccc    H33   5976 0.40508000   1.008000   ; qtot 0.377377
 5977         hn    164    ccc    H34   5977 0.31758000   1.008000   ; qtot 0.694957
 5978         h1    164    ccc    H35   5978 0.06278000   1.008000   ; qtot 0.757737
 5979         h1    164    ccc    H36   5979 0.06278000   1.008000   ; qtot 0.820517
 5980         oh    164    ccc    O12   5980 -0.59472000  16.000000   ; qtot 0.225797
 5981         ho    164    ccc    H37   5981 0.41908000   1.008000   ; qtot 0.644877
 5982         os    164    ccc    O13   5982 -0.44552000  16.000000   ; qtot 0.199357
 5983         ho    164    ccc    H38   5983 0.41908000   1.008000   ; qtot 0.618437
 5984         h1    164    ccc    H39   5984 0.08578000   1.008000   ; qtot 0.704217
 5985         oh    164    ccc     O5   5985 -0.58672000  16.000000   ; qtot 0.117497
 5986         ho    164    ccc    H40   5986 0.41908000   1.008000   ; qtot 0.536577
 5987         n3    164    ccc     N4   5987 -0.54282000  14.010000   ; qtot -0.006243
; residue  165 ccc rtp ccc q -0.0
 5988          n    165    ccc     N1   5988 -0.46580000  14.010000   ; qtot -0.472043
 5989         hn    165    ccc     H4   5989 0.31480000   1.008000   ; qtot -0.157243
 5990         c3    165    ccc     C3   5990 -0.28250000  12.010000   ; qtot -0.439743
 5991         h1    165    ccc     H5   5991 0.15710000   1.008000   ; qtot -0.282643
 5992         c3    165    ccc     C4   5992 0.44180000  12.010000   ; qtot 0.159157
 5993         h1    165    ccc     H6   5993 0.15710000   1.008000   ; qtot 0.316257
 5994         h1    165    ccc     H7   5994 -0.03530000   1.008000   ; qtot 0.280957
 5995         h1    165    ccc     H8   5995 -0.03530000   1.008000   ; qtot 0.245657
 5996         n3    165    ccc     N2   5996 -0.74090000  14.010000   ; qtot -0.495243
 5997         c3    165    ccc     C5   5997 0.51680000  12.010000   ; qtot 0.021557
 5998         c3    165    ccc     C6   5998 0.51680000  12.010000   ; qtot 0.538357
 5999         h1    165    ccc     H9   5999 -0.05230000   1.008000   ; qtot 0.486057
 6000         c3    165    ccc     C7   6000 -0.60390000  12.010000   ; qtot -0.117843
 6001         h1    165    ccc    H10   6001 -0.05230000   1.008000   ; qtot -0.170143
 6002         hc    165    ccc    H11   6002 0.16730000   1.008000   ; qtot -0.002843
 6003         hc    165    ccc    H12   6003 0.16730000   1.008000   ; qtot 0.164457
 6004          c    165    ccc     C8   6004 0.72110000  12.010000   ; qtot 0.885557
 6005          o    165    ccc     O2   6005 -0.61950000  16.000000   ; qtot 0.266057
 6006         h1    165    ccc    H13   6006 -0.05230000   1.008000   ; qtot 0.213757
 6007         h1    165    ccc    H14   6007 -0.05230000   1.008000   ; qtot 0.161457
 6008         c3    165    ccc     C9   6008 -0.60390000  12.010000   ; qtot -0.442443
 6009         hc    165    ccc    H15   6009 0.16730000   1.008000   ; qtot -0.275143
 6010         hc    165    ccc    H16   6010 0.16730000   1.008000   ; qtot -0.107843
 6011          c    165    ccc    C10   6011 0.72110000  12.010000   ; qtot 0.613257
 6012          o    165    ccc     O4   6012 -0.61950000  16.000000   ; qtot -0.006243
 6013         c3    165    ccc    C11   6013 0.08518000  12.010000   ; qtot 0.078937
 6014         c3    165    ccc    C12   6014 0.07918000  12.010000   ; qtot 0.158117
 6015         h1    165    ccc    H17   6015 0.06978000   1.008000   ; qtot 0.227897
 6016         c3    165    ccc    C13   6016 0.07918000  12.010000   ; qtot 0.307077
 6017         c3    165    ccc    C14   6017 0.03578000  12.010000   ; qtot 0.342857
 6018         c3    165    ccc    C15   6018 0.33498000  12.010000   ; qtot 0.677837
 6019         h1    165    ccc    H18   6019 0.06178000   1.008000   ; qtot 0.739617
 6020         h1    165    ccc    H19   6020 0.11278000   1.008000   ; qtot 0.852397
 6021         h2    165    ccc    H20   6021 0.12178000   1.008000   ; qtot 0.974177
 6022         oh    165    ccc     O1   6022 -0.56972000  16.000000   ; qtot 0.404457
 6023         oh    165    ccc     O6   6023 -0.57772000  16.000000   ; qtot -0.173263
 6024         c3    165    ccc    C16   6024 0.14548000  12.010000   ; qtot -0.027783
 6025         ho    165    ccc    H21   6025 0.40508000   1.008000   ; qtot 0.377297
 6026         hn    165    ccc    H22   6026 0.31758000   1.008000   ; qtot 0.694877
 6027         h1    165    ccc    H23   6027 0.06278000   1.008000   ; qtot 0.757657
 6028         h1    165    ccc    H24   6028 0.06278000   1.008000   ; qtot 0.820437
 6029         oh    165    ccc     O7   6029 -0.59472000  16.000000   ; qtot 0.225717
 6030         ho    165    ccc    H25   6030 0.41908000   1.008000   ; qtot 0.644797
 6031         os    165    ccc     O8   6031 -0.44552000  16.000000   ; qtot 0.199277
 6032         ho    165    ccc    H26   6032 0.41908000   1.008000   ; qtot 0.618357
 6033         h1    165    ccc    H27   6033 0.08578000   1.008000   ; qtot 0.704137
 6034         oh    165    ccc     O9   6034 -0.58672000  16.000000   ; qtot 0.117417
 6035         ho    165    ccc    H28   6035 0.41908000   1.008000   ; qtot 0.536497
 6036         n3    165    ccc     N3   6036 -0.54282000  14.010000   ; qtot -0.006323
 6037         c3    165    ccc    C17   6037 0.08518000  12.010000   ; qtot 0.078857
 6038         c3    165    ccc    C18   6038 0.07918000  12.010000   ; qtot 0.158037
 6039         h1    165    ccc    H29   6039 0.06978000   1.008000   ; qtot 0.227817
 6040         c3    165    ccc    C19   6040 0.07918000  12.010000   ; qtot 0.306997
 6041         c3    165    ccc    C20   6041 0.03578000  12.010000   ; qtot 0.342777
 6042         c3    165    ccc    C21   6042 0.33498000  12.010000   ; qtot 0.677757
 6043         h1    165    ccc    H30   6043 0.06178000   1.008000   ; qtot 0.739537
 6044         h1    165    ccc    H31   6044 0.11278000   1.008000   ; qtot 0.852317
 6045         h2    165    ccc    H32   6045 0.12178000   1.008000   ; qtot 0.974097
 6046         oh    165    ccc    O10   6046 -0.56972000  16.000000   ; qtot 0.404377
 6047         oh    165    ccc    O11   6047 -0.57772000  16.000000   ; qtot -0.173343
 6048         c3    165    ccc    C22   6048 0.14548000  12.010000   ; qtot -0.027863
 6049         ho    165    ccc    H33   6049 0.40508000   1.008000   ; qtot 0.377217
 6050         hn    165    ccc    H34   6050 0.31758000   1.008000   ; qtot 0.694797
 6051         h1    165    ccc    H35   6051 0.06278000   1.008000   ; qtot 0.757577
 6052         h1    165    ccc    H36   6052 0.06278000   1.008000   ; qtot 0.820357
 6053         oh    165    ccc    O12   6053 -0.59472000  16.000000   ; qtot 0.225637
 6054         ho    165    ccc    H37   6054 0.41908000   1.008000   ; qtot 0.644717
 6055         os    165    ccc    O13   6055 -0.44552000  16.000000   ; qtot 0.199197
 6056         ho    165    ccc    H38   6056 0.41908000   1.008000   ; qtot 0.618277
 6057         h1    165    ccc    H39   6057 0.08578000   1.008000   ; qtot 0.704057
 6058         oh    165    ccc     O5   6058 -0.58672000  16.000000   ; qtot 0.117337
 6059         ho    165    ccc    H40   6059 0.41908000   1.008000   ; qtot 0.536417
 6060         n3    165    ccc     N4   6060 -0.54282000  14.010000   ; qtot -0.006403
; residue  166 ccc rtp ccc q -0.0
 6061          n    166    ccc     N1   6061 -0.46580000  14.010000   ; qtot -0.472203
 6062         hn    166    ccc     H4   6062 0.31480000   1.008000   ; qtot -0.157403
 6063         c3    166    ccc     C3   6063 -0.28250000  12.010000   ; qtot -0.439903
 6064         h1    166    ccc     H5   6064 0.15710000   1.008000   ; qtot -0.282803
 6065         c3    166    ccc     C4   6065 0.44180000  12.010000   ; qtot 0.158997
 6066         h1    166    ccc     H6   6066 0.15710000   1.008000   ; qtot 0.316097
 6067         h1    166    ccc     H7   6067 -0.03530000   1.008000   ; qtot 0.280797
 6068         h1    166    ccc     H8   6068 -0.03530000   1.008000   ; qtot 0.245497
 6069         n3    166    ccc     N2   6069 -0.74090000  14.010000   ; qtot -0.495403
 6070         c3    166    ccc     C5   6070 0.51680000  12.010000   ; qtot 0.021397
 6071         c3    166    ccc     C6   6071 0.51680000  12.010000   ; qtot 0.538197
 6072         h1    166    ccc     H9   6072 -0.05230000   1.008000   ; qtot 0.485897
 6073         c3    166    ccc     C7   6073 -0.60390000  12.010000   ; qtot -0.118003
 6074         h1    166    ccc    H10   6074 -0.05230000   1.008000   ; qtot -0.170303
 6075         hc    166    ccc    H11   6075 0.16730000   1.008000   ; qtot -0.003003
 6076         hc    166    ccc    H12   6076 0.16730000   1.008000   ; qtot 0.164297
 6077          c    166    ccc     C8   6077 0.72110000  12.010000   ; qtot 0.885397
 6078          o    166    ccc     O2   6078 -0.61950000  16.000000   ; qtot 0.265897
 6079         h1    166    ccc    H13   6079 -0.05230000   1.008000   ; qtot 0.213597
 6080         h1    166    ccc    H14   6080 -0.05230000   1.008000   ; qtot 0.161297
 6081         c3    166    ccc     C9   6081 -0.60390000  12.010000   ; qtot -0.442603
 6082         hc    166    ccc    H15   6082 0.16730000   1.008000   ; qtot -0.275303
 6083         hc    166    ccc    H16   6083 0.16730000   1.008000   ; qtot -0.108003
 6084          c    166    ccc    C10   6084 0.72110000  12.010000   ; qtot 0.613097
 6085          o    166    ccc     O4   6085 -0.61950000  16.000000   ; qtot -0.006403
 6086         c3    166    ccc    C11   6086 0.08518000  12.010000   ; qtot 0.078777
 6087         c3    166    ccc    C12   6087 0.07918000  12.010000   ; qtot 0.157957
 6088         h1    166    ccc    H17   6088 0.06978000   1.008000   ; qtot 0.227737
 6089         c3    166    ccc    C13   6089 0.07918000  12.010000   ; qtot 0.306917
 6090         c3    166    ccc    C14   6090 0.03578000  12.010000   ; qtot 0.342697
 6091         c3    166    ccc    C15   6091 0.33498000  12.010000   ; qtot 0.677677
 6092         h1    166    ccc    H18   6092 0.06178000   1.008000   ; qtot 0.739457
 6093         h1    166    ccc    H19   6093 0.11278000   1.008000   ; qtot 0.852237
 6094         h2    166    ccc    H20   6094 0.12178000   1.008000   ; qtot 0.974017
 6095         oh    166    ccc     O1   6095 -0.56972000  16.000000   ; qtot 0.404297
 6096         oh    166    ccc     O6   6096 -0.57772000  16.000000   ; qtot -0.173423
 6097         c3    166    ccc    C16   6097 0.14548000  12.010000   ; qtot -0.027943
 6098         ho    166    ccc    H21   6098 0.40508000   1.008000   ; qtot 0.377137
 6099         hn    166    ccc    H22   6099 0.31758000   1.008000   ; qtot 0.694717
 6100         h1    166    ccc    H23   6100 0.06278000   1.008000   ; qtot 0.757497
 6101         h1    166    ccc    H24   6101 0.06278000   1.008000   ; qtot 0.820277
 6102         oh    166    ccc     O7   6102 -0.59472000  16.000000   ; qtot 0.225557
 6103         ho    166    ccc    H25   6103 0.41908000   1.008000   ; qtot 0.644637
 6104         os    166    ccc     O8   6104 -0.44552000  16.000000   ; qtot 0.199117
 6105         ho    166    ccc    H26   6105 0.41908000   1.008000   ; qtot 0.618197
 6106         h1    166    ccc    H27   6106 0.08578000   1.008000   ; qtot 0.703977
 6107         oh    166    ccc     O9   6107 -0.58672000  16.000000   ; qtot 0.117257
 6108         ho    166    ccc    H28   6108 0.41908000   1.008000   ; qtot 0.536337
 6109         n3    166    ccc     N3   6109 -0.54282000  14.010000   ; qtot -0.006483
 6110         c3    166    ccc    C17   6110 0.08518000  12.010000   ; qtot 0.078697
 6111         c3    166    ccc    C18   6111 0.07918000  12.010000   ; qtot 0.157877
 6112         h1    166    ccc    H29   6112 0.06978000   1.008000   ; qtot 0.227657
 6113         c3    166    ccc    C19   6113 0.07918000  12.010000   ; qtot 0.306837
 6114         c3    166    ccc    C20   6114 0.03578000  12.010000   ; qtot 0.342617
 6115         c3    166    ccc    C21   6115 0.33498000  12.010000   ; qtot 0.677597
 6116         h1    166    ccc    H30   6116 0.06178000   1.008000   ; qtot 0.739377
 6117         h1    166    ccc    H31   6117 0.11278000   1.008000   ; qtot 0.852157
 6118         h2    166    ccc    H32   6118 0.12178000   1.008000   ; qtot 0.973937
 6119         oh    166    ccc    O10   6119 -0.56972000  16.000000   ; qtot 0.404217
 6120         oh    166    ccc    O11   6120 -0.57772000  16.000000   ; qtot -0.173503
 6121         c3    166    ccc    C22   6121 0.14548000  12.010000   ; qtot -0.028023
 6122         ho    166    ccc    H33   6122 0.40508000   1.008000   ; qtot 0.377057
 6123         hn    166    ccc    H34   6123 0.31758000   1.008000   ; qtot 0.694637
 6124         h1    166    ccc    H35   6124 0.06278000   1.008000   ; qtot 0.757417
 6125         h1    166    ccc    H36   6125 0.06278000   1.008000   ; qtot 0.820197
 6126         oh    166    ccc    O12   6126 -0.59472000  16.000000   ; qtot 0.225477
 6127         ho    166    ccc    H37   6127 0.41908000   1.008000   ; qtot 0.644557
 6128         os    166    ccc    O13   6128 -0.44552000  16.000000   ; qtot 0.199037
 6129         ho    166    ccc    H38   6129 0.41908000   1.008000   ; qtot 0.618117
 6130         h1    166    ccc    H39   6130 0.08578000   1.008000   ; qtot 0.703897
 6131         oh    166    ccc     O5   6131 -0.58672000  16.000000   ; qtot 0.117177
 6132         ho    166    ccc    H40   6132 0.41908000   1.008000   ; qtot 0.536257
 6133         n3    166    ccc     N4   6133 -0.54282000  14.010000   ; qtot -0.006563
; residue  167 ccc rtp ccc q -0.0
 6134          n    167    ccc     N1   6134 -0.46580000  14.010000   ; qtot -0.472363
 6135         hn    167    ccc     H4   6135 0.31480000   1.008000   ; qtot -0.157563
 6136         c3    167    ccc     C3   6136 -0.28250000  12.010000   ; qtot -0.440063
 6137         h1    167    ccc     H5   6137 0.15710000   1.008000   ; qtot -0.282963
 6138         c3    167    ccc     C4   6138 0.44180000  12.010000   ; qtot 0.158837
 6139         h1    167    ccc     H6   6139 0.15710000   1.008000   ; qtot 0.315937
 6140         h1    167    ccc     H7   6140 -0.03530000   1.008000   ; qtot 0.280637
 6141         h1    167    ccc     H8   6141 -0.03530000   1.008000   ; qtot 0.245337
 6142         n3    167    ccc     N2   6142 -0.74090000  14.010000   ; qtot -0.495563
 6143         c3    167    ccc     C5   6143 0.51680000  12.010000   ; qtot 0.021237
 6144         c3    167    ccc     C6   6144 0.51680000  12.010000   ; qtot 0.538037
 6145         h1    167    ccc     H9   6145 -0.05230000   1.008000   ; qtot 0.485737
 6146         c3    167    ccc     C7   6146 -0.60390000  12.010000   ; qtot -0.118163
 6147         h1    167    ccc    H10   6147 -0.05230000   1.008000   ; qtot -0.170463
 6148         hc    167    ccc    H11   6148 0.16730000   1.008000   ; qtot -0.003163
 6149         hc    167    ccc    H12   6149 0.16730000   1.008000   ; qtot 0.164137
 6150          c    167    ccc     C8   6150 0.72110000  12.010000   ; qtot 0.885237
 6151          o    167    ccc     O2   6151 -0.61950000  16.000000   ; qtot 0.265737
 6152         h1    167    ccc    H13   6152 -0.05230000   1.008000   ; qtot 0.213437
 6153         h1    167    ccc    H14   6153 -0.05230000   1.008000   ; qtot 0.161137
 6154         c3    167    ccc     C9   6154 -0.60390000  12.010000   ; qtot -0.442763
 6155         hc    167    ccc    H15   6155 0.16730000   1.008000   ; qtot -0.275463
 6156         hc    167    ccc    H16   6156 0.16730000   1.008000   ; qtot -0.108163
 6157          c    167    ccc    C10   6157 0.72110000  12.010000   ; qtot 0.612937
 6158          o    167    ccc     O4   6158 -0.61950000  16.000000   ; qtot -0.006563
 6159         c3    167    ccc    C11   6159 0.08518000  12.010000   ; qtot 0.078617
 6160         c3    167    ccc    C12   6160 0.07918000  12.010000   ; qtot 0.157797
 6161         h1    167    ccc    H17   6161 0.06978000   1.008000   ; qtot 0.227577
 6162         c3    167    ccc    C13   6162 0.07918000  12.010000   ; qtot 0.306757
 6163         c3    167    ccc    C14   6163 0.03578000  12.010000   ; qtot 0.342537
 6164         c3    167    ccc    C15   6164 0.33498000  12.010000   ; qtot 0.677517
 6165         h1    167    ccc    H18   6165 0.06178000   1.008000   ; qtot 0.739297
 6166         h1    167    ccc    H19   6166 0.11278000   1.008000   ; qtot 0.852077
 6167         h2    167    ccc    H20   6167 0.12178000   1.008000   ; qtot 0.973857
 6168         oh    167    ccc     O1   6168 -0.56972000  16.000000   ; qtot 0.404137
 6169         oh    167    ccc     O6   6169 -0.57772000  16.000000   ; qtot -0.173583
 6170         c3    167    ccc    C16   6170 0.14548000  12.010000   ; qtot -0.028103
 6171         ho    167    ccc    H21   6171 0.40508000   1.008000   ; qtot 0.376977
 6172         hn    167    ccc    H22   6172 0.31758000   1.008000   ; qtot 0.694557
 6173         h1    167    ccc    H23   6173 0.06278000   1.008000   ; qtot 0.757337
 6174         h1    167    ccc    H24   6174 0.06278000   1.008000   ; qtot 0.820117
 6175         oh    167    ccc     O7   6175 -0.59472000  16.000000   ; qtot 0.225397
 6176         ho    167    ccc    H25   6176 0.41908000   1.008000   ; qtot 0.644477
 6177         os    167    ccc     O8   6177 -0.44552000  16.000000   ; qtot 0.198957
 6178         ho    167    ccc    H26   6178 0.41908000   1.008000   ; qtot 0.618037
 6179         h1    167    ccc    H27   6179 0.08578000   1.008000   ; qtot 0.703817
 6180         oh    167    ccc     O9   6180 -0.58672000  16.000000   ; qtot 0.117097
 6181         ho    167    ccc    H28   6181 0.41908000   1.008000   ; qtot 0.536177
 6182         n3    167    ccc     N3   6182 -0.54282000  14.010000   ; qtot -0.006643
 6183         c3    167    ccc    C17   6183 0.08518000  12.010000   ; qtot 0.078537
 6184         c3    167    ccc    C18   6184 0.07918000  12.010000   ; qtot 0.157717
 6185         h1    167    ccc    H29   6185 0.06978000   1.008000   ; qtot 0.227497
 6186         c3    167    ccc    C19   6186 0.07918000  12.010000   ; qtot 0.306677
 6187         c3    167    ccc    C20   6187 0.03578000  12.010000   ; qtot 0.342457
 6188         c3    167    ccc    C21   6188 0.33498000  12.010000   ; qtot 0.677437
 6189         h1    167    ccc    H30   6189 0.06178000   1.008000   ; qtot 0.739217
 6190         h1    167    ccc    H31   6190 0.11278000   1.008000   ; qtot 0.851997
 6191         h2    167    ccc    H32   6191 0.12178000   1.008000   ; qtot 0.973777
 6192         oh    167    ccc    O10   6192 -0.56972000  16.000000   ; qtot 0.404057
 6193         oh    167    ccc    O11   6193 -0.57772000  16.000000   ; qtot -0.173663
 6194         c3    167    ccc    C22   6194 0.14548000  12.010000   ; qtot -0.028183
 6195         ho    167    ccc    H33   6195 0.40508000   1.008000   ; qtot 0.376897
 6196         hn    167    ccc    H34   6196 0.31758000   1.008000   ; qtot 0.694477
 6197         h1    167    ccc    H35   6197 0.06278000   1.008000   ; qtot 0.757257
 6198         h1    167    ccc    H36   6198 0.06278000   1.008000   ; qtot 0.820037
 6199         oh    167    ccc    O12   6199 -0.59472000  16.000000   ; qtot 0.225317
 6200         ho    167    ccc    H37   6200 0.41908000   1.008000   ; qtot 0.644397
 6201         os    167    ccc    O13   6201 -0.44552000  16.000000   ; qtot 0.198877
 6202         ho    167    ccc    H38   6202 0.41908000   1.008000   ; qtot 0.617957
 6203         h1    167    ccc    H39   6203 0.08578000   1.008000   ; qtot 0.703737
 6204         oh    167    ccc     O5   6204 -0.58672000  16.000000   ; qtot 0.117017
 6205         ho    167    ccc    H40   6205 0.41908000   1.008000   ; qtot 0.536097
 6206         n3    167    ccc     N4   6206 -0.54282000  14.010000   ; qtot -0.006723
; residue  168 ccc rtp ccc q -0.0
 6207          n    168    ccc     N1   6207 -0.46580000  14.010000   ; qtot -0.472523
 6208         hn    168    ccc     H4   6208 0.31480000   1.008000   ; qtot -0.157723
 6209         c3    168    ccc     C3   6209 -0.28250000  12.010000   ; qtot -0.440223
 6210         h1    168    ccc     H5   6210 0.15710000   1.008000   ; qtot -0.283123
 6211         c3    168    ccc     C4   6211 0.44180000  12.010000   ; qtot 0.158677
 6212         h1    168    ccc     H6   6212 0.15710000   1.008000   ; qtot 0.315777
 6213         h1    168    ccc     H7   6213 -0.03530000   1.008000   ; qtot 0.280477
 6214         h1    168    ccc     H8   6214 -0.03530000   1.008000   ; qtot 0.245177
 6215         n3    168    ccc     N2   6215 -0.74090000  14.010000   ; qtot -0.495723
 6216         c3    168    ccc     C5   6216 0.51680000  12.010000   ; qtot 0.021077
 6217         c3    168    ccc     C6   6217 0.51680000  12.010000   ; qtot 0.537877
 6218         h1    168    ccc     H9   6218 -0.05230000   1.008000   ; qtot 0.485577
 6219         c3    168    ccc     C7   6219 -0.60390000  12.010000   ; qtot -0.118323
 6220         h1    168    ccc    H10   6220 -0.05230000   1.008000   ; qtot -0.170623
 6221         hc    168    ccc    H11   6221 0.16730000   1.008000   ; qtot -0.003323
 6222         hc    168    ccc    H12   6222 0.16730000   1.008000   ; qtot 0.163977
 6223          c    168    ccc     C8   6223 0.72110000  12.010000   ; qtot 0.885077
 6224          o    168    ccc     O2   6224 -0.61950000  16.000000   ; qtot 0.265577
 6225         h1    168    ccc    H13   6225 -0.05230000   1.008000   ; qtot 0.213277
 6226         h1    168    ccc    H14   6226 -0.05230000   1.008000   ; qtot 0.160977
 6227         c3    168    ccc     C9   6227 -0.60390000  12.010000   ; qtot -0.442923
 6228         hc    168    ccc    H15   6228 0.16730000   1.008000   ; qtot -0.275623
 6229         hc    168    ccc    H16   6229 0.16730000   1.008000   ; qtot -0.108323
 6230          c    168    ccc    C10   6230 0.72110000  12.010000   ; qtot 0.612777
 6231          o    168    ccc     O4   6231 -0.61950000  16.000000   ; qtot -0.006723
 6232         c3    168    ccc    C11   6232 0.08518000  12.010000   ; qtot 0.078457
 6233         c3    168    ccc    C12   6233 0.07918000  12.010000   ; qtot 0.157637
 6234         h1    168    ccc    H17   6234 0.06978000   1.008000   ; qtot 0.227417
 6235         c3    168    ccc    C13   6235 0.07918000  12.010000   ; qtot 0.306597
 6236         c3    168    ccc    C14   6236 0.03578000  12.010000   ; qtot 0.342377
 6237         c3    168    ccc    C15   6237 0.33498000  12.010000   ; qtot 0.677357
 6238         h1    168    ccc    H18   6238 0.06178000   1.008000   ; qtot 0.739137
 6239         h1    168    ccc    H19   6239 0.11278000   1.008000   ; qtot 0.851917
 6240         h2    168    ccc    H20   6240 0.12178000   1.008000   ; qtot 0.973697
 6241         oh    168    ccc     O1   6241 -0.56972000  16.000000   ; qtot 0.403977
 6242         oh    168    ccc     O6   6242 -0.57772000  16.000000   ; qtot -0.173743
 6243         c3    168    ccc    C16   6243 0.14548000  12.010000   ; qtot -0.028263
 6244         ho    168    ccc    H21   6244 0.40508000   1.008000   ; qtot 0.376817
 6245         hn    168    ccc    H22   6245 0.31758000   1.008000   ; qtot 0.694397
 6246         h1    168    ccc    H23   6246 0.06278000   1.008000   ; qtot 0.757177
 6247         h1    168    ccc    H24   6247 0.06278000   1.008000   ; qtot 0.819957
 6248         oh    168    ccc     O7   6248 -0.59472000  16.000000   ; qtot 0.225237
 6249         ho    168    ccc    H25   6249 0.41908000   1.008000   ; qtot 0.644317
 6250         os    168    ccc     O8   6250 -0.44552000  16.000000   ; qtot 0.198797
 6251         ho    168    ccc    H26   6251 0.41908000   1.008000   ; qtot 0.617877
 6252         h1    168    ccc    H27   6252 0.08578000   1.008000   ; qtot 0.703657
 6253         oh    168    ccc     O9   6253 -0.58672000  16.000000   ; qtot 0.116937
 6254         ho    168    ccc    H28   6254 0.41908000   1.008000   ; qtot 0.536017
 6255         n3    168    ccc     N3   6255 -0.54282000  14.010000   ; qtot -0.006803
 6256         c3    168    ccc    C17   6256 0.08518000  12.010000   ; qtot 0.078377
 6257         c3    168    ccc    C18   6257 0.07918000  12.010000   ; qtot 0.157557
 6258         h1    168    ccc    H29   6258 0.06978000   1.008000   ; qtot 0.227337
 6259         c3    168    ccc    C19   6259 0.07918000  12.010000   ; qtot 0.306517
 6260         c3    168    ccc    C20   6260 0.03578000  12.010000   ; qtot 0.342297
 6261         c3    168    ccc    C21   6261 0.33498000  12.010000   ; qtot 0.677277
 6262         h1    168    ccc    H30   6262 0.06178000   1.008000   ; qtot 0.739057
 6263         h1    168    ccc    H31   6263 0.11278000   1.008000   ; qtot 0.851837
 6264         h2    168    ccc    H32   6264 0.12178000   1.008000   ; qtot 0.973617
 6265         oh    168    ccc    O10   6265 -0.56972000  16.000000   ; qtot 0.403897
 6266         oh    168    ccc    O11   6266 -0.57772000  16.000000   ; qtot -0.173823
 6267         c3    168    ccc    C22   6267 0.14548000  12.010000   ; qtot -0.028343
 6268         ho    168    ccc    H33   6268 0.40508000   1.008000   ; qtot 0.376737
 6269         hn    168    ccc    H34   6269 0.31758000   1.008000   ; qtot 0.694317
 6270         h1    168    ccc    H35   6270 0.06278000   1.008000   ; qtot 0.757097
 6271         h1    168    ccc    H36   6271 0.06278000   1.008000   ; qtot 0.819877
 6272         oh    168    ccc    O12   6272 -0.59472000  16.000000   ; qtot 0.225157
 6273         ho    168    ccc    H37   6273 0.41908000   1.008000   ; qtot 0.644237
 6274         os    168    ccc    O13   6274 -0.44552000  16.000000   ; qtot 0.198717
 6275         ho    168    ccc    H38   6275 0.41908000   1.008000   ; qtot 0.617797
 6276         h1    168    ccc    H39   6276 0.08578000   1.008000   ; qtot 0.703577
 6277         oh    168    ccc     O5   6277 -0.58672000  16.000000   ; qtot 0.116857
 6278         ho    168    ccc    H40   6278 0.41908000   1.008000   ; qtot 0.535937
 6279         n3    168    ccc     N4   6279 -0.54282000  14.010000   ; qtot -0.006883
; residue  169 ccc rtp ccc q -0.0
 6280          n    169    ccc     N1   6280 -0.46580000  14.010000   ; qtot -0.472683
 6281         hn    169    ccc     H4   6281 0.31480000   1.008000   ; qtot -0.157883
 6282         c3    169    ccc     C3   6282 -0.28250000  12.010000   ; qtot -0.440383
 6283         h1    169    ccc     H5   6283 0.15710000   1.008000   ; qtot -0.283283
 6284         c3    169    ccc     C4   6284 0.44180000  12.010000   ; qtot 0.158517
 6285         h1    169    ccc     H6   6285 0.15710000   1.008000   ; qtot 0.315617
 6286         h1    169    ccc     H7   6286 -0.03530000   1.008000   ; qtot 0.280317
 6287         h1    169    ccc     H8   6287 -0.03530000   1.008000   ; qtot 0.245017
 6288         n3    169    ccc     N2   6288 -0.74090000  14.010000   ; qtot -0.495883
 6289         c3    169    ccc     C5   6289 0.51680000  12.010000   ; qtot 0.020917
 6290         c3    169    ccc     C6   6290 0.51680000  12.010000   ; qtot 0.537717
 6291         h1    169    ccc     H9   6291 -0.05230000   1.008000   ; qtot 0.485417
 6292         c3    169    ccc     C7   6292 -0.60390000  12.010000   ; qtot -0.118483
 6293         h1    169    ccc    H10   6293 -0.05230000   1.008000   ; qtot -0.170783
 6294         hc    169    ccc    H11   6294 0.16730000   1.008000   ; qtot -0.003483
 6295         hc    169    ccc    H12   6295 0.16730000   1.008000   ; qtot 0.163817
 6296          c    169    ccc     C8   6296 0.72110000  12.010000   ; qtot 0.884917
 6297          o    169    ccc     O2   6297 -0.61950000  16.000000   ; qtot 0.265417
 6298         h1    169    ccc    H13   6298 -0.05230000   1.008000   ; qtot 0.213117
 6299         h1    169    ccc    H14   6299 -0.05230000   1.008000   ; qtot 0.160817
 6300         c3    169    ccc     C9   6300 -0.60390000  12.010000   ; qtot -0.443083
 6301         hc    169    ccc    H15   6301 0.16730000   1.008000   ; qtot -0.275783
 6302         hc    169    ccc    H16   6302 0.16730000   1.008000   ; qtot -0.108483
 6303          c    169    ccc    C10   6303 0.72110000  12.010000   ; qtot 0.612617
 6304          o    169    ccc     O4   6304 -0.61950000  16.000000   ; qtot -0.006883
 6305         c3    169    ccc    C11   6305 0.08518000  12.010000   ; qtot 0.078297
 6306         c3    169    ccc    C12   6306 0.07918000  12.010000   ; qtot 0.157476
 6307         h1    169    ccc    H17   6307 0.06978000   1.008000   ; qtot 0.227256
 6308         c3    169    ccc    C13   6308 0.07918000  12.010000   ; qtot 0.306436
 6309         c3    169    ccc    C14   6309 0.03578000  12.010000   ; qtot 0.342216
 6310         c3    169    ccc    C15   6310 0.33498000  12.010000   ; qtot 0.677196
 6311         h1    169    ccc    H18   6311 0.06178000   1.008000   ; qtot 0.738976
 6312         h1    169    ccc    H19   6312 0.11278000   1.008000   ; qtot 0.851756
 6313         h2    169    ccc    H20   6313 0.12178000   1.008000   ; qtot 0.973536
 6314         oh    169    ccc     O1   6314 -0.56972000  16.000000   ; qtot 0.403816
 6315         oh    169    ccc     O6   6315 -0.57772000  16.000000   ; qtot -0.173904
 6316         c3    169    ccc    C16   6316 0.14548000  12.010000   ; qtot -0.028424
 6317         ho    169    ccc    H21   6317 0.40508000   1.008000   ; qtot 0.376656
 6318         hn    169    ccc    H22   6318 0.31758000   1.008000   ; qtot 0.694236
 6319         h1    169    ccc    H23   6319 0.06278000   1.008000   ; qtot 0.757016
 6320         h1    169    ccc    H24   6320 0.06278000   1.008000   ; qtot 0.819796
 6321         oh    169    ccc     O7   6321 -0.59472000  16.000000   ; qtot 0.225076
 6322         ho    169    ccc    H25   6322 0.41908000   1.008000   ; qtot 0.644156
 6323         os    169    ccc     O8   6323 -0.44552000  16.000000   ; qtot 0.198636
 6324         ho    169    ccc    H26   6324 0.41908000   1.008000   ; qtot 0.617716
 6325         h1    169    ccc    H27   6325 0.08578000   1.008000   ; qtot 0.703496
 6326         oh    169    ccc     O9   6326 -0.58672000  16.000000   ; qtot 0.116776
 6327         ho    169    ccc    H28   6327 0.41908000   1.008000   ; qtot 0.535856
 6328         n3    169    ccc     N3   6328 -0.54282000  14.010000   ; qtot -0.006964
 6329         c3    169    ccc    C17   6329 0.08518000  12.010000   ; qtot 0.078216
 6330         c3    169    ccc    C18   6330 0.07918000  12.010000   ; qtot 0.157396
 6331         h1    169    ccc    H29   6331 0.06978000   1.008000   ; qtot 0.227176
 6332         c3    169    ccc    C19   6332 0.07918000  12.010000   ; qtot 0.306356
 6333         c3    169    ccc    C20   6333 0.03578000  12.010000   ; qtot 0.342136
 6334         c3    169    ccc    C21   6334 0.33498000  12.010000   ; qtot 0.677116
 6335         h1    169    ccc    H30   6335 0.06178000   1.008000   ; qtot 0.738896
 6336         h1    169    ccc    H31   6336 0.11278000   1.008000   ; qtot 0.851676
 6337         h2    169    ccc    H32   6337 0.12178000   1.008000   ; qtot 0.973456
 6338         oh    169    ccc    O10   6338 -0.56972000  16.000000   ; qtot 0.403736
 6339         oh    169    ccc    O11   6339 -0.57772000  16.000000   ; qtot -0.173984
 6340         c3    169    ccc    C22   6340 0.14548000  12.010000   ; qtot -0.028504
 6341         ho    169    ccc    H33   6341 0.40508000   1.008000   ; qtot 0.376576
 6342         hn    169    ccc    H34   6342 0.31758000   1.008000   ; qtot 0.694156
 6343         h1    169    ccc    H35   6343 0.06278000   1.008000   ; qtot 0.756936
 6344         h1    169    ccc    H36   6344 0.06278000   1.008000   ; qtot 0.819716
 6345         oh    169    ccc    O12   6345 -0.59472000  16.000000   ; qtot 0.224996
 6346         ho    169    ccc    H37   6346 0.41908000   1.008000   ; qtot 0.644076
 6347         os    169    ccc    O13   6347 -0.44552000  16.000000   ; qtot 0.198556
 6348         ho    169    ccc    H38   6348 0.41908000   1.008000   ; qtot 0.617636
 6349         h1    169    ccc    H39   6349 0.08578000   1.008000   ; qtot 0.703416
 6350         oh    169    ccc     O5   6350 -0.58672000  16.000000   ; qtot 0.116696
 6351         ho    169    ccc    H40   6351 0.41908000   1.008000   ; qtot 0.535776
 6352         n3    169    ccc     N4   6352 -0.54282000  14.010000   ; qtot -0.007044
; residue  170 ccc rtp ccc q -0.0
 6353          n    170    ccc     N1   6353 -0.46580000  14.010000   ; qtot -0.472844
 6354         hn    170    ccc     H4   6354 0.31480000   1.008000   ; qtot -0.158044
 6355         c3    170    ccc     C3   6355 -0.28250000  12.010000   ; qtot -0.440544
 6356         h1    170    ccc     H5   6356 0.15710000   1.008000   ; qtot -0.283444
 6357         c3    170    ccc     C4   6357 0.44180000  12.010000   ; qtot 0.158356
 6358         h1    170    ccc     H6   6358 0.15710000   1.008000   ; qtot 0.315456
 6359         h1    170    ccc     H7   6359 -0.03530000   1.008000   ; qtot 0.280156
 6360         h1    170    ccc     H8   6360 -0.03530000   1.008000   ; qtot 0.244856
 6361         n3    170    ccc     N2   6361 -0.74090000  14.010000   ; qtot -0.496044
 6362         c3    170    ccc     C5   6362 0.51680000  12.010000   ; qtot 0.020756
 6363         c3    170    ccc     C6   6363 0.51680000  12.010000   ; qtot 0.537556
 6364         h1    170    ccc     H9   6364 -0.05230000   1.008000   ; qtot 0.485256
 6365         c3    170    ccc     C7   6365 -0.60390000  12.010000   ; qtot -0.118644
 6366         h1    170    ccc    H10   6366 -0.05230000   1.008000   ; qtot -0.170944
 6367         hc    170    ccc    H11   6367 0.16730000   1.008000   ; qtot -0.003644
 6368         hc    170    ccc    H12   6368 0.16730000   1.008000   ; qtot 0.163656
 6369          c    170    ccc     C8   6369 0.72110000  12.010000   ; qtot 0.884756
 6370          o    170    ccc     O2   6370 -0.61950000  16.000000   ; qtot 0.265256
 6371         h1    170    ccc    H13   6371 -0.05230000   1.008000   ; qtot 0.212956
 6372         h1    170    ccc    H14   6372 -0.05230000   1.008000   ; qtot 0.160656
 6373         c3    170    ccc     C9   6373 -0.60390000  12.010000   ; qtot -0.443244
 6374         hc    170    ccc    H15   6374 0.16730000   1.008000   ; qtot -0.275944
 6375         hc    170    ccc    H16   6375 0.16730000   1.008000   ; qtot -0.108644
 6376          c    170    ccc    C10   6376 0.72110000  12.010000   ; qtot 0.612456
 6377          o    170    ccc     O4   6377 -0.61950000  16.000000   ; qtot -0.007044
 6378         c3    170    ccc    C11   6378 0.08518000  12.010000   ; qtot 0.078136
 6379         c3    170    ccc    C12   6379 0.07918000  12.010000   ; qtot 0.157316
 6380         h1    170    ccc    H17   6380 0.06978000   1.008000   ; qtot 0.227096
 6381         c3    170    ccc    C13   6381 0.07918000  12.010000   ; qtot 0.306276
 6382         c3    170    ccc    C14   6382 0.03578000  12.010000   ; qtot 0.342056
 6383         c3    170    ccc    C15   6383 0.33498000  12.010000   ; qtot 0.677036
 6384         h1    170    ccc    H18   6384 0.06178000   1.008000   ; qtot 0.738816
 6385         h1    170    ccc    H19   6385 0.11278000   1.008000   ; qtot 0.851596
 6386         h2    170    ccc    H20   6386 0.12178000   1.008000   ; qtot 0.973376
 6387         oh    170    ccc     O1   6387 -0.56972000  16.000000   ; qtot 0.403656
 6388         oh    170    ccc     O6   6388 -0.57772000  16.000000   ; qtot -0.174064
 6389         c3    170    ccc    C16   6389 0.14548000  12.010000   ; qtot -0.028584
 6390         ho    170    ccc    H21   6390 0.40508000   1.008000   ; qtot 0.376496
 6391         hn    170    ccc    H22   6391 0.31758000   1.008000   ; qtot 0.694076
 6392         h1    170    ccc    H23   6392 0.06278000   1.008000   ; qtot 0.756856
 6393         h1    170    ccc    H24   6393 0.06278000   1.008000   ; qtot 0.819636
 6394         oh    170    ccc     O7   6394 -0.59472000  16.000000   ; qtot 0.224916
 6395         ho    170    ccc    H25   6395 0.41908000   1.008000   ; qtot 0.643996
 6396         os    170    ccc     O8   6396 -0.44552000  16.000000   ; qtot 0.198476
 6397         ho    170    ccc    H26   6397 0.41908000   1.008000   ; qtot 0.617556
 6398         h1    170    ccc    H27   6398 0.08578000   1.008000   ; qtot 0.703336
 6399         oh    170    ccc     O9   6399 -0.58672000  16.000000   ; qtot 0.116616
 6400         ho    170    ccc    H28   6400 0.41908000   1.008000   ; qtot 0.535696
 6401         n3    170    ccc     N3   6401 -0.54282000  14.010000   ; qtot -0.007124
 6402         c3    170    ccc    C17   6402 0.08518000  12.010000   ; qtot 0.078056
 6403         c3    170    ccc    C18   6403 0.07918000  12.010000   ; qtot 0.157236
 6404         h1    170    ccc    H29   6404 0.06978000   1.008000   ; qtot 0.227016
 6405         c3    170    ccc    C19   6405 0.07918000  12.010000   ; qtot 0.306196
 6406         c3    170    ccc    C20   6406 0.03578000  12.010000   ; qtot 0.341976
 6407         c3    170    ccc    C21   6407 0.33498000  12.010000   ; qtot 0.676956
 6408         h1    170    ccc    H30   6408 0.06178000   1.008000   ; qtot 0.738736
 6409         h1    170    ccc    H31   6409 0.11278000   1.008000   ; qtot 0.851516
 6410         h2    170    ccc    H32   6410 0.12178000   1.008000   ; qtot 0.973296
 6411         oh    170    ccc    O10   6411 -0.56972000  16.000000   ; qtot 0.403576
 6412         oh    170    ccc    O11   6412 -0.57772000  16.000000   ; qtot -0.174144
 6413         c3    170    ccc    C22   6413 0.14548000  12.010000   ; qtot -0.028664
 6414         ho    170    ccc    H33   6414 0.40508000   1.008000   ; qtot 0.376416
 6415         hn    170    ccc    H34   6415 0.31758000   1.008000   ; qtot 0.693996
 6416         h1    170    ccc    H35   6416 0.06278000   1.008000   ; qtot 0.756776
 6417         h1    170    ccc    H36   6417 0.06278000   1.008000   ; qtot 0.819556
 6418         oh    170    ccc    O12   6418 -0.59472000  16.000000   ; qtot 0.224836
 6419         ho    170    ccc    H37   6419 0.41908000   1.008000   ; qtot 0.643916
 6420         os    170    ccc    O13   6420 -0.44552000  16.000000   ; qtot 0.198396
 6421         ho    170    ccc    H38   6421 0.41908000   1.008000   ; qtot 0.617476
 6422         h1    170    ccc    H39   6422 0.08578000   1.008000   ; qtot 0.703256
 6423         oh    170    ccc     O5   6423 -0.58672000  16.000000   ; qtot 0.116536
 6424         ho    170    ccc    H40   6424 0.41908000   1.008000   ; qtot 0.535616
 6425         n3    170    ccc     N4   6425 -0.54282000  14.010000   ; qtot -0.007204
; residue  171 ccc rtp ccc q -0.0
 6426          n    171    ccc     N1   6426 -0.46580000  14.010000   ; qtot -0.473004
 6427         hn    171    ccc     H4   6427 0.31480000   1.008000   ; qtot -0.158204
 6428         c3    171    ccc     C3   6428 -0.28250000  12.010000   ; qtot -0.440704
 6429         h1    171    ccc     H5   6429 0.15710000   1.008000   ; qtot -0.283604
 6430         c3    171    ccc     C4   6430 0.44180000  12.010000   ; qtot 0.158196
 6431         h1    171    ccc     H6   6431 0.15710000   1.008000   ; qtot 0.315296
 6432         h1    171    ccc     H7   6432 -0.03530000   1.008000   ; qtot 0.279996
 6433         h1    171    ccc     H8   6433 -0.03530000   1.008000   ; qtot 0.244696
 6434         n3    171    ccc     N2   6434 -0.74090000  14.010000   ; qtot -0.496204
 6435         c3    171    ccc     C5   6435 0.51680000  12.010000   ; qtot 0.020596
 6436         c3    171    ccc     C6   6436 0.51680000  12.010000   ; qtot 0.537396
 6437         h1    171    ccc     H9   6437 -0.05230000   1.008000   ; qtot 0.485096
 6438         c3    171    ccc     C7   6438 -0.60390000  12.010000   ; qtot -0.118804
 6439         h1    171    ccc    H10   6439 -0.05230000   1.008000   ; qtot -0.171104
 6440         hc    171    ccc    H11   6440 0.16730000   1.008000   ; qtot -0.003804
 6441         hc    171    ccc    H12   6441 0.16730000   1.008000   ; qtot 0.163496
 6442          c    171    ccc     C8   6442 0.72110000  12.010000   ; qtot 0.884596
 6443          o    171    ccc     O2   6443 -0.61950000  16.000000   ; qtot 0.265096
 6444         h1    171    ccc    H13   6444 -0.05230000   1.008000   ; qtot 0.212796
 6445         h1    171    ccc    H14   6445 -0.05230000   1.008000   ; qtot 0.160496
 6446         c3    171    ccc     C9   6446 -0.60390000  12.010000   ; qtot -0.443404
 6447         hc    171    ccc    H15   6447 0.16730000   1.008000   ; qtot -0.276104
 6448         hc    171    ccc    H16   6448 0.16730000   1.008000   ; qtot -0.108804
 6449          c    171    ccc    C10   6449 0.72110000  12.010000   ; qtot 0.612296
 6450          o    171    ccc     O4   6450 -0.61950000  16.000000   ; qtot -0.007204
 6451         c3    171    ccc    C11   6451 0.08518000  12.010000   ; qtot 0.077976
 6452         c3    171    ccc    C12   6452 0.07918000  12.010000   ; qtot 0.157156
 6453         h1    171    ccc    H17   6453 0.06978000   1.008000   ; qtot 0.226936
 6454         c3    171    ccc    C13   6454 0.07918000  12.010000   ; qtot 0.306116
 6455         c3    171    ccc    C14   6455 0.03578000  12.010000   ; qtot 0.341896
 6456         c3    171    ccc    C15   6456 0.33498000  12.010000   ; qtot 0.676876
 6457         h1    171    ccc    H18   6457 0.06178000   1.008000   ; qtot 0.738656
 6458         h1    171    ccc    H19   6458 0.11278000   1.008000   ; qtot 0.851436
 6459         h2    171    ccc    H20   6459 0.12178000   1.008000   ; qtot 0.973216
 6460         oh    171    ccc     O1   6460 -0.56972000  16.000000   ; qtot 0.403496
 6461         oh    171    ccc     O6   6461 -0.57772000  16.000000   ; qtot -0.174224
 6462         c3    171    ccc    C16   6462 0.14548000  12.010000   ; qtot -0.028744
 6463         ho    171    ccc    H21   6463 0.40508000   1.008000   ; qtot 0.376336
 6464         hn    171    ccc    H22   6464 0.31758000   1.008000   ; qtot 0.693916
 6465         h1    171    ccc    H23   6465 0.06278000   1.008000   ; qtot 0.756696
 6466         h1    171    ccc    H24   6466 0.06278000   1.008000   ; qtot 0.819476
 6467         oh    171    ccc     O7   6467 -0.59472000  16.000000   ; qtot 0.224756
 6468         ho    171    ccc    H25   6468 0.41908000   1.008000   ; qtot 0.643836
 6469         os    171    ccc     O8   6469 -0.44552000  16.000000   ; qtot 0.198316
 6470         ho    171    ccc    H26   6470 0.41908000   1.008000   ; qtot 0.617396
 6471         h1    171    ccc    H27   6471 0.08578000   1.008000   ; qtot 0.703176
 6472         oh    171    ccc     O9   6472 -0.58672000  16.000000   ; qtot 0.116456
 6473         ho    171    ccc    H28   6473 0.41908000   1.008000   ; qtot 0.535536
 6474         n3    171    ccc     N3   6474 -0.54282000  14.010000   ; qtot -0.007284
 6475         c3    171    ccc    C17   6475 0.08518000  12.010000   ; qtot 0.077896
 6476         c3    171    ccc    C18   6476 0.07918000  12.010000   ; qtot 0.157076
 6477         h1    171    ccc    H29   6477 0.06978000   1.008000   ; qtot 0.226856
 6478         c3    171    ccc    C19   6478 0.07918000  12.010000   ; qtot 0.306036
 6479         c3    171    ccc    C20   6479 0.03578000  12.010000   ; qtot 0.341816
 6480         c3    171    ccc    C21   6480 0.33498000  12.010000   ; qtot 0.676796
 6481         h1    171    ccc    H30   6481 0.06178000   1.008000   ; qtot 0.738576
 6482         h1    171    ccc    H31   6482 0.11278000   1.008000   ; qtot 0.851356
 6483         h2    171    ccc    H32   6483 0.12178000   1.008000   ; qtot 0.973136
 6484         oh    171    ccc    O10   6484 -0.56972000  16.000000   ; qtot 0.403416
 6485         oh    171    ccc    O11   6485 -0.57772000  16.000000   ; qtot -0.174304
 6486         c3    171    ccc    C22   6486 0.14548000  12.010000   ; qtot -0.028824
 6487         ho    171    ccc    H33   6487 0.40508000   1.008000   ; qtot 0.376256
 6488         hn    171    ccc    H34   6488 0.31758000   1.008000   ; qtot 0.693836
 6489         h1    171    ccc    H35   6489 0.06278000   1.008000   ; qtot 0.756616
 6490         h1    171    ccc    H36   6490 0.06278000   1.008000   ; qtot 0.819396
 6491         oh    171    ccc    O12   6491 -0.59472000  16.000000   ; qtot 0.224676
 6492         ho    171    ccc    H37   6492 0.41908000   1.008000   ; qtot 0.643756
 6493         os    171    ccc    O13   6493 -0.44552000  16.000000   ; qtot 0.198236
 6494         ho    171    ccc    H38   6494 0.41908000   1.008000   ; qtot 0.617316
 6495         h1    171    ccc    H39   6495 0.08578000   1.008000   ; qtot 0.703096
 6496         oh    171    ccc     O5   6496 -0.58672000  16.000000   ; qtot 0.116376
 6497         ho    171    ccc    H40   6497 0.41908000   1.008000   ; qtot 0.535456
 6498         n3    171    ccc     N4   6498 -0.54282000  14.010000   ; qtot -0.007364
; residue  172 ccc rtp ccc q -0.0
 6499          n    172    ccc     N1   6499 -0.46580000  14.010000   ; qtot -0.473164
 6500         hn    172    ccc     H4   6500 0.31480000   1.008000   ; qtot -0.158364
 6501         c3    172    ccc     C3   6501 -0.28250000  12.010000   ; qtot -0.440864
 6502         h1    172    ccc     H5   6502 0.15710000   1.008000   ; qtot -0.283764
 6503         c3    172    ccc     C4   6503 0.44180000  12.010000   ; qtot 0.158036
 6504         h1    172    ccc     H6   6504 0.15710000   1.008000   ; qtot 0.315136
 6505         h1    172    ccc     H7   6505 -0.03530000   1.008000   ; qtot 0.279836
 6506         h1    172    ccc     H8   6506 -0.03530000   1.008000   ; qtot 0.244536
 6507         n3    172    ccc     N2   6507 -0.74090000  14.010000   ; qtot -0.496364
 6508         c3    172    ccc     C5   6508 0.51680000  12.010000   ; qtot 0.020436
 6509         c3    172    ccc     C6   6509 0.51680000  12.010000   ; qtot 0.537236
 6510         h1    172    ccc     H9   6510 -0.05230000   1.008000   ; qtot 0.484936
 6511         c3    172    ccc     C7   6511 -0.60390000  12.010000   ; qtot -0.118964
 6512         h1    172    ccc    H10   6512 -0.05230000   1.008000   ; qtot -0.171264
 6513         hc    172    ccc    H11   6513 0.16730000   1.008000   ; qtot -0.003964
 6514         hc    172    ccc    H12   6514 0.16730000   1.008000   ; qtot 0.163336
 6515          c    172    ccc     C8   6515 0.72110000  12.010000   ; qtot 0.884436
 6516          o    172    ccc     O2   6516 -0.61950000  16.000000   ; qtot 0.264936
 6517         h1    172    ccc    H13   6517 -0.05230000   1.008000   ; qtot 0.212636
 6518         h1    172    ccc    H14   6518 -0.05230000   1.008000   ; qtot 0.160336
 6519         c3    172    ccc     C9   6519 -0.60390000  12.010000   ; qtot -0.443564
 6520         hc    172    ccc    H15   6520 0.16730000   1.008000   ; qtot -0.276264
 6521         hc    172    ccc    H16   6521 0.16730000   1.008000   ; qtot -0.108964
 6522          c    172    ccc    C10   6522 0.72110000  12.010000   ; qtot 0.612136
 6523          o    172    ccc     O4   6523 -0.61950000  16.000000   ; qtot -0.007364
 6524         c3    172    ccc    C11   6524 0.08518000  12.010000   ; qtot 0.077816
 6525         c3    172    ccc    C12   6525 0.07918000  12.010000   ; qtot 0.156996
 6526         h1    172    ccc    H17   6526 0.06978000   1.008000   ; qtot 0.226776
 6527         c3    172    ccc    C13   6527 0.07918000  12.010000   ; qtot 0.305956
 6528         c3    172    ccc    C14   6528 0.03578000  12.010000   ; qtot 0.341736
 6529         c3    172    ccc    C15   6529 0.33498000  12.010000   ; qtot 0.676716
 6530         h1    172    ccc    H18   6530 0.06178000   1.008000   ; qtot 0.738496
 6531         h1    172    ccc    H19   6531 0.11278000   1.008000   ; qtot 0.851276
 6532         h2    172    ccc    H20   6532 0.12178000   1.008000   ; qtot 0.973056
 6533         oh    172    ccc     O1   6533 -0.56972000  16.000000   ; qtot 0.403336
 6534         oh    172    ccc     O6   6534 -0.57772000  16.000000   ; qtot -0.174384
 6535         c3    172    ccc    C16   6535 0.14548000  12.010000   ; qtot -0.028904
 6536         ho    172    ccc    H21   6536 0.40508000   1.008000   ; qtot 0.376176
 6537         hn    172    ccc    H22   6537 0.31758000   1.008000   ; qtot 0.693756
 6538         h1    172    ccc    H23   6538 0.06278000   1.008000   ; qtot 0.756536
 6539         h1    172    ccc    H24   6539 0.06278000   1.008000   ; qtot 0.819316
 6540         oh    172    ccc     O7   6540 -0.59472000  16.000000   ; qtot 0.224596
 6541         ho    172    ccc    H25   6541 0.41908000   1.008000   ; qtot 0.643676
 6542         os    172    ccc     O8   6542 -0.44552000  16.000000   ; qtot 0.198156
 6543         ho    172    ccc    H26   6543 0.41908000   1.008000   ; qtot 0.617236
 6544         h1    172    ccc    H27   6544 0.08578000   1.008000   ; qtot 0.703016
 6545         oh    172    ccc     O9   6545 -0.58672000  16.000000   ; qtot 0.116296
 6546         ho    172    ccc    H28   6546 0.41908000   1.008000   ; qtot 0.535376
 6547         n3    172    ccc     N3   6547 -0.54282000  14.010000   ; qtot -0.007444
 6548         c3    172    ccc    C17   6548 0.08518000  12.010000   ; qtot 0.077736
 6549         c3    172    ccc    C18   6549 0.07918000  12.010000   ; qtot 0.156916
 6550         h1    172    ccc    H29   6550 0.06978000   1.008000   ; qtot 0.226696
 6551         c3    172    ccc    C19   6551 0.07918000  12.010000   ; qtot 0.305876
 6552         c3    172    ccc    C20   6552 0.03578000  12.010000   ; qtot 0.341656
 6553         c3    172    ccc    C21   6553 0.33498000  12.010000   ; qtot 0.676636
 6554         h1    172    ccc    H30   6554 0.06178000   1.008000   ; qtot 0.738416
 6555         h1    172    ccc    H31   6555 0.11278000   1.008000   ; qtot 0.851196
 6556         h2    172    ccc    H32   6556 0.12178000   1.008000   ; qtot 0.972976
 6557         oh    172    ccc    O10   6557 -0.56972000  16.000000   ; qtot 0.403256
 6558         oh    172    ccc    O11   6558 -0.57772000  16.000000   ; qtot -0.174464
 6559         c3    172    ccc    C22   6559 0.14548000  12.010000   ; qtot -0.028984
 6560         ho    172    ccc    H33   6560 0.40508000   1.008000   ; qtot 0.376096
 6561         hn    172    ccc    H34   6561 0.31758000   1.008000   ; qtot 0.693676
 6562         h1    172    ccc    H35   6562 0.06278000   1.008000   ; qtot 0.756456
 6563         h1    172    ccc    H36   6563 0.06278000   1.008000   ; qtot 0.819236
 6564         oh    172    ccc    O12   6564 -0.59472000  16.000000   ; qtot 0.224516
 6565         ho    172    ccc    H37   6565 0.41908000   1.008000   ; qtot 0.643596
 6566         os    172    ccc    O13   6566 -0.44552000  16.000000   ; qtot 0.198076
 6567         ho    172    ccc    H38   6567 0.41908000   1.008000   ; qtot 0.617156
 6568         h1    172    ccc    H39   6568 0.08578000   1.008000   ; qtot 0.702936
 6569         oh    172    ccc     O5   6569 -0.58672000  16.000000   ; qtot 0.116216
 6570         ho    172    ccc    H40   6570 0.41908000   1.008000   ; qtot 0.535296
 6571         n3    172    ccc     N4   6571 -0.54282000  14.010000   ; qtot -0.007524
; residue  173 ccc rtp ccc q -0.0
 6572          n    173    ccc     N1   6572 -0.46580000  14.010000   ; qtot -0.473324
 6573         hn    173    ccc     H4   6573 0.31480000   1.008000   ; qtot -0.158524
 6574         c3    173    ccc     C3   6574 -0.28250000  12.010000   ; qtot -0.441024
 6575         h1    173    ccc     H5   6575 0.15710000   1.008000   ; qtot -0.283924
 6576         c3    173    ccc     C4   6576 0.44180000  12.010000   ; qtot 0.157876
 6577         h1    173    ccc     H6   6577 0.15710000   1.008000   ; qtot 0.314976
 6578         h1    173    ccc     H7   6578 -0.03530000   1.008000   ; qtot 0.279676
 6579         h1    173    ccc     H8   6579 -0.03530000   1.008000   ; qtot 0.244376
 6580         n3    173    ccc     N2   6580 -0.74090000  14.010000   ; qtot -0.496524
 6581         c3    173    ccc     C5   6581 0.51680000  12.010000   ; qtot 0.020276
 6582         c3    173    ccc     C6   6582 0.51680000  12.010000   ; qtot 0.537076
 6583         h1    173    ccc     H9   6583 -0.05230000   1.008000   ; qtot 0.484776
 6584         c3    173    ccc     C7   6584 -0.60390000  12.010000   ; qtot -0.119124
 6585         h1    173    ccc    H10   6585 -0.05230000   1.008000   ; qtot -0.171424
 6586         hc    173    ccc    H11   6586 0.16730000   1.008000   ; qtot -0.004124
 6587         hc    173    ccc    H12   6587 0.16730000   1.008000   ; qtot 0.163176
 6588          c    173    ccc     C8   6588 0.72110000  12.010000   ; qtot 0.884276
 6589          o    173    ccc     O2   6589 -0.61950000  16.000000   ; qtot 0.264776
 6590         h1    173    ccc    H13   6590 -0.05230000   1.008000   ; qtot 0.212476
 6591         h1    173    ccc    H14   6591 -0.05230000   1.008000   ; qtot 0.160176
 6592         c3    173    ccc     C9   6592 -0.60390000  12.010000   ; qtot -0.443724
 6593         hc    173    ccc    H15   6593 0.16730000   1.008000   ; qtot -0.276424
 6594         hc    173    ccc    H16   6594 0.16730000   1.008000   ; qtot -0.109124
 6595          c    173    ccc    C10   6595 0.72110000  12.010000   ; qtot 0.611976
 6596          o    173    ccc     O4   6596 -0.61950000  16.000000   ; qtot -0.007524
 6597         c3    173    ccc    C11   6597 0.08518000  12.010000   ; qtot 0.077656
 6598         c3    173    ccc    C12   6598 0.07918000  12.010000   ; qtot 0.156836
 6599         h1    173    ccc    H17   6599 0.06978000   1.008000   ; qtot 0.226616
 6600         c3    173    ccc    C13   6600 0.07918000  12.010000   ; qtot 0.305796
 6601         c3    173    ccc    C14   6601 0.03578000  12.010000   ; qtot 0.341576
 6602         c3    173    ccc    C15   6602 0.33498000  12.010000   ; qtot 0.676556
 6603         h1    173    ccc    H18   6603 0.06178000   1.008000   ; qtot 0.738336
 6604         h1    173    ccc    H19   6604 0.11278000   1.008000   ; qtot 0.851116
 6605         h2    173    ccc    H20   6605 0.12178000   1.008000   ; qtot 0.972896
 6606         oh    173    ccc     O1   6606 -0.56972000  16.000000   ; qtot 0.403176
 6607         oh    173    ccc     O6   6607 -0.57772000  16.000000   ; qtot -0.174544
 6608         c3    173    ccc    C16   6608 0.14548000  12.010000   ; qtot -0.029064
 6609         ho    173    ccc    H21   6609 0.40508000   1.008000   ; qtot 0.376016
 6610         hn    173    ccc    H22   6610 0.31758000   1.008000   ; qtot 0.693596
 6611         h1    173    ccc    H23   6611 0.06278000   1.008000   ; qtot 0.756376
 6612         h1    173    ccc    H24   6612 0.06278000   1.008000   ; qtot 0.819156
 6613         oh    173    ccc     O7   6613 -0.59472000  16.000000   ; qtot 0.224436
 6614         ho    173    ccc    H25   6614 0.41908000   1.008000   ; qtot 0.643516
 6615         os    173    ccc     O8   6615 -0.44552000  16.000000   ; qtot 0.197996
 6616         ho    173    ccc    H26   6616 0.41908000   1.008000   ; qtot 0.617076
 6617         h1    173    ccc    H27   6617 0.08578000   1.008000   ; qtot 0.702856
 6618         oh    173    ccc     O9   6618 -0.58672000  16.000000   ; qtot 0.116136
 6619         ho    173    ccc    H28   6619 0.41908000   1.008000   ; qtot 0.535216
 6620         n3    173    ccc     N3   6620 -0.54282000  14.010000   ; qtot -0.007604
 6621         c3    173    ccc    C17   6621 0.08518000  12.010000   ; qtot 0.077576
 6622         c3    173    ccc    C18   6622 0.07918000  12.010000   ; qtot 0.156756
 6623         h1    173    ccc    H29   6623 0.06978000   1.008000   ; qtot 0.226536
 6624         c3    173    ccc    C19   6624 0.07918000  12.010000   ; qtot 0.305716
 6625         c3    173    ccc    C20   6625 0.03578000  12.010000   ; qtot 0.341496
 6626         c3    173    ccc    C21   6626 0.33498000  12.010000   ; qtot 0.676476
 6627         h1    173    ccc    H30   6627 0.06178000   1.008000   ; qtot 0.738256
 6628         h1    173    ccc    H31   6628 0.11278000   1.008000   ; qtot 0.851036
 6629         h2    173    ccc    H32   6629 0.12178000   1.008000   ; qtot 0.972816
 6630         oh    173    ccc    O10   6630 -0.56972000  16.000000   ; qtot 0.403096
 6631         oh    173    ccc    O11   6631 -0.57772000  16.000000   ; qtot -0.174624
 6632         c3    173    ccc    C22   6632 0.14548000  12.010000   ; qtot -0.029144
 6633         ho    173    ccc    H33   6633 0.40508000   1.008000   ; qtot 0.375936
 6634         hn    173    ccc    H34   6634 0.31758000   1.008000   ; qtot 0.693516
 6635         h1    173    ccc    H35   6635 0.06278000   1.008000   ; qtot 0.756296
 6636         h1    173    ccc    H36   6636 0.06278000   1.008000   ; qtot 0.819076
 6637         oh    173    ccc    O12   6637 -0.59472000  16.000000   ; qtot 0.224356
 6638         ho    173    ccc    H37   6638 0.41908000   1.008000   ; qtot 0.643436
 6639         os    173    ccc    O13   6639 -0.44552000  16.000000   ; qtot 0.197916
 6640         ho    173    ccc    H38   6640 0.41908000   1.008000   ; qtot 0.616996
 6641         h1    173    ccc    H39   6641 0.08578000   1.008000   ; qtot 0.702776
 6642         oh    173    ccc     O5   6642 -0.58672000  16.000000   ; qtot 0.116056
 6643         ho    173    ccc    H40   6643 0.41908000   1.008000   ; qtot 0.535136
 6644         n3    173    ccc     N4   6644 -0.54282000  14.010000   ; qtot -0.007684
; residue  174 ccc rtp ccc q -0.0
 6645          n    174    ccc     N1   6645 -0.46580000  14.010000   ; qtot -0.473484
 6646         hn    174    ccc     H4   6646 0.31480000   1.008000   ; qtot -0.158684
 6647         c3    174    ccc     C3   6647 -0.28250000  12.010000   ; qtot -0.441184
 6648         h1    174    ccc     H5   6648 0.15710000   1.008000   ; qtot -0.284084
 6649         c3    174    ccc     C4   6649 0.44180000  12.010000   ; qtot 0.157716
 6650         h1    174    ccc     H6   6650 0.15710000   1.008000   ; qtot 0.314816
 6651         h1    174    ccc     H7   6651 -0.03530000   1.008000   ; qtot 0.279516
 6652         h1    174    ccc     H8   6652 -0.03530000   1.008000   ; qtot 0.244216
 6653         n3    174    ccc     N2   6653 -0.74090000  14.010000   ; qtot -0.496684
 6654         c3    174    ccc     C5   6654 0.51680000  12.010000   ; qtot 0.020116
 6655         c3    174    ccc     C6   6655 0.51680000  12.010000   ; qtot 0.536916
 6656         h1    174    ccc     H9   6656 -0.05230000   1.008000   ; qtot 0.484616
 6657         c3    174    ccc     C7   6657 -0.60390000  12.010000   ; qtot -0.119284
 6658         h1    174    ccc    H10   6658 -0.05230000   1.008000   ; qtot -0.171584
 6659         hc    174    ccc    H11   6659 0.16730000   1.008000   ; qtot -0.004284
 6660         hc    174    ccc    H12   6660 0.16730000   1.008000   ; qtot 0.163016
 6661          c    174    ccc     C8   6661 0.72110000  12.010000   ; qtot 0.884116
 6662          o    174    ccc     O2   6662 -0.61950000  16.000000   ; qtot 0.264616
 6663         h1    174    ccc    H13   6663 -0.05230000   1.008000   ; qtot 0.212316
 6664         h1    174    ccc    H14   6664 -0.05230000   1.008000   ; qtot 0.160016
 6665         c3    174    ccc     C9   6665 -0.60390000  12.010000   ; qtot -0.443884
 6666         hc    174    ccc    H15   6666 0.16730000   1.008000   ; qtot -0.276584
 6667         hc    174    ccc    H16   6667 0.16730000   1.008000   ; qtot -0.109284
 6668          c    174    ccc    C10   6668 0.72110000  12.010000   ; qtot 0.611816
 6669          o    174    ccc     O4   6669 -0.61950000  16.000000   ; qtot -0.007684
 6670         c3    174    ccc    C11   6670 0.08518000  12.010000   ; qtot 0.077496
 6671         c3    174    ccc    C12   6671 0.07918000  12.010000   ; qtot 0.156676
 6672         h1    174    ccc    H17   6672 0.06978000   1.008000   ; qtot 0.226456
 6673         c3    174    ccc    C13   6673 0.07918000  12.010000   ; qtot 0.305636
 6674         c3    174    ccc    C14   6674 0.03578000  12.010000   ; qtot 0.341416
 6675         c3    174    ccc    C15   6675 0.33498000  12.010000   ; qtot 0.676396
 6676         h1    174    ccc    H18   6676 0.06178000   1.008000   ; qtot 0.738176
 6677         h1    174    ccc    H19   6677 0.11278000   1.008000   ; qtot 0.850956
 6678         h2    174    ccc    H20   6678 0.12178000   1.008000   ; qtot 0.972736
 6679         oh    174    ccc     O1   6679 -0.56972000  16.000000   ; qtot 0.403016
 6680         oh    174    ccc     O6   6680 -0.57772000  16.000000   ; qtot -0.174704
 6681         c3    174    ccc    C16   6681 0.14548000  12.010000   ; qtot -0.029224
 6682         ho    174    ccc    H21   6682 0.40508000   1.008000   ; qtot 0.375856
 6683         hn    174    ccc    H22   6683 0.31758000   1.008000   ; qtot 0.693436
 6684         h1    174    ccc    H23   6684 0.06278000   1.008000   ; qtot 0.756216
 6685         h1    174    ccc    H24   6685 0.06278000   1.008000   ; qtot 0.818996
 6686         oh    174    ccc     O7   6686 -0.59472000  16.000000   ; qtot 0.224276
 6687         ho    174    ccc    H25   6687 0.41908000   1.008000   ; qtot 0.643356
 6688         os    174    ccc     O8   6688 -0.44552000  16.000000   ; qtot 0.197836
 6689         ho    174    ccc    H26   6689 0.41908000   1.008000   ; qtot 0.616916
 6690         h1    174    ccc    H27   6690 0.08578000   1.008000   ; qtot 0.702696
 6691         oh    174    ccc     O9   6691 -0.58672000  16.000000   ; qtot 0.115976
 6692         ho    174    ccc    H28   6692 0.41908000   1.008000   ; qtot 0.535056
 6693         n3    174    ccc     N3   6693 -0.54282000  14.010000   ; qtot -0.007764
 6694         c3    174    ccc    C17   6694 0.08518000  12.010000   ; qtot 0.077416
 6695         c3    174    ccc    C18   6695 0.07918000  12.010000   ; qtot 0.156596
 6696         h1    174    ccc    H29   6696 0.06978000   1.008000   ; qtot 0.226376
 6697         c3    174    ccc    C19   6697 0.07918000  12.010000   ; qtot 0.305556
 6698         c3    174    ccc    C20   6698 0.03578000  12.010000   ; qtot 0.341336
 6699         c3    174    ccc    C21   6699 0.33498000  12.010000   ; qtot 0.676316
 6700         h1    174    ccc    H30   6700 0.06178000   1.008000   ; qtot 0.738096
 6701         h1    174    ccc    H31   6701 0.11278000   1.008000   ; qtot 0.850876
 6702         h2    174    ccc    H32   6702 0.12178000   1.008000   ; qtot 0.972656
 6703         oh    174    ccc    O10   6703 -0.56972000  16.000000   ; qtot 0.402936
 6704         oh    174    ccc    O11   6704 -0.57772000  16.000000   ; qtot -0.174784
 6705         c3    174    ccc    C22   6705 0.14548000  12.010000   ; qtot -0.029304
 6706         ho    174    ccc    H33   6706 0.40508000   1.008000   ; qtot 0.375776
 6707         hn    174    ccc    H34   6707 0.31758000   1.008000   ; qtot 0.693356
 6708         h1    174    ccc    H35   6708 0.06278000   1.008000   ; qtot 0.756136
 6709         h1    174    ccc    H36   6709 0.06278000   1.008000   ; qtot 0.818916
 6710         oh    174    ccc    O12   6710 -0.59472000  16.000000   ; qtot 0.224196
 6711         ho    174    ccc    H37   6711 0.41908000   1.008000   ; qtot 0.643276
 6712         os    174    ccc    O13   6712 -0.44552000  16.000000   ; qtot 0.197756
 6713         ho    174    ccc    H38   6713 0.41908000   1.008000   ; qtot 0.616836
 6714         h1    174    ccc    H39   6714 0.08578000   1.008000   ; qtot 0.702616
 6715         oh    174    ccc     O5   6715 -0.58672000  16.000000   ; qtot 0.115896
 6716         ho    174    ccc    H40   6716 0.41908000   1.008000   ; qtot 0.534976
 6717         n3    174    ccc     N4   6717 -0.54282000  14.010000   ; qtot -0.007844
; residue  175 ccc rtp ccc q -0.0
 6718          n    175    ccc     N1   6718 -0.46580000  14.010000   ; qtot -0.473644
 6719         hn    175    ccc     H4   6719 0.31480000   1.008000   ; qtot -0.158844
 6720         c3    175    ccc     C3   6720 -0.28250000  12.010000   ; qtot -0.441344
 6721         h1    175    ccc     H5   6721 0.15710000   1.008000   ; qtot -0.284244
 6722         c3    175    ccc     C4   6722 0.44180000  12.010000   ; qtot 0.157556
 6723         h1    175    ccc     H6   6723 0.15710000   1.008000   ; qtot 0.314656
 6724         h1    175    ccc     H7   6724 -0.03530000   1.008000   ; qtot 0.279356
 6725         h1    175    ccc     H8   6725 -0.03530000   1.008000   ; qtot 0.244056
 6726         n3    175    ccc     N2   6726 -0.74090000  14.010000   ; qtot -0.496844
 6727         c3    175    ccc     C5   6727 0.51680000  12.010000   ; qtot 0.019956
 6728         c3    175    ccc     C6   6728 0.51680000  12.010000   ; qtot 0.536756
 6729         h1    175    ccc     H9   6729 -0.05230000   1.008000   ; qtot 0.484456
 6730         c3    175    ccc     C7   6730 -0.60390000  12.010000   ; qtot -0.119444
 6731         h1    175    ccc    H10   6731 -0.05230000   1.008000   ; qtot -0.171744
 6732         hc    175    ccc    H11   6732 0.16730000   1.008000   ; qtot -0.004444
 6733         hc    175    ccc    H12   6733 0.16730000   1.008000   ; qtot 0.162856
 6734          c    175    ccc     C8   6734 0.72110000  12.010000   ; qtot 0.883956
 6735          o    175    ccc     O2   6735 -0.61950000  16.000000   ; qtot 0.264456
 6736         h1    175    ccc    H13   6736 -0.05230000   1.008000   ; qtot 0.212156
 6737         h1    175    ccc    H14   6737 -0.05230000   1.008000   ; qtot 0.159856
 6738         c3    175    ccc     C9   6738 -0.60390000  12.010000   ; qtot -0.444044
 6739         hc    175    ccc    H15   6739 0.16730000   1.008000   ; qtot -0.276744
 6740         hc    175    ccc    H16   6740 0.16730000   1.008000   ; qtot -0.109444
 6741          c    175    ccc    C10   6741 0.72110000  12.010000   ; qtot 0.611656
 6742          o    175    ccc     O4   6742 -0.61950000  16.000000   ; qtot -0.007844
 6743         c3    175    ccc    C11   6743 0.08518000  12.010000   ; qtot 0.077336
 6744         c3    175    ccc    C12   6744 0.07918000  12.010000   ; qtot 0.156516
 6745         h1    175    ccc    H17   6745 0.06978000   1.008000   ; qtot 0.226296
 6746         c3    175    ccc    C13   6746 0.07918000  12.010000   ; qtot 0.305476
 6747         c3    175    ccc    C14   6747 0.03578000  12.010000   ; qtot 0.341256
 6748         c3    175    ccc    C15   6748 0.33498000  12.010000   ; qtot 0.676236
 6749         h1    175    ccc    H18   6749 0.06178000   1.008000   ; qtot 0.738016
 6750         h1    175    ccc    H19   6750 0.11278000   1.008000   ; qtot 0.850796
 6751         h2    175    ccc    H20   6751 0.12178000   1.008000   ; qtot 0.972576
 6752         oh    175    ccc     O1   6752 -0.56972000  16.000000   ; qtot 0.402856
 6753         oh    175    ccc     O6   6753 -0.57772000  16.000000   ; qtot -0.174864
 6754         c3    175    ccc    C16   6754 0.14548000  12.010000   ; qtot -0.029384
 6755         ho    175    ccc    H21   6755 0.40508000   1.008000   ; qtot 0.375696
 6756         hn    175    ccc    H22   6756 0.31758000   1.008000   ; qtot 0.693276
 6757         h1    175    ccc    H23   6757 0.06278000   1.008000   ; qtot 0.756056
 6758         h1    175    ccc    H24   6758 0.06278000   1.008000   ; qtot 0.818836
 6759         oh    175    ccc     O7   6759 -0.59472000  16.000000   ; qtot 0.224116
 6760         ho    175    ccc    H25   6760 0.41908000   1.008000   ; qtot 0.643196
 6761         os    175    ccc     O8   6761 -0.44552000  16.000000   ; qtot 0.197676
 6762         ho    175    ccc    H26   6762 0.41908000   1.008000   ; qtot 0.616756
 6763         h1    175    ccc    H27   6763 0.08578000   1.008000   ; qtot 0.702536
 6764         oh    175    ccc     O9   6764 -0.58672000  16.000000   ; qtot 0.115816
 6765         ho    175    ccc    H28   6765 0.41908000   1.008000   ; qtot 0.534896
 6766         n3    175    ccc     N3   6766 -0.54282000  14.010000   ; qtot -0.007924
 6767         c3    175    ccc    C17   6767 0.08518000  12.010000   ; qtot 0.077256
 6768         c3    175    ccc    C18   6768 0.07918000  12.010000   ; qtot 0.156436
 6769         h1    175    ccc    H29   6769 0.06978000   1.008000   ; qtot 0.226216
 6770         c3    175    ccc    C19   6770 0.07918000  12.010000   ; qtot 0.305396
 6771         c3    175    ccc    C20   6771 0.03578000  12.010000   ; qtot 0.341176
 6772         c3    175    ccc    C21   6772 0.33498000  12.010000   ; qtot 0.676156
 6773         h1    175    ccc    H30   6773 0.06178000   1.008000   ; qtot 0.737936
 6774         h1    175    ccc    H31   6774 0.11278000   1.008000   ; qtot 0.850716
 6775         h2    175    ccc    H32   6775 0.12178000   1.008000   ; qtot 0.972496
 6776         oh    175    ccc    O10   6776 -0.56972000  16.000000   ; qtot 0.402776
 6777         oh    175    ccc    O11   6777 -0.57772000  16.000000   ; qtot -0.174944
 6778         c3    175    ccc    C22   6778 0.14548000  12.010000   ; qtot -0.029464
 6779         ho    175    ccc    H33   6779 0.40508000   1.008000   ; qtot 0.375616
 6780         hn    175    ccc    H34   6780 0.31758000   1.008000   ; qtot 0.693196
 6781         h1    175    ccc    H35   6781 0.06278000   1.008000   ; qtot 0.755976
 6782         h1    175    ccc    H36   6782 0.06278000   1.008000   ; qtot 0.818756
 6783         oh    175    ccc    O12   6783 -0.59472000  16.000000   ; qtot 0.224036
 6784         ho    175    ccc    H37   6784 0.41908000   1.008000   ; qtot 0.643116
 6785         os    175    ccc    O13   6785 -0.44552000  16.000000   ; qtot 0.197596
 6786         ho    175    ccc    H38   6786 0.41908000   1.008000   ; qtot 0.616676
 6787         h1    175    ccc    H39   6787 0.08578000   1.008000   ; qtot 0.702456
 6788         oh    175    ccc     O5   6788 -0.58672000  16.000000   ; qtot 0.115736
 6789         ho    175    ccc    H40   6789 0.41908000   1.008000   ; qtot 0.534816
 6790         n3    175    ccc     N4   6790 -0.54282000  14.010000   ; qtot -0.008004
; residue  176 ccc rtp ccc q -0.0
 6791          n    176    ccc     N1   6791 -0.46580000  14.010000   ; qtot -0.473804
 6792         hn    176    ccc     H4   6792 0.31480000   1.008000   ; qtot -0.159004
 6793         c3    176    ccc     C3   6793 -0.28250000  12.010000   ; qtot -0.441504
 6794         h1    176    ccc     H5   6794 0.15710000   1.008000   ; qtot -0.284404
 6795         c3    176    ccc     C4   6795 0.44180000  12.010000   ; qtot 0.157396
 6796         h1    176    ccc     H6   6796 0.15710000   1.008000   ; qtot 0.314496
 6797         h1    176    ccc     H7   6797 -0.03530000   1.008000   ; qtot 0.279196
 6798         h1    176    ccc     H8   6798 -0.03530000   1.008000   ; qtot 0.243896
 6799         n3    176    ccc     N2   6799 -0.74090000  14.010000   ; qtot -0.497004
 6800         c3    176    ccc     C5   6800 0.51680000  12.010000   ; qtot 0.019796
 6801         c3    176    ccc     C6   6801 0.51680000  12.010000   ; qtot 0.536596
 6802         h1    176    ccc     H9   6802 -0.05230000   1.008000   ; qtot 0.484296
 6803         c3    176    ccc     C7   6803 -0.60390000  12.010000   ; qtot -0.119604
 6804         h1    176    ccc    H10   6804 -0.05230000   1.008000   ; qtot -0.171904
 6805         hc    176    ccc    H11   6805 0.16730000   1.008000   ; qtot -0.004604
 6806         hc    176    ccc    H12   6806 0.16730000   1.008000   ; qtot 0.162696
 6807          c    176    ccc     C8   6807 0.72110000  12.010000   ; qtot 0.883796
 6808          o    176    ccc     O2   6808 -0.61950000  16.000000   ; qtot 0.264296
 6809         h1    176    ccc    H13   6809 -0.05230000   1.008000   ; qtot 0.211996
 6810         h1    176    ccc    H14   6810 -0.05230000   1.008000   ; qtot 0.159696
 6811         c3    176    ccc     C9   6811 -0.60390000  12.010000   ; qtot -0.444204
 6812         hc    176    ccc    H15   6812 0.16730000   1.008000   ; qtot -0.276904
 6813         hc    176    ccc    H16   6813 0.16730000   1.008000   ; qtot -0.109604
 6814          c    176    ccc    C10   6814 0.72110000  12.010000   ; qtot 0.611496
 6815          o    176    ccc     O4   6815 -0.61950000  16.000000   ; qtot -0.008004
 6816         c3    176    ccc    C11   6816 0.08518000  12.010000   ; qtot 0.077176
 6817         c3    176    ccc    C12   6817 0.07918000  12.010000   ; qtot 0.156356
 6818         h1    176    ccc    H17   6818 0.06978000   1.008000   ; qtot 0.226136
 6819         c3    176    ccc    C13   6819 0.07918000  12.010000   ; qtot 0.305316
 6820         c3    176    ccc    C14   6820 0.03578000  12.010000   ; qtot 0.341096
 6821         c3    176    ccc    C15   6821 0.33498000  12.010000   ; qtot 0.676076
 6822         h1    176    ccc    H18   6822 0.06178000   1.008000   ; qtot 0.737856
 6823         h1    176    ccc    H19   6823 0.11278000   1.008000   ; qtot 0.850636
 6824         h2    176    ccc    H20   6824 0.12178000   1.008000   ; qtot 0.972416
 6825         oh    176    ccc     O1   6825 -0.56972000  16.000000   ; qtot 0.402696
 6826         oh    176    ccc     O6   6826 -0.57772000  16.000000   ; qtot -0.175024
 6827         c3    176    ccc    C16   6827 0.14548000  12.010000   ; qtot -0.029544
 6828         ho    176    ccc    H21   6828 0.40508000   1.008000   ; qtot 0.375536
 6829         hn    176    ccc    H22   6829 0.31758000   1.008000   ; qtot 0.693116
 6830         h1    176    ccc    H23   6830 0.06278000   1.008000   ; qtot 0.755896
 6831         h1    176    ccc    H24   6831 0.06278000   1.008000   ; qtot 0.818676
 6832         oh    176    ccc     O7   6832 -0.59472000  16.000000   ; qtot 0.223956
 6833         ho    176    ccc    H25   6833 0.41908000   1.008000   ; qtot 0.643036
 6834         os    176    ccc     O8   6834 -0.44552000  16.000000   ; qtot 0.197516
 6835         ho    176    ccc    H26   6835 0.41908000   1.008000   ; qtot 0.616596
 6836         h1    176    ccc    H27   6836 0.08578000   1.008000   ; qtot 0.702376
 6837         oh    176    ccc     O9   6837 -0.58672000  16.000000   ; qtot 0.115656
 6838         ho    176    ccc    H28   6838 0.41908000   1.008000   ; qtot 0.534736
 6839         n3    176    ccc     N3   6839 -0.54282000  14.010000   ; qtot -0.008084
 6840         c3    176    ccc    C17   6840 0.08518000  12.010000   ; qtot 0.077096
 6841         c3    176    ccc    C18   6841 0.07918000  12.010000   ; qtot 0.156276
 6842         h1    176    ccc    H29   6842 0.06978000   1.008000   ; qtot 0.226056
 6843         c3    176    ccc    C19   6843 0.07918000  12.010000   ; qtot 0.305236
 6844         c3    176    ccc    C20   6844 0.03578000  12.010000   ; qtot 0.341016
 6845         c3    176    ccc    C21   6845 0.33498000  12.010000   ; qtot 0.675996
 6846         h1    176    ccc    H30   6846 0.06178000   1.008000   ; qtot 0.737776
 6847         h1    176    ccc    H31   6847 0.11278000   1.008000   ; qtot 0.850556
 6848         h2    176    ccc    H32   6848 0.12178000   1.008000   ; qtot 0.972336
 6849         oh    176    ccc    O10   6849 -0.56972000  16.000000   ; qtot 0.402616
 6850         oh    176    ccc    O11   6850 -0.57772000  16.000000   ; qtot -0.175104
 6851         c3    176    ccc    C22   6851 0.14548000  12.010000   ; qtot -0.029624
 6852         ho    176    ccc    H33   6852 0.40508000   1.008000   ; qtot 0.375456
 6853         hn    176    ccc    H34   6853 0.31758000   1.008000   ; qtot 0.693036
 6854         h1    176    ccc    H35   6854 0.06278000   1.008000   ; qtot 0.755816
 6855         h1    176    ccc    H36   6855 0.06278000   1.008000   ; qtot 0.818596
 6856         oh    176    ccc    O12   6856 -0.59472000  16.000000   ; qtot 0.223876
 6857         ho    176    ccc    H37   6857 0.41908000   1.008000   ; qtot 0.642956
 6858         os    176    ccc    O13   6858 -0.44552000  16.000000   ; qtot 0.197436
 6859         ho    176    ccc    H38   6859 0.41908000   1.008000   ; qtot 0.616516
 6860         h1    176    ccc    H39   6860 0.08578000   1.008000   ; qtot 0.702296
 6861         oh    176    ccc     O5   6861 -0.58672000  16.000000   ; qtot 0.115576
 6862         ho    176    ccc    H40   6862 0.41908000   1.008000   ; qtot 0.534656
 6863         n3    176    ccc     N4   6863 -0.54282000  14.010000   ; qtot -0.008164
; residue  177 ccc rtp ccc q -0.0
 6864          n    177    ccc     N1   6864 -0.46580000  14.010000   ; qtot -0.473964
 6865         hn    177    ccc     H4   6865 0.31480000   1.008000   ; qtot -0.159164
 6866         c3    177    ccc     C3   6866 -0.28250000  12.010000   ; qtot -0.441664
 6867         h1    177    ccc     H5   6867 0.15710000   1.008000   ; qtot -0.284564
 6868         c3    177    ccc     C4   6868 0.44180000  12.010000   ; qtot 0.157236
 6869         h1    177    ccc     H6   6869 0.15710000   1.008000   ; qtot 0.314336
 6870         h1    177    ccc     H7   6870 -0.03530000   1.008000   ; qtot 0.279036
 6871         h1    177    ccc     H8   6871 -0.03530000   1.008000   ; qtot 0.243736
 6872         n3    177    ccc     N2   6872 -0.74090000  14.010000   ; qtot -0.497164
 6873         c3    177    ccc     C5   6873 0.51680000  12.010000   ; qtot 0.019636
 6874         c3    177    ccc     C6   6874 0.51680000  12.010000   ; qtot 0.536436
 6875         h1    177    ccc     H9   6875 -0.05230000   1.008000   ; qtot 0.484136
 6876         c3    177    ccc     C7   6876 -0.60390000  12.010000   ; qtot -0.119764
 6877         h1    177    ccc    H10   6877 -0.05230000   1.008000   ; qtot -0.172064
 6878         hc    177    ccc    H11   6878 0.16730000   1.008000   ; qtot -0.004764
 6879         hc    177    ccc    H12   6879 0.16730000   1.008000   ; qtot 0.162536
 6880          c    177    ccc     C8   6880 0.72110000  12.010000   ; qtot 0.883636
 6881          o    177    ccc     O2   6881 -0.61950000  16.000000   ; qtot 0.264136
 6882         h1    177    ccc    H13   6882 -0.05230000   1.008000   ; qtot 0.211836
 6883         h1    177    ccc    H14   6883 -0.05230000   1.008000   ; qtot 0.159536
 6884         c3    177    ccc     C9   6884 -0.60390000  12.010000   ; qtot -0.444364
 6885         hc    177    ccc    H15   6885 0.16730000   1.008000   ; qtot -0.277064
 6886         hc    177    ccc    H16   6886 0.16730000   1.008000   ; qtot -0.109764
 6887          c    177    ccc    C10   6887 0.72110000  12.010000   ; qtot 0.611336
 6888          o    177    ccc     O4   6888 -0.61950000  16.000000   ; qtot -0.008164
 6889         c3    177    ccc    C11   6889 0.08518000  12.010000   ; qtot 0.077016
 6890         c3    177    ccc    C12   6890 0.07918000  12.010000   ; qtot 0.156196
 6891         h1    177    ccc    H17   6891 0.06978000   1.008000   ; qtot 0.225976
 6892         c3    177    ccc    C13   6892 0.07918000  12.010000   ; qtot 0.305156
 6893         c3    177    ccc    C14   6893 0.03578000  12.010000   ; qtot 0.340936
 6894         c3    177    ccc    C15   6894 0.33498000  12.010000   ; qtot 0.675916
 6895         h1    177    ccc    H18   6895 0.06178000   1.008000   ; qtot 0.737696
 6896         h1    177    ccc    H19   6896 0.11278000   1.008000   ; qtot 0.850476
 6897         h2    177    ccc    H20   6897 0.12178000   1.008000   ; qtot 0.972256
 6898         oh    177    ccc     O1   6898 -0.56972000  16.000000   ; qtot 0.402536
 6899         oh    177    ccc     O6   6899 -0.57772000  16.000000   ; qtot -0.175184
 6900         c3    177    ccc    C16   6900 0.14548000  12.010000   ; qtot -0.029704
 6901         ho    177    ccc    H21   6901 0.40508000   1.008000   ; qtot 0.375376
 6902         hn    177    ccc    H22   6902 0.31758000   1.008000   ; qtot 0.692956
 6903         h1    177    ccc    H23   6903 0.06278000   1.008000   ; qtot 0.755736
 6904         h1    177    ccc    H24   6904 0.06278000   1.008000   ; qtot 0.818516
 6905         oh    177    ccc     O7   6905 -0.59472000  16.000000   ; qtot 0.223796
 6906         ho    177    ccc    H25   6906 0.41908000   1.008000   ; qtot 0.642876
 6907         os    177    ccc     O8   6907 -0.44552000  16.000000   ; qtot 0.197356
 6908         ho    177    ccc    H26   6908 0.41908000   1.008000   ; qtot 0.616436
 6909         h1    177    ccc    H27   6909 0.08578000   1.008000   ; qtot 0.702216
 6910         oh    177    ccc     O9   6910 -0.58672000  16.000000   ; qtot 0.115496
 6911         ho    177    ccc    H28   6911 0.41908000   1.008000   ; qtot 0.534576
 6912         n3    177    ccc     N3   6912 -0.54282000  14.010000   ; qtot -0.008244
 6913         c3    177    ccc    C17   6913 0.08518000  12.010000   ; qtot 0.076936
 6914         c3    177    ccc    C18   6914 0.07918000  12.010000   ; qtot 0.156116
 6915         h1    177    ccc    H29   6915 0.06978000   1.008000   ; qtot 0.225896
 6916         c3    177    ccc    C19   6916 0.07918000  12.010000   ; qtot 0.305076
 6917         c3    177    ccc    C20   6917 0.03578000  12.010000   ; qtot 0.340856
 6918         c3    177    ccc    C21   6918 0.33498000  12.010000   ; qtot 0.675836
 6919         h1    177    ccc    H30   6919 0.06178000   1.008000   ; qtot 0.737616
 6920         h1    177    ccc    H31   6920 0.11278000   1.008000   ; qtot 0.850396
 6921         h2    177    ccc    H32   6921 0.12178000   1.008000   ; qtot 0.972176
 6922         oh    177    ccc    O10   6922 -0.56972000  16.000000   ; qtot 0.402456
 6923         oh    177    ccc    O11   6923 -0.57772000  16.000000   ; qtot -0.175264
 6924         c3    177    ccc    C22   6924 0.14548000  12.010000   ; qtot -0.029784
 6925         ho    177    ccc    H33   6925 0.40508000   1.008000   ; qtot 0.375296
 6926         hn    177    ccc    H34   6926 0.31758000   1.008000   ; qtot 0.692876
 6927         h1    177    ccc    H35   6927 0.06278000   1.008000   ; qtot 0.755656
 6928         h1    177    ccc    H36   6928 0.06278000   1.008000   ; qtot 0.818436
 6929         oh    177    ccc    O12   6929 -0.59472000  16.000000   ; qtot 0.223716
 6930         ho    177    ccc    H37   6930 0.41908000   1.008000   ; qtot 0.642796
 6931         os    177    ccc    O13   6931 -0.44552000  16.000000   ; qtot 0.197276
 6932         ho    177    ccc    H38   6932 0.41908000   1.008000   ; qtot 0.616356
 6933         h1    177    ccc    H39   6933 0.08578000   1.008000   ; qtot 0.702136
 6934         oh    177    ccc     O5   6934 -0.58672000  16.000000   ; qtot 0.115416
 6935         ho    177    ccc    H40   6935 0.41908000   1.008000   ; qtot 0.534496
 6936         n3    177    ccc     N4   6936 -0.54282000  14.010000   ; qtot -0.008324
; residue  178 ccc rtp ccc q -0.0
 6937          n    178    ccc     N1   6937 -0.46580000  14.010000   ; qtot -0.474124
 6938         hn    178    ccc     H4   6938 0.31480000   1.008000   ; qtot -0.159324
 6939         c3    178    ccc     C3   6939 -0.28250000  12.010000   ; qtot -0.441824
 6940         h1    178    ccc     H5   6940 0.15710000   1.008000   ; qtot -0.284724
 6941         c3    178    ccc     C4   6941 0.44180000  12.010000   ; qtot 0.157076
 6942         h1    178    ccc     H6   6942 0.15710000   1.008000   ; qtot 0.314176
 6943         h1    178    ccc     H7   6943 -0.03530000   1.008000   ; qtot 0.278876
 6944         h1    178    ccc     H8   6944 -0.03530000   1.008000   ; qtot 0.243576
 6945         n3    178    ccc     N2   6945 -0.74090000  14.010000   ; qtot -0.497324
 6946         c3    178    ccc     C5   6946 0.51680000  12.010000   ; qtot 0.019476
 6947         c3    178    ccc     C6   6947 0.51680000  12.010000   ; qtot 0.536276
 6948         h1    178    ccc     H9   6948 -0.05230000   1.008000   ; qtot 0.483976
 6949         c3    178    ccc     C7   6949 -0.60390000  12.010000   ; qtot -0.119924
 6950         h1    178    ccc    H10   6950 -0.05230000   1.008000   ; qtot -0.172224
 6951         hc    178    ccc    H11   6951 0.16730000   1.008000   ; qtot -0.004924
 6952         hc    178    ccc    H12   6952 0.16730000   1.008000   ; qtot 0.162376
 6953          c    178    ccc     C8   6953 0.72110000  12.010000   ; qtot 0.883476
 6954          o    178    ccc     O2   6954 -0.61950000  16.000000   ; qtot 0.263976
 6955         h1    178    ccc    H13   6955 -0.05230000   1.008000   ; qtot 0.211676
 6956         h1    178    ccc    H14   6956 -0.05230000   1.008000   ; qtot 0.159376
 6957         c3    178    ccc     C9   6957 -0.60390000  12.010000   ; qtot -0.444524
 6958         hc    178    ccc    H15   6958 0.16730000   1.008000   ; qtot -0.277224
 6959         hc    178    ccc    H16   6959 0.16730000   1.008000   ; qtot -0.109924
 6960          c    178    ccc    C10   6960 0.72110000  12.010000   ; qtot 0.611176
 6961          o    178    ccc     O4   6961 -0.61950000  16.000000   ; qtot -0.008324
 6962         c3    178    ccc    C11   6962 0.08518000  12.010000   ; qtot 0.076856
 6963         c3    178    ccc    C12   6963 0.07918000  12.010000   ; qtot 0.156036
 6964         h1    178    ccc    H17   6964 0.06978000   1.008000   ; qtot 0.225816
 6965         c3    178    ccc    C13   6965 0.07918000  12.010000   ; qtot 0.304996
 6966         c3    178    ccc    C14   6966 0.03578000  12.010000   ; qtot 0.340776
 6967         c3    178    ccc    C15   6967 0.33498000  12.010000   ; qtot 0.675756
 6968         h1    178    ccc    H18   6968 0.06178000   1.008000   ; qtot 0.737536
 6969         h1    178    ccc    H19   6969 0.11278000   1.008000   ; qtot 0.850316
 6970         h2    178    ccc    H20   6970 0.12178000   1.008000   ; qtot 0.972096
 6971         oh    178    ccc     O1   6971 -0.56972000  16.000000   ; qtot 0.402376
 6972         oh    178    ccc     O6   6972 -0.57772000  16.000000   ; qtot -0.175344
 6973         c3    178    ccc    C16   6973 0.14548000  12.010000   ; qtot -0.029864
 6974         ho    178    ccc    H21   6974 0.40508000   1.008000   ; qtot 0.375216
 6975         hn    178    ccc    H22   6975 0.31758000   1.008000   ; qtot 0.692796
 6976         h1    178    ccc    H23   6976 0.06278000   1.008000   ; qtot 0.755576
 6977         h1    178    ccc    H24   6977 0.06278000   1.008000   ; qtot 0.818356
 6978         oh    178    ccc     O7   6978 -0.59472000  16.000000   ; qtot 0.223636
 6979         ho    178    ccc    H25   6979 0.41908000   1.008000   ; qtot 0.642716
 6980         os    178    ccc     O8   6980 -0.44552000  16.000000   ; qtot 0.197196
 6981         ho    178    ccc    H26   6981 0.41908000   1.008000   ; qtot 0.616276
 6982         h1    178    ccc    H27   6982 0.08578000   1.008000   ; qtot 0.702056
 6983         oh    178    ccc     O9   6983 -0.58672000  16.000000   ; qtot 0.115336
 6984         ho    178    ccc    H28   6984 0.41908000   1.008000   ; qtot 0.534416
 6985         n3    178    ccc     N3   6985 -0.54282000  14.010000   ; qtot -0.008404
 6986         c3    178    ccc    C17   6986 0.08518000  12.010000   ; qtot 0.076776
 6987         c3    178    ccc    C18   6987 0.07918000  12.010000   ; qtot 0.155956
 6988         h1    178    ccc    H29   6988 0.06978000   1.008000   ; qtot 0.225736
 6989         c3    178    ccc    C19   6989 0.07918000  12.010000   ; qtot 0.304916
 6990         c3    178    ccc    C20   6990 0.03578000  12.010000   ; qtot 0.340696
 6991         c3    178    ccc    C21   6991 0.33498000  12.010000   ; qtot 0.675676
 6992         h1    178    ccc    H30   6992 0.06178000   1.008000   ; qtot 0.737456
 6993         h1    178    ccc    H31   6993 0.11278000   1.008000   ; qtot 0.850236
 6994         h2    178    ccc    H32   6994 0.12178000   1.008000   ; qtot 0.972016
 6995         oh    178    ccc    O10   6995 -0.56972000  16.000000   ; qtot 0.402296
 6996         oh    178    ccc    O11   6996 -0.57772000  16.000000   ; qtot -0.175424
 6997         c3    178    ccc    C22   6997 0.14548000  12.010000   ; qtot -0.029944
 6998         ho    178    ccc    H33   6998 0.40508000   1.008000   ; qtot 0.375136
 6999         hn    178    ccc    H34   6999 0.31758000   1.008000   ; qtot 0.692716
 7000         h1    178    ccc    H35   7000 0.06278000   1.008000   ; qtot 0.755496
 7001         h1    178    ccc    H36   7001 0.06278000   1.008000   ; qtot 0.818276
 7002         oh    178    ccc    O12   7002 -0.59472000  16.000000   ; qtot 0.223556
 7003         ho    178    ccc    H37   7003 0.41908000   1.008000   ; qtot 0.642636
 7004         os    178    ccc    O13   7004 -0.44552000  16.000000   ; qtot 0.197116
 7005         ho    178    ccc    H38   7005 0.41908000   1.008000   ; qtot 0.616196
 7006         h1    178    ccc    H39   7006 0.08578000   1.008000   ; qtot 0.701976
 7007         oh    178    ccc     O5   7007 -0.58672000  16.000000   ; qtot 0.115256
 7008         ho    178    ccc    H40   7008 0.41908000   1.008000   ; qtot 0.534336
 7009         n3    178    ccc     N4   7009 -0.54282000  14.010000   ; qtot -0.008484
; residue  179 ccc rtp ccc q -0.0
 7010          n    179    ccc     N1   7010 -0.46580000  14.010000   ; qtot -0.474284
 7011         hn    179    ccc     H4   7011 0.31480000   1.008000   ; qtot -0.159484
 7012         c3    179    ccc     C3   7012 -0.28250000  12.010000   ; qtot -0.441984
 7013         h1    179    ccc     H5   7013 0.15710000   1.008000   ; qtot -0.284884
 7014         c3    179    ccc     C4   7014 0.44180000  12.010000   ; qtot 0.156916
 7015         h1    179    ccc     H6   7015 0.15710000   1.008000   ; qtot 0.314016
 7016         h1    179    ccc     H7   7016 -0.03530000   1.008000   ; qtot 0.278716
 7017         h1    179    ccc     H8   7017 -0.03530000   1.008000   ; qtot 0.243416
 7018         n3    179    ccc     N2   7018 -0.74090000  14.010000   ; qtot -0.497484
 7019         c3    179    ccc     C5   7019 0.51680000  12.010000   ; qtot 0.019316
 7020         c3    179    ccc     C6   7020 0.51680000  12.010000   ; qtot 0.536116
 7021         h1    179    ccc     H9   7021 -0.05230000   1.008000   ; qtot 0.483816
 7022         c3    179    ccc     C7   7022 -0.60390000  12.010000   ; qtot -0.120084
 7023         h1    179    ccc    H10   7023 -0.05230000   1.008000   ; qtot -0.172384
 7024         hc    179    ccc    H11   7024 0.16730000   1.008000   ; qtot -0.005084
 7025         hc    179    ccc    H12   7025 0.16730000   1.008000   ; qtot 0.162216
 7026          c    179    ccc     C8   7026 0.72110000  12.010000   ; qtot 0.883316
 7027          o    179    ccc     O2   7027 -0.61950000  16.000000   ; qtot 0.263816
 7028         h1    179    ccc    H13   7028 -0.05230000   1.008000   ; qtot 0.211516
 7029         h1    179    ccc    H14   7029 -0.05230000   1.008000   ; qtot 0.159216
 7030         c3    179    ccc     C9   7030 -0.60390000  12.010000   ; qtot -0.444684
 7031         hc    179    ccc    H15   7031 0.16730000   1.008000   ; qtot -0.277384
 7032         hc    179    ccc    H16   7032 0.16730000   1.008000   ; qtot -0.110084
 7033          c    179    ccc    C10   7033 0.72110000  12.010000   ; qtot 0.611016
 7034          o    179    ccc     O4   7034 -0.61950000  16.000000   ; qtot -0.008484
 7035         c3    179    ccc    C11   7035 0.08518000  12.010000   ; qtot 0.076696
 7036         c3    179    ccc    C12   7036 0.07918000  12.010000   ; qtot 0.155876
 7037         h1    179    ccc    H17   7037 0.06978000   1.008000   ; qtot 0.225656
 7038         c3    179    ccc    C13   7038 0.07918000  12.010000   ; qtot 0.304836
 7039         c3    179    ccc    C14   7039 0.03578000  12.010000   ; qtot 0.340616
 7040         c3    179    ccc    C15   7040 0.33498000  12.010000   ; qtot 0.675596
 7041         h1    179    ccc    H18   7041 0.06178000   1.008000   ; qtot 0.737376
 7042         h1    179    ccc    H19   7042 0.11278000   1.008000   ; qtot 0.850156
 7043         h2    179    ccc    H20   7043 0.12178000   1.008000   ; qtot 0.971936
 7044         oh    179    ccc     O1   7044 -0.56972000  16.000000   ; qtot 0.402216
 7045         oh    179    ccc     O6   7045 -0.57772000  16.000000   ; qtot -0.175504
 7046         c3    179    ccc    C16   7046 0.14548000  12.010000   ; qtot -0.030024
 7047         ho    179    ccc    H21   7047 0.40508000   1.008000   ; qtot 0.375056
 7048         hn    179    ccc    H22   7048 0.31758000   1.008000   ; qtot 0.692636
 7049         h1    179    ccc    H23   7049 0.06278000   1.008000   ; qtot 0.755416
 7050         h1    179    ccc    H24   7050 0.06278000   1.008000   ; qtot 0.818196
 7051         oh    179    ccc     O7   7051 -0.59472000  16.000000   ; qtot 0.223476
 7052         ho    179    ccc    H25   7052 0.41908000   1.008000   ; qtot 0.642556
 7053         os    179    ccc     O8   7053 -0.44552000  16.000000   ; qtot 0.197036
 7054         ho    179    ccc    H26   7054 0.41908000   1.008000   ; qtot 0.616116
 7055         h1    179    ccc    H27   7055 0.08578000   1.008000   ; qtot 0.701896
 7056         oh    179    ccc     O9   7056 -0.58672000  16.000000   ; qtot 0.115176
 7057         ho    179    ccc    H28   7057 0.41908000   1.008000   ; qtot 0.534256
 7058         n3    179    ccc     N3   7058 -0.54282000  14.010000   ; qtot -0.008564
 7059         c3    179    ccc    C17   7059 0.08518000  12.010000   ; qtot 0.076616
 7060         c3    179    ccc    C18   7060 0.07918000  12.010000   ; qtot 0.155796
 7061         h1    179    ccc    H29   7061 0.06978000   1.008000   ; qtot 0.225576
 7062         c3    179    ccc    C19   7062 0.07918000  12.010000   ; qtot 0.304756
 7063         c3    179    ccc    C20   7063 0.03578000  12.010000   ; qtot 0.340536
 7064         c3    179    ccc    C21   7064 0.33498000  12.010000   ; qtot 0.675516
 7065         h1    179    ccc    H30   7065 0.06178000   1.008000   ; qtot 0.737296
 7066         h1    179    ccc    H31   7066 0.11278000   1.008000   ; qtot 0.850076
 7067         h2    179    ccc    H32   7067 0.12178000   1.008000   ; qtot 0.971856
 7068         oh    179    ccc    O10   7068 -0.56972000  16.000000   ; qtot 0.402136
 7069         oh    179    ccc    O11   7069 -0.57772000  16.000000   ; qtot -0.175584
 7070         c3    179    ccc    C22   7070 0.14548000  12.010000   ; qtot -0.030104
 7071         ho    179    ccc    H33   7071 0.40508000   1.008000   ; qtot 0.374976
 7072         hn    179    ccc    H34   7072 0.31758000   1.008000   ; qtot 0.692556
 7073         h1    179    ccc    H35   7073 0.06278000   1.008000   ; qtot 0.755336
 7074         h1    179    ccc    H36   7074 0.06278000   1.008000   ; qtot 0.818116
 7075         oh    179    ccc    O12   7075 -0.59472000  16.000000   ; qtot 0.223396
 7076         ho    179    ccc    H37   7076 0.41908000   1.008000   ; qtot 0.642476
 7077         os    179    ccc    O13   7077 -0.44552000  16.000000   ; qtot 0.196956
 7078         ho    179    ccc    H38   7078 0.41908000   1.008000   ; qtot 0.616036
 7079         h1    179    ccc    H39   7079 0.08578000   1.008000   ; qtot 0.701816
 7080         oh    179    ccc     O5   7080 -0.58672000  16.000000   ; qtot 0.115096
 7081         ho    179    ccc    H40   7081 0.41908000   1.008000   ; qtot 0.534176
 7082         n3    179    ccc     N4   7082 -0.54282000  14.010000   ; qtot -0.008644
; residue  180 ccc rtp ccc q -0.0
 7083          n    180    ccc     N1   7083 -0.46580000  14.010000   ; qtot -0.474444
 7084         hn    180    ccc     H4   7084 0.31480000   1.008000   ; qtot -0.159644
 7085         c3    180    ccc     C3   7085 -0.28250000  12.010000   ; qtot -0.442144
 7086         h1    180    ccc     H5   7086 0.15710000   1.008000   ; qtot -0.285044
 7087         c3    180    ccc     C4   7087 0.44180000  12.010000   ; qtot 0.156756
 7088         h1    180    ccc     H6   7088 0.15710000   1.008000   ; qtot 0.313856
 7089         h1    180    ccc     H7   7089 -0.03530000   1.008000   ; qtot 0.278556
 7090         h1    180    ccc     H8   7090 -0.03530000   1.008000   ; qtot 0.243256
 7091         n3    180    ccc     N2   7091 -0.74090000  14.010000   ; qtot -0.497644
 7092         c3    180    ccc     C5   7092 0.51680000  12.010000   ; qtot 0.019156
 7093         c3    180    ccc     C6   7093 0.51680000  12.010000   ; qtot 0.535956
 7094         h1    180    ccc     H9   7094 -0.05230000   1.008000   ; qtot 0.483656
 7095         c3    180    ccc     C7   7095 -0.60390000  12.010000   ; qtot -0.120244
 7096         h1    180    ccc    H10   7096 -0.05230000   1.008000   ; qtot -0.172544
 7097         hc    180    ccc    H11   7097 0.16730000   1.008000   ; qtot -0.005244
 7098         hc    180    ccc    H12   7098 0.16730000   1.008000   ; qtot 0.162056
 7099          c    180    ccc     C8   7099 0.72110000  12.010000   ; qtot 0.883156
 7100          o    180    ccc     O2   7100 -0.61950000  16.000000   ; qtot 0.263656
 7101         h1    180    ccc    H13   7101 -0.05230000   1.008000   ; qtot 0.211356
 7102         h1    180    ccc    H14   7102 -0.05230000   1.008000   ; qtot 0.159056
 7103         c3    180    ccc     C9   7103 -0.60390000  12.010000   ; qtot -0.444844
 7104         hc    180    ccc    H15   7104 0.16730000   1.008000   ; qtot -0.277544
 7105         hc    180    ccc    H16   7105 0.16730000   1.008000   ; qtot -0.110244
 7106          c    180    ccc    C10   7106 0.72110000  12.010000   ; qtot 0.610856
 7107          o    180    ccc     O4   7107 -0.61950000  16.000000   ; qtot -0.008644
 7108         c3    180    ccc    C11   7108 0.08518000  12.010000   ; qtot 0.076536
 7109         c3    180    ccc    C12   7109 0.07918000  12.010000   ; qtot 0.155716
 7110         h1    180    ccc    H17   7110 0.06978000   1.008000   ; qtot 0.225496
 7111         c3    180    ccc    C13   7111 0.07918000  12.010000   ; qtot 0.304676
 7112         c3    180    ccc    C14   7112 0.03578000  12.010000   ; qtot 0.340456
 7113         c3    180    ccc    C15   7113 0.33498000  12.010000   ; qtot 0.675436
 7114         h1    180    ccc    H18   7114 0.06178000   1.008000   ; qtot 0.737216
 7115         h1    180    ccc    H19   7115 0.11278000   1.008000   ; qtot 0.849996
 7116         h2    180    ccc    H20   7116 0.12178000   1.008000   ; qtot 0.971776
 7117         oh    180    ccc     O1   7117 -0.56972000  16.000000   ; qtot 0.402056
 7118         oh    180    ccc     O6   7118 -0.57772000  16.000000   ; qtot -0.175664
 7119         c3    180    ccc    C16   7119 0.14548000  12.010000   ; qtot -0.030184
 7120         ho    180    ccc    H21   7120 0.40508000   1.008000   ; qtot 0.374896
 7121         hn    180    ccc    H22   7121 0.31758000   1.008000   ; qtot 0.692476
 7122         h1    180    ccc    H23   7122 0.06278000   1.008000   ; qtot 0.755256
 7123         h1    180    ccc    H24   7123 0.06278000   1.008000   ; qtot 0.818036
 7124         oh    180    ccc     O7   7124 -0.59472000  16.000000   ; qtot 0.223316
 7125         ho    180    ccc    H25   7125 0.41908000   1.008000   ; qtot 0.642396
 7126         os    180    ccc     O8   7126 -0.44552000  16.000000   ; qtot 0.196876
 7127         ho    180    ccc    H26   7127 0.41908000   1.008000   ; qtot 0.615956
 7128         h1    180    ccc    H27   7128 0.08578000   1.008000   ; qtot 0.701736
 7129         oh    180    ccc     O9   7129 -0.58672000  16.000000   ; qtot 0.115016
 7130         ho    180    ccc    H28   7130 0.41908000   1.008000   ; qtot 0.534096
 7131         n3    180    ccc     N3   7131 -0.54282000  14.010000   ; qtot -0.008724
 7132         c3    180    ccc    C17   7132 0.08518000  12.010000   ; qtot 0.076456
 7133         c3    180    ccc    C18   7133 0.07918000  12.010000   ; qtot 0.155636
 7134         h1    180    ccc    H29   7134 0.06978000   1.008000   ; qtot 0.225416
 7135         c3    180    ccc    C19   7135 0.07918000  12.010000   ; qtot 0.304596
 7136         c3    180    ccc    C20   7136 0.03578000  12.010000   ; qtot 0.340376
 7137         c3    180    ccc    C21   7137 0.33498000  12.010000   ; qtot 0.675356
 7138         h1    180    ccc    H30   7138 0.06178000   1.008000   ; qtot 0.737136
 7139         h1    180    ccc    H31   7139 0.11278000   1.008000   ; qtot 0.849916
 7140         h2    180    ccc    H32   7140 0.12178000   1.008000   ; qtot 0.971696
 7141         oh    180    ccc    O10   7141 -0.56972000  16.000000   ; qtot 0.401976
 7142         oh    180    ccc    O11   7142 -0.57772000  16.000000   ; qtot -0.175744
 7143         c3    180    ccc    C22   7143 0.14548000  12.010000   ; qtot -0.030264
 7144         ho    180    ccc    H33   7144 0.40508000   1.008000   ; qtot 0.374816
 7145         hn    180    ccc    H34   7145 0.31758000   1.008000   ; qtot 0.692396
 7146         h1    180    ccc    H35   7146 0.06278000   1.008000   ; qtot 0.755176
 7147         h1    180    ccc    H36   7147 0.06278000   1.008000   ; qtot 0.817956
 7148         oh    180    ccc    O12   7148 -0.59472000  16.000000   ; qtot 0.223236
 7149         ho    180    ccc    H37   7149 0.41908000   1.008000   ; qtot 0.642316
 7150         os    180    ccc    O13   7150 -0.44552000  16.000000   ; qtot 0.196796
 7151         ho    180    ccc    H38   7151 0.41908000   1.008000   ; qtot 0.615876
 7152         h1    180    ccc    H39   7152 0.08578000   1.008000   ; qtot 0.701656
 7153         oh    180    ccc     O5   7153 -0.58672000  16.000000   ; qtot 0.114936
 7154         ho    180    ccc    H40   7154 0.41908000   1.008000   ; qtot 0.534016
 7155         n3    180    ccc     N4   7155 -0.54282000  14.010000   ; qtot -0.008804
; residue  181 ccc rtp ccc q -0.0
 7156          n    181    ccc     N1   7156 -0.46580000  14.010000   ; qtot -0.474604
 7157         hn    181    ccc     H4   7157 0.31480000   1.008000   ; qtot -0.159804
 7158         c3    181    ccc     C3   7158 -0.28250000  12.010000   ; qtot -0.442304
 7159         h1    181    ccc     H5   7159 0.15710000   1.008000   ; qtot -0.285204
 7160         c3    181    ccc     C4   7160 0.44180000  12.010000   ; qtot 0.156596
 7161         h1    181    ccc     H6   7161 0.15710000   1.008000   ; qtot 0.313696
 7162         h1    181    ccc     H7   7162 -0.03530000   1.008000   ; qtot 0.278396
 7163         h1    181    ccc     H8   7163 -0.03530000   1.008000   ; qtot 0.243096
 7164         n3    181    ccc     N2   7164 -0.74090000  14.010000   ; qtot -0.497804
 7165         c3    181    ccc     C5   7165 0.51680000  12.010000   ; qtot 0.018996
 7166         c3    181    ccc     C6   7166 0.51680000  12.010000   ; qtot 0.535796
 7167         h1    181    ccc     H9   7167 -0.05230000   1.008000   ; qtot 0.483496
 7168         c3    181    ccc     C7   7168 -0.60390000  12.010000   ; qtot -0.120404
 7169         h1    181    ccc    H10   7169 -0.05230000   1.008000   ; qtot -0.172704
 7170         hc    181    ccc    H11   7170 0.16730000   1.008000   ; qtot -0.005404
 7171         hc    181    ccc    H12   7171 0.16730000   1.008000   ; qtot 0.161896
 7172          c    181    ccc     C8   7172 0.72110000  12.010000   ; qtot 0.882996
 7173          o    181    ccc     O2   7173 -0.61950000  16.000000   ; qtot 0.263496
 7174         h1    181    ccc    H13   7174 -0.05230000   1.008000   ; qtot 0.211196
 7175         h1    181    ccc    H14   7175 -0.05230000   1.008000   ; qtot 0.158896
 7176         c3    181    ccc     C9   7176 -0.60390000  12.010000   ; qtot -0.445004
 7177         hc    181    ccc    H15   7177 0.16730000   1.008000   ; qtot -0.277704
 7178         hc    181    ccc    H16   7178 0.16730000   1.008000   ; qtot -0.110404
 7179          c    181    ccc    C10   7179 0.72110000  12.010000   ; qtot 0.610696
 7180          o    181    ccc     O4   7180 -0.61950000  16.000000   ; qtot -0.008804
 7181         c3    181    ccc    C11   7181 0.08518000  12.010000   ; qtot 0.076376
 7182         c3    181    ccc    C12   7182 0.07918000  12.010000   ; qtot 0.155556
 7183         h1    181    ccc    H17   7183 0.06978000   1.008000   ; qtot 0.225336
 7184         c3    181    ccc    C13   7184 0.07918000  12.010000   ; qtot 0.304516
 7185         c3    181    ccc    C14   7185 0.03578000  12.010000   ; qtot 0.340296
 7186         c3    181    ccc    C15   7186 0.33498000  12.010000   ; qtot 0.675276
 7187         h1    181    ccc    H18   7187 0.06178000   1.008000   ; qtot 0.737056
 7188         h1    181    ccc    H19   7188 0.11278000   1.008000   ; qtot 0.849836
 7189         h2    181    ccc    H20   7189 0.12178000   1.008000   ; qtot 0.971616
 7190         oh    181    ccc     O1   7190 -0.56972000  16.000000   ; qtot 0.401896
 7191         oh    181    ccc     O6   7191 -0.57772000  16.000000   ; qtot -0.175824
 7192         c3    181    ccc    C16   7192 0.14548000  12.010000   ; qtot -0.030344
 7193         ho    181    ccc    H21   7193 0.40508000   1.008000   ; qtot 0.374736
 7194         hn    181    ccc    H22   7194 0.31758000   1.008000   ; qtot 0.692316
 7195         h1    181    ccc    H23   7195 0.06278000   1.008000   ; qtot 0.755096
 7196         h1    181    ccc    H24   7196 0.06278000   1.008000   ; qtot 0.817876
 7197         oh    181    ccc     O7   7197 -0.59472000  16.000000   ; qtot 0.223156
 7198         ho    181    ccc    H25   7198 0.41908000   1.008000   ; qtot 0.642236
 7199         os    181    ccc     O8   7199 -0.44552000  16.000000   ; qtot 0.196716
 7200         ho    181    ccc    H26   7200 0.41908000   1.008000   ; qtot 0.615796
 7201         h1    181    ccc    H27   7201 0.08578000   1.008000   ; qtot 0.701576
 7202         oh    181    ccc     O9   7202 -0.58672000  16.000000   ; qtot 0.114856
 7203         ho    181    ccc    H28   7203 0.41908000   1.008000   ; qtot 0.533936
 7204         n3    181    ccc     N3   7204 -0.54282000  14.010000   ; qtot -0.008884
 7205         c3    181    ccc    C17   7205 0.08518000  12.010000   ; qtot 0.076296
 7206         c3    181    ccc    C18   7206 0.07918000  12.010000   ; qtot 0.155476
 7207         h1    181    ccc    H29   7207 0.06978000   1.008000   ; qtot 0.225256
 7208         c3    181    ccc    C19   7208 0.07918000  12.010000   ; qtot 0.304436
 7209         c3    181    ccc    C20   7209 0.03578000  12.010000   ; qtot 0.340216
 7210         c3    181    ccc    C21   7210 0.33498000  12.010000   ; qtot 0.675196
 7211         h1    181    ccc    H30   7211 0.06178000   1.008000   ; qtot 0.736976
 7212         h1    181    ccc    H31   7212 0.11278000   1.008000   ; qtot 0.849756
 7213         h2    181    ccc    H32   7213 0.12178000   1.008000   ; qtot 0.971536
 7214         oh    181    ccc    O10   7214 -0.56972000  16.000000   ; qtot 0.401816
 7215         oh    181    ccc    O11   7215 -0.57772000  16.000000   ; qtot -0.175904
 7216         c3    181    ccc    C22   7216 0.14548000  12.010000   ; qtot -0.030424
 7217         ho    181    ccc    H33   7217 0.40508000   1.008000   ; qtot 0.374656
 7218         hn    181    ccc    H34   7218 0.31758000   1.008000   ; qtot 0.692236
 7219         h1    181    ccc    H35   7219 0.06278000   1.008000   ; qtot 0.755016
 7220         h1    181    ccc    H36   7220 0.06278000   1.008000   ; qtot 0.817796
 7221         oh    181    ccc    O12   7221 -0.59472000  16.000000   ; qtot 0.223076
 7222         ho    181    ccc    H37   7222 0.41908000   1.008000   ; qtot 0.642156
 7223         os    181    ccc    O13   7223 -0.44552000  16.000000   ; qtot 0.196636
 7224         ho    181    ccc    H38   7224 0.41908000   1.008000   ; qtot 0.615716
 7225         h1    181    ccc    H39   7225 0.08578000   1.008000   ; qtot 0.701496
 7226         oh    181    ccc     O5   7226 -0.58672000  16.000000   ; qtot 0.114776
 7227         ho    181    ccc    H40   7227 0.41908000   1.008000   ; qtot 0.533856
 7228         n3    181    ccc     N4   7228 -0.54282000  14.010000   ; qtot -0.008964
; residue  182 ccc rtp ccc q -0.0
 7229          n    182    ccc     N1   7229 -0.46580000  14.010000   ; qtot -0.474764
 7230         hn    182    ccc     H4   7230 0.31480000   1.008000   ; qtot -0.159964
 7231         c3    182    ccc     C3   7231 -0.28250000  12.010000   ; qtot -0.442464
 7232         h1    182    ccc     H5   7232 0.15710000   1.008000   ; qtot -0.285364
 7233         c3    182    ccc     C4   7233 0.44180000  12.010000   ; qtot 0.156436
 7234         h1    182    ccc     H6   7234 0.15710000   1.008000   ; qtot 0.313536
 7235         h1    182    ccc     H7   7235 -0.03530000   1.008000   ; qtot 0.278236
 7236         h1    182    ccc     H8   7236 -0.03530000   1.008000   ; qtot 0.242936
 7237         n3    182    ccc     N2   7237 -0.74090000  14.010000   ; qtot -0.497964
 7238         c3    182    ccc     C5   7238 0.51680000  12.010000   ; qtot 0.018836
 7239         c3    182    ccc     C6   7239 0.51680000  12.010000   ; qtot 0.535636
 7240         h1    182    ccc     H9   7240 -0.05230000   1.008000   ; qtot 0.483336
 7241         c3    182    ccc     C7   7241 -0.60390000  12.010000   ; qtot -0.120564
 7242         h1    182    ccc    H10   7242 -0.05230000   1.008000   ; qtot -0.172864
 7243         hc    182    ccc    H11   7243 0.16730000   1.008000   ; qtot -0.005564
 7244         hc    182    ccc    H12   7244 0.16730000   1.008000   ; qtot 0.161736
 7245          c    182    ccc     C8   7245 0.72110000  12.010000   ; qtot 0.882836
 7246          o    182    ccc     O2   7246 -0.61950000  16.000000   ; qtot 0.263336
 7247         h1    182    ccc    H13   7247 -0.05230000   1.008000   ; qtot 0.211036
 7248         h1    182    ccc    H14   7248 -0.05230000   1.008000   ; qtot 0.158736
 7249         c3    182    ccc     C9   7249 -0.60390000  12.010000   ; qtot -0.445164
 7250         hc    182    ccc    H15   7250 0.16730000   1.008000   ; qtot -0.277864
 7251         hc    182    ccc    H16   7251 0.16730000   1.008000   ; qtot -0.110564
 7252          c    182    ccc    C10   7252 0.72110000  12.010000   ; qtot 0.610536
 7253          o    182    ccc     O4   7253 -0.61950000  16.000000   ; qtot -0.008964
 7254         c3    182    ccc    C11   7254 0.08518000  12.010000   ; qtot 0.076216
 7255         c3    182    ccc    C12   7255 0.07918000  12.010000   ; qtot 0.155396
 7256         h1    182    ccc    H17   7256 0.06978000   1.008000   ; qtot 0.225176
 7257         c3    182    ccc    C13   7257 0.07918000  12.010000   ; qtot 0.304356
 7258         c3    182    ccc    C14   7258 0.03578000  12.010000   ; qtot 0.340136
 7259         c3    182    ccc    C15   7259 0.33498000  12.010000   ; qtot 0.675116
 7260         h1    182    ccc    H18   7260 0.06178000   1.008000   ; qtot 0.736896
 7261         h1    182    ccc    H19   7261 0.11278000   1.008000   ; qtot 0.849676
 7262         h2    182    ccc    H20   7262 0.12178000   1.008000   ; qtot 0.971456
 7263         oh    182    ccc     O1   7263 -0.56972000  16.000000   ; qtot 0.401736
 7264         oh    182    ccc     O6   7264 -0.57772000  16.000000   ; qtot -0.175984
 7265         c3    182    ccc    C16   7265 0.14548000  12.010000   ; qtot -0.030504
 7266         ho    182    ccc    H21   7266 0.40508000   1.008000   ; qtot 0.374576
 7267         hn    182    ccc    H22   7267 0.31758000   1.008000   ; qtot 0.692156
 7268         h1    182    ccc    H23   7268 0.06278000   1.008000   ; qtot 0.754936
 7269         h1    182    ccc    H24   7269 0.06278000   1.008000   ; qtot 0.817716
 7270         oh    182    ccc     O7   7270 -0.59472000  16.000000   ; qtot 0.222996
 7271         ho    182    ccc    H25   7271 0.41908000   1.008000   ; qtot 0.642076
 7272         os    182    ccc     O8   7272 -0.44552000  16.000000   ; qtot 0.196556
 7273         ho    182    ccc    H26   7273 0.41908000   1.008000   ; qtot 0.615636
 7274         h1    182    ccc    H27   7274 0.08578000   1.008000   ; qtot 0.701416
 7275         oh    182    ccc     O9   7275 -0.58672000  16.000000   ; qtot 0.114696
 7276         ho    182    ccc    H28   7276 0.41908000   1.008000   ; qtot 0.533776
 7277         n3    182    ccc     N3   7277 -0.54282000  14.010000   ; qtot -0.009044
 7278         c3    182    ccc    C17   7278 0.08518000  12.010000   ; qtot 0.076136
 7279         c3    182    ccc    C18   7279 0.07918000  12.010000   ; qtot 0.155316
 7280         h1    182    ccc    H29   7280 0.06978000   1.008000   ; qtot 0.225096
 7281         c3    182    ccc    C19   7281 0.07918000  12.010000   ; qtot 0.304276
 7282         c3    182    ccc    C20   7282 0.03578000  12.010000   ; qtot 0.340056
 7283         c3    182    ccc    C21   7283 0.33498000  12.010000   ; qtot 0.675036
 7284         h1    182    ccc    H30   7284 0.06178000   1.008000   ; qtot 0.736816
 7285         h1    182    ccc    H31   7285 0.11278000   1.008000   ; qtot 0.849596
 7286         h2    182    ccc    H32   7286 0.12178000   1.008000   ; qtot 0.971376
 7287         oh    182    ccc    O10   7287 -0.56972000  16.000000   ; qtot 0.401656
 7288         oh    182    ccc    O11   7288 -0.57772000  16.000000   ; qtot -0.176064
 7289         c3    182    ccc    C22   7289 0.14548000  12.010000   ; qtot -0.030584
 7290         ho    182    ccc    H33   7290 0.40508000   1.008000   ; qtot 0.374496
 7291         hn    182    ccc    H34   7291 0.31758000   1.008000   ; qtot 0.692076
 7292         h1    182    ccc    H35   7292 0.06278000   1.008000   ; qtot 0.754856
 7293         h1    182    ccc    H36   7293 0.06278000   1.008000   ; qtot 0.817636
 7294         oh    182    ccc    O12   7294 -0.59472000  16.000000   ; qtot 0.222916
 7295         ho    182    ccc    H37   7295 0.41908000   1.008000   ; qtot 0.641996
 7296         os    182    ccc    O13   7296 -0.44552000  16.000000   ; qtot 0.196476
 7297         ho    182    ccc    H38   7297 0.41908000   1.008000   ; qtot 0.615556
 7298         h1    182    ccc    H39   7298 0.08578000   1.008000   ; qtot 0.701336
 7299         oh    182    ccc     O5   7299 -0.58672000  16.000000   ; qtot 0.114616
 7300         ho    182    ccc    H40   7300 0.41908000   1.008000   ; qtot 0.533696
 7301         n3    182    ccc     N4   7301 -0.54282000  14.010000   ; qtot -0.009124
; residue  183 ccc rtp ccc q -0.0
 7302          n    183    ccc     N1   7302 -0.46580000  14.010000   ; qtot -0.474924
 7303         hn    183    ccc     H4   7303 0.31480000   1.008000   ; qtot -0.160124
 7304         c3    183    ccc     C3   7304 -0.28250000  12.010000   ; qtot -0.442624
 7305         h1    183    ccc     H5   7305 0.15710000   1.008000   ; qtot -0.285524
 7306         c3    183    ccc     C4   7306 0.44180000  12.010000   ; qtot 0.156276
 7307         h1    183    ccc     H6   7307 0.15710000   1.008000   ; qtot 0.313376
 7308         h1    183    ccc     H7   7308 -0.03530000   1.008000   ; qtot 0.278076
 7309         h1    183    ccc     H8   7309 -0.03530000   1.008000   ; qtot 0.242776
 7310         n3    183    ccc     N2   7310 -0.74090000  14.010000   ; qtot -0.498124
 7311         c3    183    ccc     C5   7311 0.51680000  12.010000   ; qtot 0.018676
 7312         c3    183    ccc     C6   7312 0.51680000  12.010000   ; qtot 0.535476
 7313         h1    183    ccc     H9   7313 -0.05230000   1.008000   ; qtot 0.483176
 7314         c3    183    ccc     C7   7314 -0.60390000  12.010000   ; qtot -0.120724
 7315         h1    183    ccc    H10   7315 -0.05230000   1.008000   ; qtot -0.173024
 7316         hc    183    ccc    H11   7316 0.16730000   1.008000   ; qtot -0.005724
 7317         hc    183    ccc    H12   7317 0.16730000   1.008000   ; qtot 0.161576
 7318          c    183    ccc     C8   7318 0.72110000  12.010000   ; qtot 0.882676
 7319          o    183    ccc     O2   7319 -0.61950000  16.000000   ; qtot 0.263176
 7320         h1    183    ccc    H13   7320 -0.05230000   1.008000   ; qtot 0.210876
 7321         h1    183    ccc    H14   7321 -0.05230000   1.008000   ; qtot 0.158576
 7322         c3    183    ccc     C9   7322 -0.60390000  12.010000   ; qtot -0.445324
 7323         hc    183    ccc    H15   7323 0.16730000   1.008000   ; qtot -0.278024
 7324         hc    183    ccc    H16   7324 0.16730000   1.008000   ; qtot -0.110724
 7325          c    183    ccc    C10   7325 0.72110000  12.010000   ; qtot 0.610376
 7326          o    183    ccc     O4   7326 -0.61950000  16.000000   ; qtot -0.009124
 7327         c3    183    ccc    C11   7327 0.08518000  12.010000   ; qtot 0.076056
 7328         c3    183    ccc    C12   7328 0.07918000  12.010000   ; qtot 0.155236
 7329         h1    183    ccc    H17   7329 0.06978000   1.008000   ; qtot 0.225016
 7330         c3    183    ccc    C13   7330 0.07918000  12.010000   ; qtot 0.304196
 7331         c3    183    ccc    C14   7331 0.03578000  12.010000   ; qtot 0.339976
 7332         c3    183    ccc    C15   7332 0.33498000  12.010000   ; qtot 0.674956
 7333         h1    183    ccc    H18   7333 0.06178000   1.008000   ; qtot 0.736736
 7334         h1    183    ccc    H19   7334 0.11278000   1.008000   ; qtot 0.849516
 7335         h2    183    ccc    H20   7335 0.12178000   1.008000   ; qtot 0.971296
 7336         oh    183    ccc     O1   7336 -0.56972000  16.000000   ; qtot 0.401576
 7337         oh    183    ccc     O6   7337 -0.57772000  16.000000   ; qtot -0.176144
 7338         c3    183    ccc    C16   7338 0.14548000  12.010000   ; qtot -0.030664
 7339         ho    183    ccc    H21   7339 0.40508000   1.008000   ; qtot 0.374416
 7340         hn    183    ccc    H22   7340 0.31758000   1.008000   ; qtot 0.691996
 7341         h1    183    ccc    H23   7341 0.06278000   1.008000   ; qtot 0.754776
 7342         h1    183    ccc    H24   7342 0.06278000   1.008000   ; qtot 0.817556
 7343         oh    183    ccc     O7   7343 -0.59472000  16.000000   ; qtot 0.222836
 7344         ho    183    ccc    H25   7344 0.41908000   1.008000   ; qtot 0.641916
 7345         os    183    ccc     O8   7345 -0.44552000  16.000000   ; qtot 0.196396
 7346         ho    183    ccc    H26   7346 0.41908000   1.008000   ; qtot 0.615476
 7347         h1    183    ccc    H27   7347 0.08578000   1.008000   ; qtot 0.701256
 7348         oh    183    ccc     O9   7348 -0.58672000  16.000000   ; qtot 0.114536
 7349         ho    183    ccc    H28   7349 0.41908000   1.008000   ; qtot 0.533616
 7350         n3    183    ccc     N3   7350 -0.54282000  14.010000   ; qtot -0.009204
 7351         c3    183    ccc    C17   7351 0.08518000  12.010000   ; qtot 0.075976
 7352         c3    183    ccc    C18   7352 0.07918000  12.010000   ; qtot 0.155156
 7353         h1    183    ccc    H29   7353 0.06978000   1.008000   ; qtot 0.224936
 7354         c3    183    ccc    C19   7354 0.07918000  12.010000   ; qtot 0.304116
 7355         c3    183    ccc    C20   7355 0.03578000  12.010000   ; qtot 0.339896
 7356         c3    183    ccc    C21   7356 0.33498000  12.010000   ; qtot 0.674876
 7357         h1    183    ccc    H30   7357 0.06178000   1.008000   ; qtot 0.736656
 7358         h1    183    ccc    H31   7358 0.11278000   1.008000   ; qtot 0.849436
 7359         h2    183    ccc    H32   7359 0.12178000   1.008000   ; qtot 0.971216
 7360         oh    183    ccc    O10   7360 -0.56972000  16.000000   ; qtot 0.401496
 7361         oh    183    ccc    O11   7361 -0.57772000  16.000000   ; qtot -0.176224
 7362         c3    183    ccc    C22   7362 0.14548000  12.010000   ; qtot -0.030744
 7363         ho    183    ccc    H33   7363 0.40508000   1.008000   ; qtot 0.374336
 7364         hn    183    ccc    H34   7364 0.31758000   1.008000   ; qtot 0.691916
 7365         h1    183    ccc    H35   7365 0.06278000   1.008000   ; qtot 0.754696
 7366         h1    183    ccc    H36   7366 0.06278000   1.008000   ; qtot 0.817476
 7367         oh    183    ccc    O12   7367 -0.59472000  16.000000   ; qtot 0.222756
 7368         ho    183    ccc    H37   7368 0.41908000   1.008000   ; qtot 0.641836
 7369         os    183    ccc    O13   7369 -0.44552000  16.000000   ; qtot 0.196316
 7370         ho    183    ccc    H38   7370 0.41908000   1.008000   ; qtot 0.615396
 7371         h1    183    ccc    H39   7371 0.08578000   1.008000   ; qtot 0.701176
 7372         oh    183    ccc     O5   7372 -0.58672000  16.000000   ; qtot 0.114456
 7373         ho    183    ccc    H40   7373 0.41908000   1.008000   ; qtot 0.533536
 7374         n3    183    ccc     N4   7374 -0.54282000  14.010000   ; qtot -0.009284
; residue  184 ccc rtp ccc q -0.0
 7375          n    184    ccc     N1   7375 -0.46580000  14.010000   ; qtot -0.475084
 7376         hn    184    ccc     H4   7376 0.31480000   1.008000   ; qtot -0.160284
 7377         c3    184    ccc     C3   7377 -0.28250000  12.010000   ; qtot -0.442784
 7378         h1    184    ccc     H5   7378 0.15710000   1.008000   ; qtot -0.285684
 7379         c3    184    ccc     C4   7379 0.44180000  12.010000   ; qtot 0.156116
 7380         h1    184    ccc     H6   7380 0.15710000   1.008000   ; qtot 0.313216
 7381         h1    184    ccc     H7   7381 -0.03530000   1.008000   ; qtot 0.277916
 7382         h1    184    ccc     H8   7382 -0.03530000   1.008000   ; qtot 0.242616
 7383         n3    184    ccc     N2   7383 -0.74090000  14.010000   ; qtot -0.498284
 7384         c3    184    ccc     C5   7384 0.51680000  12.010000   ; qtot 0.018516
 7385         c3    184    ccc     C6   7385 0.51680000  12.010000   ; qtot 0.535316
 7386         h1    184    ccc     H9   7386 -0.05230000   1.008000   ; qtot 0.483016
 7387         c3    184    ccc     C7   7387 -0.60390000  12.010000   ; qtot -0.120884
 7388         h1    184    ccc    H10   7388 -0.05230000   1.008000   ; qtot -0.173184
 7389         hc    184    ccc    H11   7389 0.16730000   1.008000   ; qtot -0.005884
 7390         hc    184    ccc    H12   7390 0.16730000   1.008000   ; qtot 0.161416
 7391          c    184    ccc     C8   7391 0.72110000  12.010000   ; qtot 0.882516
 7392          o    184    ccc     O2   7392 -0.61950000  16.000000   ; qtot 0.263016
 7393         h1    184    ccc    H13   7393 -0.05230000   1.008000   ; qtot 0.210716
 7394         h1    184    ccc    H14   7394 -0.05230000   1.008000   ; qtot 0.158416
 7395         c3    184    ccc     C9   7395 -0.60390000  12.010000   ; qtot -0.445484
 7396         hc    184    ccc    H15   7396 0.16730000   1.008000   ; qtot -0.278184
 7397         hc    184    ccc    H16   7397 0.16730000   1.008000   ; qtot -0.110884
 7398          c    184    ccc    C10   7398 0.72110000  12.010000   ; qtot 0.610216
 7399          o    184    ccc     O4   7399 -0.61950000  16.000000   ; qtot -0.009284
 7400         c3    184    ccc    C11   7400 0.08518000  12.010000   ; qtot 0.075896
 7401         c3    184    ccc    C12   7401 0.07918000  12.010000   ; qtot 0.155076
 7402         h1    184    ccc    H17   7402 0.06978000   1.008000   ; qtot 0.224856
 7403         c3    184    ccc    C13   7403 0.07918000  12.010000   ; qtot 0.304036
 7404         c3    184    ccc    C14   7404 0.03578000  12.010000   ; qtot 0.339816
 7405         c3    184    ccc    C15   7405 0.33498000  12.010000   ; qtot 0.674796
 7406         h1    184    ccc    H18   7406 0.06178000   1.008000   ; qtot 0.736576
 7407         h1    184    ccc    H19   7407 0.11278000   1.008000   ; qtot 0.849356
 7408         h2    184    ccc    H20   7408 0.12178000   1.008000   ; qtot 0.971136
 7409         oh    184    ccc     O1   7409 -0.56972000  16.000000   ; qtot 0.401416
 7410         oh    184    ccc     O6   7410 -0.57772000  16.000000   ; qtot -0.176304
 7411         c3    184    ccc    C16   7411 0.14548000  12.010000   ; qtot -0.030824
 7412         ho    184    ccc    H21   7412 0.40508000   1.008000   ; qtot 0.374256
 7413         hn    184    ccc    H22   7413 0.31758000   1.008000   ; qtot 0.691836
 7414         h1    184    ccc    H23   7414 0.06278000   1.008000   ; qtot 0.754616
 7415         h1    184    ccc    H24   7415 0.06278000   1.008000   ; qtot 0.817396
 7416         oh    184    ccc     O7   7416 -0.59472000  16.000000   ; qtot 0.222676
 7417         ho    184    ccc    H25   7417 0.41908000   1.008000   ; qtot 0.641756
 7418         os    184    ccc     O8   7418 -0.44552000  16.000000   ; qtot 0.196236
 7419         ho    184    ccc    H26   7419 0.41908000   1.008000   ; qtot 0.615316
 7420         h1    184    ccc    H27   7420 0.08578000   1.008000   ; qtot 0.701096
 7421         oh    184    ccc     O9   7421 -0.58672000  16.000000   ; qtot 0.114376
 7422         ho    184    ccc    H28   7422 0.41908000   1.008000   ; qtot 0.533456
 7423         n3    184    ccc     N3   7423 -0.54282000  14.010000   ; qtot -0.009364
 7424         c3    184    ccc    C17   7424 0.08518000  12.010000   ; qtot 0.075816
 7425         c3    184    ccc    C18   7425 0.07918000  12.010000   ; qtot 0.154996
 7426         h1    184    ccc    H29   7426 0.06978000   1.008000   ; qtot 0.224776
 7427         c3    184    ccc    C19   7427 0.07918000  12.010000   ; qtot 0.303956
 7428         c3    184    ccc    C20   7428 0.03578000  12.010000   ; qtot 0.339736
 7429         c3    184    ccc    C21   7429 0.33498000  12.010000   ; qtot 0.674716
 7430         h1    184    ccc    H30   7430 0.06178000   1.008000   ; qtot 0.736496
 7431         h1    184    ccc    H31   7431 0.11278000   1.008000   ; qtot 0.849276
 7432         h2    184    ccc    H32   7432 0.12178000   1.008000   ; qtot 0.971056
 7433         oh    184    ccc    O10   7433 -0.56972000  16.000000   ; qtot 0.401336
 7434         oh    184    ccc    O11   7434 -0.57772000  16.000000   ; qtot -0.176384
 7435         c3    184    ccc    C22   7435 0.14548000  12.010000   ; qtot -0.030904
 7436         ho    184    ccc    H33   7436 0.40508000   1.008000   ; qtot 0.374176
 7437         hn    184    ccc    H34   7437 0.31758000   1.008000   ; qtot 0.691756
 7438         h1    184    ccc    H35   7438 0.06278000   1.008000   ; qtot 0.754536
 7439         h1    184    ccc    H36   7439 0.06278000   1.008000   ; qtot 0.817316
 7440         oh    184    ccc    O12   7440 -0.59472000  16.000000   ; qtot 0.222596
 7441         ho    184    ccc    H37   7441 0.41908000   1.008000   ; qtot 0.641676
 7442         os    184    ccc    O13   7442 -0.44552000  16.000000   ; qtot 0.196156
 7443         ho    184    ccc    H38   7443 0.41908000   1.008000   ; qtot 0.615236
 7444         h1    184    ccc    H39   7444 0.08578000   1.008000   ; qtot 0.701016
 7445         oh    184    ccc     O5   7445 -0.58672000  16.000000   ; qtot 0.114296
 7446         ho    184    ccc    H40   7446 0.41908000   1.008000   ; qtot 0.533376
 7447         n3    184    ccc     N4   7447 -0.54282000  14.010000   ; qtot -0.009444
; residue  185 ccc rtp ccc q -0.0
 7448          n    185    ccc     N1   7448 -0.46580000  14.010000   ; qtot -0.475244
 7449         hn    185    ccc     H4   7449 0.31480000   1.008000   ; qtot -0.160444
 7450         c3    185    ccc     C3   7450 -0.28250000  12.010000   ; qtot -0.442944
 7451         h1    185    ccc     H5   7451 0.15710000   1.008000   ; qtot -0.285844
 7452         c3    185    ccc     C4   7452 0.44180000  12.010000   ; qtot 0.155956
 7453         h1    185    ccc     H6   7453 0.15710000   1.008000   ; qtot 0.313056
 7454         h1    185    ccc     H7   7454 -0.03530000   1.008000   ; qtot 0.277756
 7455         h1    185    ccc     H8   7455 -0.03530000   1.008000   ; qtot 0.242456
 7456         n3    185    ccc     N2   7456 -0.74090000  14.010000   ; qtot -0.498444
 7457         c3    185    ccc     C5   7457 0.51680000  12.010000   ; qtot 0.018356
 7458         c3    185    ccc     C6   7458 0.51680000  12.010000   ; qtot 0.535156
 7459         h1    185    ccc     H9   7459 -0.05230000   1.008000   ; qtot 0.482856
 7460         c3    185    ccc     C7   7460 -0.60390000  12.010000   ; qtot -0.121044
 7461         h1    185    ccc    H10   7461 -0.05230000   1.008000   ; qtot -0.173344
 7462         hc    185    ccc    H11   7462 0.16730000   1.008000   ; qtot -0.006044
 7463         hc    185    ccc    H12   7463 0.16730000   1.008000   ; qtot 0.161256
 7464          c    185    ccc     C8   7464 0.72110000  12.010000   ; qtot 0.882356
 7465          o    185    ccc     O2   7465 -0.61950000  16.000000   ; qtot 0.262856
 7466         h1    185    ccc    H13   7466 -0.05230000   1.008000   ; qtot 0.210556
 7467         h1    185    ccc    H14   7467 -0.05230000   1.008000   ; qtot 0.158256
 7468         c3    185    ccc     C9   7468 -0.60390000  12.010000   ; qtot -0.445644
 7469         hc    185    ccc    H15   7469 0.16730000   1.008000   ; qtot -0.278344
 7470         hc    185    ccc    H16   7470 0.16730000   1.008000   ; qtot -0.111044
 7471          c    185    ccc    C10   7471 0.72110000  12.010000   ; qtot 0.610056
 7472          o    185    ccc     O4   7472 -0.61950000  16.000000   ; qtot -0.009444
 7473         c3    185    ccc    C11   7473 0.08518000  12.010000   ; qtot 0.075736
 7474         c3    185    ccc    C12   7474 0.07918000  12.010000   ; qtot 0.154916
 7475         h1    185    ccc    H17   7475 0.06978000   1.008000   ; qtot 0.224696
 7476         c3    185    ccc    C13   7476 0.07918000  12.010000   ; qtot 0.303876
 7477         c3    185    ccc    C14   7477 0.03578000  12.010000   ; qtot 0.339656
 7478         c3    185    ccc    C15   7478 0.33498000  12.010000   ; qtot 0.674636
 7479         h1    185    ccc    H18   7479 0.06178000   1.008000   ; qtot 0.736416
 7480         h1    185    ccc    H19   7480 0.11278000   1.008000   ; qtot 0.849196
 7481         h2    185    ccc    H20   7481 0.12178000   1.008000   ; qtot 0.970976
 7482         oh    185    ccc     O1   7482 -0.56972000  16.000000   ; qtot 0.401256
 7483         oh    185    ccc     O6   7483 -0.57772000  16.000000   ; qtot -0.176464
 7484         c3    185    ccc    C16   7484 0.14548000  12.010000   ; qtot -0.030984
 7485         ho    185    ccc    H21   7485 0.40508000   1.008000   ; qtot 0.374096
 7486         hn    185    ccc    H22   7486 0.31758000   1.008000   ; qtot 0.691676
 7487         h1    185    ccc    H23   7487 0.06278000   1.008000   ; qtot 0.754456
 7488         h1    185    ccc    H24   7488 0.06278000   1.008000   ; qtot 0.817236
 7489         oh    185    ccc     O7   7489 -0.59472000  16.000000   ; qtot 0.222516
 7490         ho    185    ccc    H25   7490 0.41908000   1.008000   ; qtot 0.641596
 7491         os    185    ccc     O8   7491 -0.44552000  16.000000   ; qtot 0.196076
 7492         ho    185    ccc    H26   7492 0.41908000   1.008000   ; qtot 0.615156
 7493         h1    185    ccc    H27   7493 0.08578000   1.008000   ; qtot 0.700936
 7494         oh    185    ccc     O9   7494 -0.58672000  16.000000   ; qtot 0.114216
 7495         ho    185    ccc    H28   7495 0.41908000   1.008000   ; qtot 0.533296
 7496         n3    185    ccc     N3   7496 -0.54282000  14.010000   ; qtot -0.009524
 7497         c3    185    ccc    C17   7497 0.08518000  12.010000   ; qtot 0.075656
 7498         c3    185    ccc    C18   7498 0.07918000  12.010000   ; qtot 0.154836
 7499         h1    185    ccc    H29   7499 0.06978000   1.008000   ; qtot 0.224616
 7500         c3    185    ccc    C19   7500 0.07918000  12.010000   ; qtot 0.303796
 7501         c3    185    ccc    C20   7501 0.03578000  12.010000   ; qtot 0.339576
 7502         c3    185    ccc    C21   7502 0.33498000  12.010000   ; qtot 0.674556
 7503         h1    185    ccc    H30   7503 0.06178000   1.008000   ; qtot 0.736336
 7504         h1    185    ccc    H31   7504 0.11278000   1.008000   ; qtot 0.849116
 7505         h2    185    ccc    H32   7505 0.12178000   1.008000   ; qtot 0.970896
 7506         oh    185    ccc    O10   7506 -0.56972000  16.000000   ; qtot 0.401176
 7507         oh    185    ccc    O11   7507 -0.57772000  16.000000   ; qtot -0.176544
 7508         c3    185    ccc    C22   7508 0.14548000  12.010000   ; qtot -0.031064
 7509         ho    185    ccc    H33   7509 0.40508000   1.008000   ; qtot 0.374016
 7510         hn    185    ccc    H34   7510 0.31758000   1.008000   ; qtot 0.691596
 7511         h1    185    ccc    H35   7511 0.06278000   1.008000   ; qtot 0.754376
 7512         h1    185    ccc    H36   7512 0.06278000   1.008000   ; qtot 0.817156
 7513         oh    185    ccc    O12   7513 -0.59472000  16.000000   ; qtot 0.222436
 7514         ho    185    ccc    H37   7514 0.41908000   1.008000   ; qtot 0.641516
 7515         os    185    ccc    O13   7515 -0.44552000  16.000000   ; qtot 0.195996
 7516         ho    185    ccc    H38   7516 0.41908000   1.008000   ; qtot 0.615076
 7517         h1    185    ccc    H39   7517 0.08578000   1.008000   ; qtot 0.700856
 7518         oh    185    ccc     O5   7518 -0.58672000  16.000000   ; qtot 0.114136
 7519         ho    185    ccc    H40   7519 0.41908000   1.008000   ; qtot 0.533216
 7520         n3    185    ccc     N4   7520 -0.54282000  14.010000   ; qtot -0.009604
; residue  186 ccc rtp ccc q -0.0
 7521          n    186    ccc     N1   7521 -0.46580000  14.010000   ; qtot -0.475404
 7522         hn    186    ccc     H4   7522 0.31480000   1.008000   ; qtot -0.160604
 7523         c3    186    ccc     C3   7523 -0.28250000  12.010000   ; qtot -0.443104
 7524         h1    186    ccc     H5   7524 0.15710000   1.008000   ; qtot -0.286004
 7525         c3    186    ccc     C4   7525 0.44180000  12.010000   ; qtot 0.155796
 7526         h1    186    ccc     H6   7526 0.15710000   1.008000   ; qtot 0.312896
 7527         h1    186    ccc     H7   7527 -0.03530000   1.008000   ; qtot 0.277596
 7528         h1    186    ccc     H8   7528 -0.03530000   1.008000   ; qtot 0.242296
 7529         n3    186    ccc     N2   7529 -0.74090000  14.010000   ; qtot -0.498604
 7530         c3    186    ccc     C5   7530 0.51680000  12.010000   ; qtot 0.018196
 7531         c3    186    ccc     C6   7531 0.51680000  12.010000   ; qtot 0.534996
 7532         h1    186    ccc     H9   7532 -0.05230000   1.008000   ; qtot 0.482696
 7533         c3    186    ccc     C7   7533 -0.60390000  12.010000   ; qtot -0.121204
 7534         h1    186    ccc    H10   7534 -0.05230000   1.008000   ; qtot -0.173504
 7535         hc    186    ccc    H11   7535 0.16730000   1.008000   ; qtot -0.006204
 7536         hc    186    ccc    H12   7536 0.16730000   1.008000   ; qtot 0.161096
 7537          c    186    ccc     C8   7537 0.72110000  12.010000   ; qtot 0.882196
 7538          o    186    ccc     O2   7538 -0.61950000  16.000000   ; qtot 0.262696
 7539         h1    186    ccc    H13   7539 -0.05230000   1.008000   ; qtot 0.210396
 7540         h1    186    ccc    H14   7540 -0.05230000   1.008000   ; qtot 0.158096
 7541         c3    186    ccc     C9   7541 -0.60390000  12.010000   ; qtot -0.445804
 7542         hc    186    ccc    H15   7542 0.16730000   1.008000   ; qtot -0.278504
 7543         hc    186    ccc    H16   7543 0.16730000   1.008000   ; qtot -0.111204
 7544          c    186    ccc    C10   7544 0.72110000  12.010000   ; qtot 0.609896
 7545          o    186    ccc     O4   7545 -0.61950000  16.000000   ; qtot -0.009604
 7546         c3    186    ccc    C11   7546 0.08518000  12.010000   ; qtot 0.075576
 7547         c3    186    ccc    C12   7547 0.07918000  12.010000   ; qtot 0.154756
 7548         h1    186    ccc    H17   7548 0.06978000   1.008000   ; qtot 0.224536
 7549         c3    186    ccc    C13   7549 0.07918000  12.010000   ; qtot 0.303716
 7550         c3    186    ccc    C14   7550 0.03578000  12.010000   ; qtot 0.339496
 7551         c3    186    ccc    C15   7551 0.33498000  12.010000   ; qtot 0.674476
 7552         h1    186    ccc    H18   7552 0.06178000   1.008000   ; qtot 0.736256
 7553         h1    186    ccc    H19   7553 0.11278000   1.008000   ; qtot 0.849036
 7554         h2    186    ccc    H20   7554 0.12178000   1.008000   ; qtot 0.970816
 7555         oh    186    ccc     O1   7555 -0.56972000  16.000000   ; qtot 0.401096
 7556         oh    186    ccc     O6   7556 -0.57772000  16.000000   ; qtot -0.176624
 7557         c3    186    ccc    C16   7557 0.14548000  12.010000   ; qtot -0.031144
 7558         ho    186    ccc    H21   7558 0.40508000   1.008000   ; qtot 0.373936
 7559         hn    186    ccc    H22   7559 0.31758000   1.008000   ; qtot 0.691516
 7560         h1    186    ccc    H23   7560 0.06278000   1.008000   ; qtot 0.754296
 7561         h1    186    ccc    H24   7561 0.06278000   1.008000   ; qtot 0.817076
 7562         oh    186    ccc     O7   7562 -0.59472000  16.000000   ; qtot 0.222356
 7563         ho    186    ccc    H25   7563 0.41908000   1.008000   ; qtot 0.641436
 7564         os    186    ccc     O8   7564 -0.44552000  16.000000   ; qtot 0.195916
 7565         ho    186    ccc    H26   7565 0.41908000   1.008000   ; qtot 0.614996
 7566         h1    186    ccc    H27   7566 0.08578000   1.008000   ; qtot 0.700776
 7567         oh    186    ccc     O9   7567 -0.58672000  16.000000   ; qtot 0.114056
 7568         ho    186    ccc    H28   7568 0.41908000   1.008000   ; qtot 0.533136
 7569         n3    186    ccc     N3   7569 -0.54282000  14.010000   ; qtot -0.009684
 7570         c3    186    ccc    C17   7570 0.08518000  12.010000   ; qtot 0.075496
 7571         c3    186    ccc    C18   7571 0.07918000  12.010000   ; qtot 0.154676
 7572         h1    186    ccc    H29   7572 0.06978000   1.008000   ; qtot 0.224456
 7573         c3    186    ccc    C19   7573 0.07918000  12.010000   ; qtot 0.303636
 7574         c3    186    ccc    C20   7574 0.03578000  12.010000   ; qtot 0.339416
 7575         c3    186    ccc    C21   7575 0.33498000  12.010000   ; qtot 0.674396
 7576         h1    186    ccc    H30   7576 0.06178000   1.008000   ; qtot 0.736176
 7577         h1    186    ccc    H31   7577 0.11278000   1.008000   ; qtot 0.848956
 7578         h2    186    ccc    H32   7578 0.12178000   1.008000   ; qtot 0.970736
 7579         oh    186    ccc    O10   7579 -0.56972000  16.000000   ; qtot 0.401016
 7580         oh    186    ccc    O11   7580 -0.57772000  16.000000   ; qtot -0.176704
 7581         c3    186    ccc    C22   7581 0.14548000  12.010000   ; qtot -0.031224
 7582         ho    186    ccc    H33   7582 0.40508000   1.008000   ; qtot 0.373856
 7583         hn    186    ccc    H34   7583 0.31758000   1.008000   ; qtot 0.691436
 7584         h1    186    ccc    H35   7584 0.06278000   1.008000   ; qtot 0.754216
 7585         h1    186    ccc    H36   7585 0.06278000   1.008000   ; qtot 0.816996
 7586         oh    186    ccc    O12   7586 -0.59472000  16.000000   ; qtot 0.222276
 7587         ho    186    ccc    H37   7587 0.41908000   1.008000   ; qtot 0.641356
 7588         os    186    ccc    O13   7588 -0.44552000  16.000000   ; qtot 0.195836
 7589         ho    186    ccc    H38   7589 0.41908000   1.008000   ; qtot 0.614916
 7590         h1    186    ccc    H39   7590 0.08578000   1.008000   ; qtot 0.700696
 7591         oh    186    ccc     O5   7591 -0.58672000  16.000000   ; qtot 0.113976
 7592         ho    186    ccc    H40   7592 0.41908000   1.008000   ; qtot 0.533056
 7593         n3    186    ccc     N4   7593 -0.54282000  14.010000   ; qtot -0.009764
; residue  187 ccc rtp ccc q -0.0
 7594          n    187    ccc     N1   7594 -0.46580000  14.010000   ; qtot -0.475564
 7595         hn    187    ccc     H4   7595 0.31480000   1.008000   ; qtot -0.160764
 7596         c3    187    ccc     C3   7596 -0.28250000  12.010000   ; qtot -0.443264
 7597         h1    187    ccc     H5   7597 0.15710000   1.008000   ; qtot -0.286164
 7598         c3    187    ccc     C4   7598 0.44180000  12.010000   ; qtot 0.155636
 7599         h1    187    ccc     H6   7599 0.15710000   1.008000   ; qtot 0.312736
 7600         h1    187    ccc     H7   7600 -0.03530000   1.008000   ; qtot 0.277436
 7601         h1    187    ccc     H8   7601 -0.03530000   1.008000   ; qtot 0.242136
 7602         n3    187    ccc     N2   7602 -0.74090000  14.010000   ; qtot -0.498764
 7603         c3    187    ccc     C5   7603 0.51680000  12.010000   ; qtot 0.018036
 7604         c3    187    ccc     C6   7604 0.51680000  12.010000   ; qtot 0.534836
 7605         h1    187    ccc     H9   7605 -0.05230000   1.008000   ; qtot 0.482536
 7606         c3    187    ccc     C7   7606 -0.60390000  12.010000   ; qtot -0.121364
 7607         h1    187    ccc    H10   7607 -0.05230000   1.008000   ; qtot -0.173664
 7608         hc    187    ccc    H11   7608 0.16730000   1.008000   ; qtot -0.006364
 7609         hc    187    ccc    H12   7609 0.16730000   1.008000   ; qtot 0.160936
 7610          c    187    ccc     C8   7610 0.72110000  12.010000   ; qtot 0.882036
 7611          o    187    ccc     O2   7611 -0.61950000  16.000000   ; qtot 0.262536
 7612         h1    187    ccc    H13   7612 -0.05230000   1.008000   ; qtot 0.210236
 7613         h1    187    ccc    H14   7613 -0.05230000   1.008000   ; qtot 0.157936
 7614         c3    187    ccc     C9   7614 -0.60390000  12.010000   ; qtot -0.445964
 7615         hc    187    ccc    H15   7615 0.16730000   1.008000   ; qtot -0.278664
 7616         hc    187    ccc    H16   7616 0.16730000   1.008000   ; qtot -0.111364
 7617          c    187    ccc    C10   7617 0.72110000  12.010000   ; qtot 0.609736
 7618          o    187    ccc     O4   7618 -0.61950000  16.000000   ; qtot -0.009764
 7619         c3    187    ccc    C11   7619 0.08518000  12.010000   ; qtot 0.075416
 7620         c3    187    ccc    C12   7620 0.07918000  12.010000   ; qtot 0.154596
 7621         h1    187    ccc    H17   7621 0.06978000   1.008000   ; qtot 0.224376
 7622         c3    187    ccc    C13   7622 0.07918000  12.010000   ; qtot 0.303556
 7623         c3    187    ccc    C14   7623 0.03578000  12.010000   ; qtot 0.339336
 7624         c3    187    ccc    C15   7624 0.33498000  12.010000   ; qtot 0.674316
 7625         h1    187    ccc    H18   7625 0.06178000   1.008000   ; qtot 0.736096
 7626         h1    187    ccc    H19   7626 0.11278000   1.008000   ; qtot 0.848876
 7627         h2    187    ccc    H20   7627 0.12178000   1.008000   ; qtot 0.970656
 7628         oh    187    ccc     O1   7628 -0.56972000  16.000000   ; qtot 0.400936
 7629         oh    187    ccc     O6   7629 -0.57772000  16.000000   ; qtot -0.176784
 7630         c3    187    ccc    C16   7630 0.14548000  12.010000   ; qtot -0.031304
 7631         ho    187    ccc    H21   7631 0.40508000   1.008000   ; qtot 0.373776
 7632         hn    187    ccc    H22   7632 0.31758000   1.008000   ; qtot 0.691356
 7633         h1    187    ccc    H23   7633 0.06278000   1.008000   ; qtot 0.754136
 7634         h1    187    ccc    H24   7634 0.06278000   1.008000   ; qtot 0.816916
 7635         oh    187    ccc     O7   7635 -0.59472000  16.000000   ; qtot 0.222196
 7636         ho    187    ccc    H25   7636 0.41908000   1.008000   ; qtot 0.641276
 7637         os    187    ccc     O8   7637 -0.44552000  16.000000   ; qtot 0.195756
 7638         ho    187    ccc    H26   7638 0.41908000   1.008000   ; qtot 0.614836
 7639         h1    187    ccc    H27   7639 0.08578000   1.008000   ; qtot 0.700616
 7640         oh    187    ccc     O9   7640 -0.58672000  16.000000   ; qtot 0.113896
 7641         ho    187    ccc    H28   7641 0.41908000   1.008000   ; qtot 0.532976
 7642         n3    187    ccc     N3   7642 -0.54282000  14.010000   ; qtot -0.009844
 7643         c3    187    ccc    C17   7643 0.08518000  12.010000   ; qtot 0.075336
 7644         c3    187    ccc    C18   7644 0.07918000  12.010000   ; qtot 0.154516
 7645         h1    187    ccc    H29   7645 0.06978000   1.008000   ; qtot 0.224296
 7646         c3    187    ccc    C19   7646 0.07918000  12.010000   ; qtot 0.303476
 7647         c3    187    ccc    C20   7647 0.03578000  12.010000   ; qtot 0.339256
 7648         c3    187    ccc    C21   7648 0.33498000  12.010000   ; qtot 0.674236
 7649         h1    187    ccc    H30   7649 0.06178000   1.008000   ; qtot 0.736016
 7650         h1    187    ccc    H31   7650 0.11278000   1.008000   ; qtot 0.848796
 7651         h2    187    ccc    H32   7651 0.12178000   1.008000   ; qtot 0.970576
 7652         oh    187    ccc    O10   7652 -0.56972000  16.000000   ; qtot 0.400856
 7653         oh    187    ccc    O11   7653 -0.57772000  16.000000   ; qtot -0.176864
 7654         c3    187    ccc    C22   7654 0.14548000  12.010000   ; qtot -0.031384
 7655         ho    187    ccc    H33   7655 0.40508000   1.008000   ; qtot 0.373696
 7656         hn    187    ccc    H34   7656 0.31758000   1.008000   ; qtot 0.691276
 7657         h1    187    ccc    H35   7657 0.06278000   1.008000   ; qtot 0.754056
 7658         h1    187    ccc    H36   7658 0.06278000   1.008000   ; qtot 0.816836
 7659         oh    187    ccc    O12   7659 -0.59472000  16.000000   ; qtot 0.222116
 7660         ho    187    ccc    H37   7660 0.41908000   1.008000   ; qtot 0.641196
 7661         os    187    ccc    O13   7661 -0.44552000  16.000000   ; qtot 0.195676
 7662         ho    187    ccc    H38   7662 0.41908000   1.008000   ; qtot 0.614756
 7663         h1    187    ccc    H39   7663 0.08578000   1.008000   ; qtot 0.700536
 7664         oh    187    ccc     O5   7664 -0.58672000  16.000000   ; qtot 0.113816
 7665         ho    187    ccc    H40   7665 0.41908000   1.008000   ; qtot 0.532896
 7666         n3    187    ccc     N4   7666 -0.54282000  14.010000   ; qtot -0.009924
; residue  188 ccc rtp ccc q -0.0
 7667          n    188    ccc     N1   7667 -0.46580000  14.010000   ; qtot -0.475724
 7668         hn    188    ccc     H4   7668 0.31480000   1.008000   ; qtot -0.160924
 7669         c3    188    ccc     C3   7669 -0.28250000  12.010000   ; qtot -0.443424
 7670         h1    188    ccc     H5   7670 0.15710000   1.008000   ; qtot -0.286324
 7671         c3    188    ccc     C4   7671 0.44180000  12.010000   ; qtot 0.155476
 7672         h1    188    ccc     H6   7672 0.15710000   1.008000   ; qtot 0.312576
 7673         h1    188    ccc     H7   7673 -0.03530000   1.008000   ; qtot 0.277276
 7674         h1    188    ccc     H8   7674 -0.03530000   1.008000   ; qtot 0.241976
 7675         n3    188    ccc     N2   7675 -0.74090000  14.010000   ; qtot -0.498924
 7676         c3    188    ccc     C5   7676 0.51680000  12.010000   ; qtot 0.017876
 7677         c3    188    ccc     C6   7677 0.51680000  12.010000   ; qtot 0.534676
 7678         h1    188    ccc     H9   7678 -0.05230000   1.008000   ; qtot 0.482376
 7679         c3    188    ccc     C7   7679 -0.60390000  12.010000   ; qtot -0.121524
 7680         h1    188    ccc    H10   7680 -0.05230000   1.008000   ; qtot -0.173824
 7681         hc    188    ccc    H11   7681 0.16730000   1.008000   ; qtot -0.006524
 7682         hc    188    ccc    H12   7682 0.16730000   1.008000   ; qtot 0.160776
 7683          c    188    ccc     C8   7683 0.72110000  12.010000   ; qtot 0.881876
 7684          o    188    ccc     O2   7684 -0.61950000  16.000000   ; qtot 0.262376
 7685         h1    188    ccc    H13   7685 -0.05230000   1.008000   ; qtot 0.210076
 7686         h1    188    ccc    H14   7686 -0.05230000   1.008000   ; qtot 0.157776
 7687         c3    188    ccc     C9   7687 -0.60390000  12.010000   ; qtot -0.446124
 7688         hc    188    ccc    H15   7688 0.16730000   1.008000   ; qtot -0.278824
 7689         hc    188    ccc    H16   7689 0.16730000   1.008000   ; qtot -0.111524
 7690          c    188    ccc    C10   7690 0.72110000  12.010000   ; qtot 0.609576
 7691          o    188    ccc     O4   7691 -0.61950000  16.000000   ; qtot -0.009924
 7692         c3    188    ccc    C11   7692 0.08518000  12.010000   ; qtot 0.075256
 7693         c3    188    ccc    C12   7693 0.07918000  12.010000   ; qtot 0.154436
 7694         h1    188    ccc    H17   7694 0.06978000   1.008000   ; qtot 0.224216
 7695         c3    188    ccc    C13   7695 0.07918000  12.010000   ; qtot 0.303396
 7696         c3    188    ccc    C14   7696 0.03578000  12.010000   ; qtot 0.339176
 7697         c3    188    ccc    C15   7697 0.33498000  12.010000   ; qtot 0.674156
 7698         h1    188    ccc    H18   7698 0.06178000   1.008000   ; qtot 0.735936
 7699         h1    188    ccc    H19   7699 0.11278000   1.008000   ; qtot 0.848716
 7700         h2    188    ccc    H20   7700 0.12178000   1.008000   ; qtot 0.970496
 7701         oh    188    ccc     O1   7701 -0.56972000  16.000000   ; qtot 0.400776
 7702         oh    188    ccc     O6   7702 -0.57772000  16.000000   ; qtot -0.176944
 7703         c3    188    ccc    C16   7703 0.14548000  12.010000   ; qtot -0.031464
 7704         ho    188    ccc    H21   7704 0.40508000   1.008000   ; qtot 0.373616
 7705         hn    188    ccc    H22   7705 0.31758000   1.008000   ; qtot 0.691196
 7706         h1    188    ccc    H23   7706 0.06278000   1.008000   ; qtot 0.753976
 7707         h1    188    ccc    H24   7707 0.06278000   1.008000   ; qtot 0.816756
 7708         oh    188    ccc     O7   7708 -0.59472000  16.000000   ; qtot 0.222036
 7709         ho    188    ccc    H25   7709 0.41908000   1.008000   ; qtot 0.641116
 7710         os    188    ccc     O8   7710 -0.44552000  16.000000   ; qtot 0.195596
 7711         ho    188    ccc    H26   7711 0.41908000   1.008000   ; qtot 0.614676
 7712         h1    188    ccc    H27   7712 0.08578000   1.008000   ; qtot 0.700456
 7713         oh    188    ccc     O9   7713 -0.58672000  16.000000   ; qtot 0.113736
 7714         ho    188    ccc    H28   7714 0.41908000   1.008000   ; qtot 0.532816
 7715         n3    188    ccc     N3   7715 -0.54282000  14.010000   ; qtot -0.010004
 7716         c3    188    ccc    C17   7716 0.08518000  12.010000   ; qtot 0.075176
 7717         c3    188    ccc    C18   7717 0.07918000  12.010000   ; qtot 0.154356
 7718         h1    188    ccc    H29   7718 0.06978000   1.008000   ; qtot 0.224136
 7719         c3    188    ccc    C19   7719 0.07918000  12.010000   ; qtot 0.303316
 7720         c3    188    ccc    C20   7720 0.03578000  12.010000   ; qtot 0.339096
 7721         c3    188    ccc    C21   7721 0.33498000  12.010000   ; qtot 0.674076
 7722         h1    188    ccc    H30   7722 0.06178000   1.008000   ; qtot 0.735856
 7723         h1    188    ccc    H31   7723 0.11278000   1.008000   ; qtot 0.848636
 7724         h2    188    ccc    H32   7724 0.12178000   1.008000   ; qtot 0.970416
 7725         oh    188    ccc    O10   7725 -0.56972000  16.000000   ; qtot 0.400696
 7726         oh    188    ccc    O11   7726 -0.57772000  16.000000   ; qtot -0.177024
 7727         c3    188    ccc    C22   7727 0.14548000  12.010000   ; qtot -0.031544
 7728         ho    188    ccc    H33   7728 0.40508000   1.008000   ; qtot 0.373536
 7729         hn    188    ccc    H34   7729 0.31758000   1.008000   ; qtot 0.691116
 7730         h1    188    ccc    H35   7730 0.06278000   1.008000   ; qtot 0.753896
 7731         h1    188    ccc    H36   7731 0.06278000   1.008000   ; qtot 0.816676
 7732         oh    188    ccc    O12   7732 -0.59472000  16.000000   ; qtot 0.221956
 7733         ho    188    ccc    H37   7733 0.41908000   1.008000   ; qtot 0.641036
 7734         os    188    ccc    O13   7734 -0.44552000  16.000000   ; qtot 0.195516
 7735         ho    188    ccc    H38   7735 0.41908000   1.008000   ; qtot 0.614596
 7736         h1    188    ccc    H39   7736 0.08578000   1.008000   ; qtot 0.700376
 7737         oh    188    ccc     O5   7737 -0.58672000  16.000000   ; qtot 0.113656
 7738         ho    188    ccc    H40   7738 0.41908000   1.008000   ; qtot 0.532736
 7739         n3    188    ccc     N4   7739 -0.54282000  14.010000   ; qtot -0.010084
; residue  189 ccc rtp ccc q -0.0
 7740          n    189    ccc     N1   7740 -0.46580000  14.010000   ; qtot -0.475884
 7741         hn    189    ccc     H4   7741 0.31480000   1.008000   ; qtot -0.161084
 7742         c3    189    ccc     C3   7742 -0.28250000  12.010000   ; qtot -0.443584
 7743         h1    189    ccc     H5   7743 0.15710000   1.008000   ; qtot -0.286484
 7744         c3    189    ccc     C4   7744 0.44180000  12.010000   ; qtot 0.155316
 7745         h1    189    ccc     H6   7745 0.15710000   1.008000   ; qtot 0.312416
 7746         h1    189    ccc     H7   7746 -0.03530000   1.008000   ; qtot 0.277116
 7747         h1    189    ccc     H8   7747 -0.03530000   1.008000   ; qtot 0.241816
 7748         n3    189    ccc     N2   7748 -0.74090000  14.010000   ; qtot -0.499084
 7749         c3    189    ccc     C5   7749 0.51680000  12.010000   ; qtot 0.017716
 7750         c3    189    ccc     C6   7750 0.51680000  12.010000   ; qtot 0.534516
 7751         h1    189    ccc     H9   7751 -0.05230000   1.008000   ; qtot 0.482216
 7752         c3    189    ccc     C7   7752 -0.60390000  12.010000   ; qtot -0.121684
 7753         h1    189    ccc    H10   7753 -0.05230000   1.008000   ; qtot -0.173984
 7754         hc    189    ccc    H11   7754 0.16730000   1.008000   ; qtot -0.006684
 7755         hc    189    ccc    H12   7755 0.16730000   1.008000   ; qtot 0.160616
 7756          c    189    ccc     C8   7756 0.72110000  12.010000   ; qtot 0.881716
 7757          o    189    ccc     O2   7757 -0.61950000  16.000000   ; qtot 0.262216
 7758         h1    189    ccc    H13   7758 -0.05230000   1.008000   ; qtot 0.209916
 7759         h1    189    ccc    H14   7759 -0.05230000   1.008000   ; qtot 0.157616
 7760         c3    189    ccc     C9   7760 -0.60390000  12.010000   ; qtot -0.446284
 7761         hc    189    ccc    H15   7761 0.16730000   1.008000   ; qtot -0.278984
 7762         hc    189    ccc    H16   7762 0.16730000   1.008000   ; qtot -0.111684
 7763          c    189    ccc    C10   7763 0.72110000  12.010000   ; qtot 0.609416
 7764          o    189    ccc     O4   7764 -0.61950000  16.000000   ; qtot -0.010084
 7765         c3    189    ccc    C11   7765 0.08518000  12.010000   ; qtot 0.075096
 7766         c3    189    ccc    C12   7766 0.07918000  12.010000   ; qtot 0.154276
 7767         h1    189    ccc    H17   7767 0.06978000   1.008000   ; qtot 0.224056
 7768         c3    189    ccc    C13   7768 0.07918000  12.010000   ; qtot 0.303236
 7769         c3    189    ccc    C14   7769 0.03578000  12.010000   ; qtot 0.339016
 7770         c3    189    ccc    C15   7770 0.33498000  12.010000   ; qtot 0.673996
 7771         h1    189    ccc    H18   7771 0.06178000   1.008000   ; qtot 0.735776
 7772         h1    189    ccc    H19   7772 0.11278000   1.008000   ; qtot 0.848556
 7773         h2    189    ccc    H20   7773 0.12178000   1.008000   ; qtot 0.970336
 7774         oh    189    ccc     O1   7774 -0.56972000  16.000000   ; qtot 0.400616
 7775         oh    189    ccc     O6   7775 -0.57772000  16.000000   ; qtot -0.177104
 7776         c3    189    ccc    C16   7776 0.14548000  12.010000   ; qtot -0.031624
 7777         ho    189    ccc    H21   7777 0.40508000   1.008000   ; qtot 0.373456
 7778         hn    189    ccc    H22   7778 0.31758000   1.008000   ; qtot 0.691036
 7779         h1    189    ccc    H23   7779 0.06278000   1.008000   ; qtot 0.753816
 7780         h1    189    ccc    H24   7780 0.06278000   1.008000   ; qtot 0.816596
 7781         oh    189    ccc     O7   7781 -0.59472000  16.000000   ; qtot 0.221876
 7782         ho    189    ccc    H25   7782 0.41908000   1.008000   ; qtot 0.640956
 7783         os    189    ccc     O8   7783 -0.44552000  16.000000   ; qtot 0.195436
 7784         ho    189    ccc    H26   7784 0.41908000   1.008000   ; qtot 0.614516
 7785         h1    189    ccc    H27   7785 0.08578000   1.008000   ; qtot 0.700296
 7786         oh    189    ccc     O9   7786 -0.58672000  16.000000   ; qtot 0.113576
 7787         ho    189    ccc    H28   7787 0.41908000   1.008000   ; qtot 0.532656
 7788         n3    189    ccc     N3   7788 -0.54282000  14.010000   ; qtot -0.010164
 7789         c3    189    ccc    C17   7789 0.08518000  12.010000   ; qtot 0.075016
 7790         c3    189    ccc    C18   7790 0.07918000  12.010000   ; qtot 0.154196
 7791         h1    189    ccc    H29   7791 0.06978000   1.008000   ; qtot 0.223976
 7792         c3    189    ccc    C19   7792 0.07918000  12.010000   ; qtot 0.303156
 7793         c3    189    ccc    C20   7793 0.03578000  12.010000   ; qtot 0.338936
 7794         c3    189    ccc    C21   7794 0.33498000  12.010000   ; qtot 0.673916
 7795         h1    189    ccc    H30   7795 0.06178000   1.008000   ; qtot 0.735696
 7796         h1    189    ccc    H31   7796 0.11278000   1.008000   ; qtot 0.848476
 7797         h2    189    ccc    H32   7797 0.12178000   1.008000   ; qtot 0.970256
 7798         oh    189    ccc    O10   7798 -0.56972000  16.000000   ; qtot 0.400536
 7799         oh    189    ccc    O11   7799 -0.57772000  16.000000   ; qtot -0.177184
 7800         c3    189    ccc    C22   7800 0.14548000  12.010000   ; qtot -0.031704
 7801         ho    189    ccc    H33   7801 0.40508000   1.008000   ; qtot 0.373376
 7802         hn    189    ccc    H34   7802 0.31758000   1.008000   ; qtot 0.690956
 7803         h1    189    ccc    H35   7803 0.06278000   1.008000   ; qtot 0.753736
 7804         h1    189    ccc    H36   7804 0.06278000   1.008000   ; qtot 0.816516
 7805         oh    189    ccc    O12   7805 -0.59472000  16.000000   ; qtot 0.221796
 7806         ho    189    ccc    H37   7806 0.41908000   1.008000   ; qtot 0.640876
 7807         os    189    ccc    O13   7807 -0.44552000  16.000000   ; qtot 0.195356
 7808         ho    189    ccc    H38   7808 0.41908000   1.008000   ; qtot 0.614436
 7809         h1    189    ccc    H39   7809 0.08578000   1.008000   ; qtot 0.700216
 7810         oh    189    ccc     O5   7810 -0.58672000  16.000000   ; qtot 0.113496
 7811         ho    189    ccc    H40   7811 0.41908000   1.008000   ; qtot 0.532576
 7812         n3    189    ccc     N4   7812 -0.54282000  14.010000   ; qtot -0.010244
; residue  190 ccc rtp ccc q -0.0
 7813          n    190    ccc     N1   7813 -0.46580000  14.010000   ; qtot -0.476044
 7814         hn    190    ccc     H4   7814 0.31480000   1.008000   ; qtot -0.161244
 7815         c3    190    ccc     C3   7815 -0.28250000  12.010000   ; qtot -0.443744
 7816         h1    190    ccc     H5   7816 0.15710000   1.008000   ; qtot -0.286644
 7817         c3    190    ccc     C4   7817 0.44180000  12.010000   ; qtot 0.155156
 7818         h1    190    ccc     H6   7818 0.15710000   1.008000   ; qtot 0.312256
 7819         h1    190    ccc     H7   7819 -0.03530000   1.008000   ; qtot 0.276956
 7820         h1    190    ccc     H8   7820 -0.03530000   1.008000   ; qtot 0.241656
 7821         n3    190    ccc     N2   7821 -0.74090000  14.010000   ; qtot -0.499244
 7822         c3    190    ccc     C5   7822 0.51680000  12.010000   ; qtot 0.017556
 7823         c3    190    ccc     C6   7823 0.51680000  12.010000   ; qtot 0.534356
 7824         h1    190    ccc     H9   7824 -0.05230000   1.008000   ; qtot 0.482056
 7825         c3    190    ccc     C7   7825 -0.60390000  12.010000   ; qtot -0.121844
 7826         h1    190    ccc    H10   7826 -0.05230000   1.008000   ; qtot -0.174144
 7827         hc    190    ccc    H11   7827 0.16730000   1.008000   ; qtot -0.006844
 7828         hc    190    ccc    H12   7828 0.16730000   1.008000   ; qtot 0.160456
 7829          c    190    ccc     C8   7829 0.72110000  12.010000   ; qtot 0.881556
 7830          o    190    ccc     O2   7830 -0.61950000  16.000000   ; qtot 0.262056
 7831         h1    190    ccc    H13   7831 -0.05230000   1.008000   ; qtot 0.209756
 7832         h1    190    ccc    H14   7832 -0.05230000   1.008000   ; qtot 0.157456
 7833         c3    190    ccc     C9   7833 -0.60390000  12.010000   ; qtot -0.446444
 7834         hc    190    ccc    H15   7834 0.16730000   1.008000   ; qtot -0.279144
 7835         hc    190    ccc    H16   7835 0.16730000   1.008000   ; qtot -0.111844
 7836          c    190    ccc    C10   7836 0.72110000  12.010000   ; qtot 0.609256
 7837          o    190    ccc     O4   7837 -0.61950000  16.000000   ; qtot -0.010244
 7838         c3    190    ccc    C11   7838 0.08518000  12.010000   ; qtot 0.074936
 7839         c3    190    ccc    C12   7839 0.07918000  12.010000   ; qtot 0.154116
 7840         h1    190    ccc    H17   7840 0.06978000   1.008000   ; qtot 0.223896
 7841         c3    190    ccc    C13   7841 0.07918000  12.010000   ; qtot 0.303076
 7842         c3    190    ccc    C14   7842 0.03578000  12.010000   ; qtot 0.338856
 7843         c3    190    ccc    C15   7843 0.33498000  12.010000   ; qtot 0.673836
 7844         h1    190    ccc    H18   7844 0.06178000   1.008000   ; qtot 0.735616
 7845         h1    190    ccc    H19   7845 0.11278000   1.008000   ; qtot 0.848396
 7846         h2    190    ccc    H20   7846 0.12178000   1.008000   ; qtot 0.970176
 7847         oh    190    ccc     O1   7847 -0.56972000  16.000000   ; qtot 0.400456
 7848         oh    190    ccc     O6   7848 -0.57772000  16.000000   ; qtot -0.177264
 7849         c3    190    ccc    C16   7849 0.14548000  12.010000   ; qtot -0.031784
 7850         ho    190    ccc    H21   7850 0.40508000   1.008000   ; qtot 0.373296
 7851         hn    190    ccc    H22   7851 0.31758000   1.008000   ; qtot 0.690876
 7852         h1    190    ccc    H23   7852 0.06278000   1.008000   ; qtot 0.753656
 7853         h1    190    ccc    H24   7853 0.06278000   1.008000   ; qtot 0.816436
 7854         oh    190    ccc     O7   7854 -0.59472000  16.000000   ; qtot 0.221716
 7855         ho    190    ccc    H25   7855 0.41908000   1.008000   ; qtot 0.640796
 7856         os    190    ccc     O8   7856 -0.44552000  16.000000   ; qtot 0.195276
 7857         ho    190    ccc    H26   7857 0.41908000   1.008000   ; qtot 0.614356
 7858         h1    190    ccc    H27   7858 0.08578000   1.008000   ; qtot 0.700136
 7859         oh    190    ccc     O9   7859 -0.58672000  16.000000   ; qtot 0.113416
 7860         ho    190    ccc    H28   7860 0.41908000   1.008000   ; qtot 0.532496
 7861         n3    190    ccc     N3   7861 -0.54282000  14.010000   ; qtot -0.010324
 7862         c3    190    ccc    C17   7862 0.08518000  12.010000   ; qtot 0.074856
 7863         c3    190    ccc    C18   7863 0.07918000  12.010000   ; qtot 0.154036
 7864         h1    190    ccc    H29   7864 0.06978000   1.008000   ; qtot 0.223816
 7865         c3    190    ccc    C19   7865 0.07918000  12.010000   ; qtot 0.302996
 7866         c3    190    ccc    C20   7866 0.03578000  12.010000   ; qtot 0.338776
 7867         c3    190    ccc    C21   7867 0.33498000  12.010000   ; qtot 0.673756
 7868         h1    190    ccc    H30   7868 0.06178000   1.008000   ; qtot 0.735536
 7869         h1    190    ccc    H31   7869 0.11278000   1.008000   ; qtot 0.848316
 7870         h2    190    ccc    H32   7870 0.12178000   1.008000   ; qtot 0.970096
 7871         oh    190    ccc    O10   7871 -0.56972000  16.000000   ; qtot 0.400376
 7872         oh    190    ccc    O11   7872 -0.57772000  16.000000   ; qtot -0.177344
 7873         c3    190    ccc    C22   7873 0.14548000  12.010000   ; qtot -0.031864
 7874         ho    190    ccc    H33   7874 0.40508000   1.008000   ; qtot 0.373216
 7875         hn    190    ccc    H34   7875 0.31758000   1.008000   ; qtot 0.690796
 7876         h1    190    ccc    H35   7876 0.06278000   1.008000   ; qtot 0.753576
 7877         h1    190    ccc    H36   7877 0.06278000   1.008000   ; qtot 0.816356
 7878         oh    190    ccc    O12   7878 -0.59472000  16.000000   ; qtot 0.221636
 7879         ho    190    ccc    H37   7879 0.41908000   1.008000   ; qtot 0.640716
 7880         os    190    ccc    O13   7880 -0.44552000  16.000000   ; qtot 0.195196
 7881         ho    190    ccc    H38   7881 0.41908000   1.008000   ; qtot 0.614276
 7882         h1    190    ccc    H39   7882 0.08578000   1.008000   ; qtot 0.700056
 7883         oh    190    ccc     O5   7883 -0.58672000  16.000000   ; qtot 0.113336
 7884         ho    190    ccc    H40   7884 0.41908000   1.008000   ; qtot 0.532416
 7885         n3    190    ccc     N4   7885 -0.54282000  14.010000   ; qtot -0.010404
; residue  191 ccc rtp ccc q -0.0
 7886          n    191    ccc     N1   7886 -0.46580000  14.010000   ; qtot -0.476204
 7887         hn    191    ccc     H4   7887 0.31480000   1.008000   ; qtot -0.161404
 7888         c3    191    ccc     C3   7888 -0.28250000  12.010000   ; qtot -0.443904
 7889         h1    191    ccc     H5   7889 0.15710000   1.008000   ; qtot -0.286804
 7890         c3    191    ccc     C4   7890 0.44180000  12.010000   ; qtot 0.154996
 7891         h1    191    ccc     H6   7891 0.15710000   1.008000   ; qtot 0.312096
 7892         h1    191    ccc     H7   7892 -0.03530000   1.008000   ; qtot 0.276796
 7893         h1    191    ccc     H8   7893 -0.03530000   1.008000   ; qtot 0.241496
 7894         n3    191    ccc     N2   7894 -0.74090000  14.010000   ; qtot -0.499404
 7895         c3    191    ccc     C5   7895 0.51680000  12.010000   ; qtot 0.017396
 7896         c3    191    ccc     C6   7896 0.51680000  12.010000   ; qtot 0.534196
 7897         h1    191    ccc     H9   7897 -0.05230000   1.008000   ; qtot 0.481896
 7898         c3    191    ccc     C7   7898 -0.60390000  12.010000   ; qtot -0.122004
 7899         h1    191    ccc    H10   7899 -0.05230000   1.008000   ; qtot -0.174304
 7900         hc    191    ccc    H11   7900 0.16730000   1.008000   ; qtot -0.007004
 7901         hc    191    ccc    H12   7901 0.16730000   1.008000   ; qtot 0.160296
 7902          c    191    ccc     C8   7902 0.72110000  12.010000   ; qtot 0.881396
 7903          o    191    ccc     O2   7903 -0.61950000  16.000000   ; qtot 0.261896
 7904         h1    191    ccc    H13   7904 -0.05230000   1.008000   ; qtot 0.209596
 7905         h1    191    ccc    H14   7905 -0.05230000   1.008000   ; qtot 0.157296
 7906         c3    191    ccc     C9   7906 -0.60390000  12.010000   ; qtot -0.446604
 7907         hc    191    ccc    H15   7907 0.16730000   1.008000   ; qtot -0.279304
 7908         hc    191    ccc    H16   7908 0.16730000   1.008000   ; qtot -0.112004
 7909          c    191    ccc    C10   7909 0.72110000  12.010000   ; qtot 0.609096
 7910          o    191    ccc     O4   7910 -0.61950000  16.000000   ; qtot -0.010404
 7911         c3    191    ccc    C11   7911 0.08518000  12.010000   ; qtot 0.074776
 7912         c3    191    ccc    C12   7912 0.07918000  12.010000   ; qtot 0.153956
 7913         h1    191    ccc    H17   7913 0.06978000   1.008000   ; qtot 0.223736
 7914         c3    191    ccc    C13   7914 0.07918000  12.010000   ; qtot 0.302916
 7915         c3    191    ccc    C14   7915 0.03578000  12.010000   ; qtot 0.338696
 7916         c3    191    ccc    C15   7916 0.33498000  12.010000   ; qtot 0.673676
 7917         h1    191    ccc    H18   7917 0.06178000   1.008000   ; qtot 0.735456
 7918         h1    191    ccc    H19   7918 0.11278000   1.008000   ; qtot 0.848236
 7919         h2    191    ccc    H20   7919 0.12178000   1.008000   ; qtot 0.970016
 7920         oh    191    ccc     O1   7920 -0.56972000  16.000000   ; qtot 0.400296
 7921         oh    191    ccc     O6   7921 -0.57772000  16.000000   ; qtot -0.177424
 7922         c3    191    ccc    C16   7922 0.14548000  12.010000   ; qtot -0.031944
 7923         ho    191    ccc    H21   7923 0.40508000   1.008000   ; qtot 0.373136
 7924         hn    191    ccc    H22   7924 0.31758000   1.008000   ; qtot 0.690716
 7925         h1    191    ccc    H23   7925 0.06278000   1.008000   ; qtot 0.753496
 7926         h1    191    ccc    H24   7926 0.06278000   1.008000   ; qtot 0.816276
 7927         oh    191    ccc     O7   7927 -0.59472000  16.000000   ; qtot 0.221556
 7928         ho    191    ccc    H25   7928 0.41908000   1.008000   ; qtot 0.640636
 7929         os    191    ccc     O8   7929 -0.44552000  16.000000   ; qtot 0.195116
 7930         ho    191    ccc    H26   7930 0.41908000   1.008000   ; qtot 0.614196
 7931         h1    191    ccc    H27   7931 0.08578000   1.008000   ; qtot 0.699976
 7932         oh    191    ccc     O9   7932 -0.58672000  16.000000   ; qtot 0.113256
 7933         ho    191    ccc    H28   7933 0.41908000   1.008000   ; qtot 0.532336
 7934         n3    191    ccc     N3   7934 -0.54282000  14.010000   ; qtot -0.010484
 7935         c3    191    ccc    C17   7935 0.08518000  12.010000   ; qtot 0.074696
 7936         c3    191    ccc    C18   7936 0.07918000  12.010000   ; qtot 0.153876
 7937         h1    191    ccc    H29   7937 0.06978000   1.008000   ; qtot 0.223656
 7938         c3    191    ccc    C19   7938 0.07918000  12.010000   ; qtot 0.302836
 7939         c3    191    ccc    C20   7939 0.03578000  12.010000   ; qtot 0.338616
 7940         c3    191    ccc    C21   7940 0.33498000  12.010000   ; qtot 0.673596
 7941         h1    191    ccc    H30   7941 0.06178000   1.008000   ; qtot 0.735376
 7942         h1    191    ccc    H31   7942 0.11278000   1.008000   ; qtot 0.848156
 7943         h2    191    ccc    H32   7943 0.12178000   1.008000   ; qtot 0.969936
 7944         oh    191    ccc    O10   7944 -0.56972000  16.000000   ; qtot 0.400216
 7945         oh    191    ccc    O11   7945 -0.57772000  16.000000   ; qtot -0.177504
 7946         c3    191    ccc    C22   7946 0.14548000  12.010000   ; qtot -0.032024
 7947         ho    191    ccc    H33   7947 0.40508000   1.008000   ; qtot 0.373056
 7948         hn    191    ccc    H34   7948 0.31758000   1.008000   ; qtot 0.690636
 7949         h1    191    ccc    H35   7949 0.06278000   1.008000   ; qtot 0.753416
 7950         h1    191    ccc    H36   7950 0.06278000   1.008000   ; qtot 0.816196
 7951         oh    191    ccc    O12   7951 -0.59472000  16.000000   ; qtot 0.221476
 7952         ho    191    ccc    H37   7952 0.41908000   1.008000   ; qtot 0.640556
 7953         os    191    ccc    O13   7953 -0.44552000  16.000000   ; qtot 0.195036
 7954         ho    191    ccc    H38   7954 0.41908000   1.008000   ; qtot 0.614116
 7955         h1    191    ccc    H39   7955 0.08578000   1.008000   ; qtot 0.699896
 7956         oh    191    ccc     O5   7956 -0.58672000  16.000000   ; qtot 0.113176
 7957         ho    191    ccc    H40   7957 0.41908000   1.008000   ; qtot 0.532256
 7958         n3    191    ccc     N4   7958 -0.54282000  14.010000   ; qtot -0.010564
; residue  192 ccc rtp ccc q -0.0
 7959          n    192    ccc     N1   7959 -0.46580000  14.010000   ; qtot -0.476364
 7960         hn    192    ccc     H4   7960 0.31480000   1.008000   ; qtot -0.161564
 7961         c3    192    ccc     C3   7961 -0.28250000  12.010000   ; qtot -0.444064
 7962         h1    192    ccc     H5   7962 0.15710000   1.008000   ; qtot -0.286964
 7963         c3    192    ccc     C4   7963 0.44180000  12.010000   ; qtot 0.154836
 7964         h1    192    ccc     H6   7964 0.15710000   1.008000   ; qtot 0.311936
 7965         h1    192    ccc     H7   7965 -0.03530000   1.008000   ; qtot 0.276636
 7966         h1    192    ccc     H8   7966 -0.03530000   1.008000   ; qtot 0.241336
 7967         n3    192    ccc     N2   7967 -0.74090000  14.010000   ; qtot -0.499564
 7968         c3    192    ccc     C5   7968 0.51680000  12.010000   ; qtot 0.017236
 7969         c3    192    ccc     C6   7969 0.51680000  12.010000   ; qtot 0.534036
 7970         h1    192    ccc     H9   7970 -0.05230000   1.008000   ; qtot 0.481736
 7971         c3    192    ccc     C7   7971 -0.60390000  12.010000   ; qtot -0.122164
 7972         h1    192    ccc    H10   7972 -0.05230000   1.008000   ; qtot -0.174464
 7973         hc    192    ccc    H11   7973 0.16730000   1.008000   ; qtot -0.007164
 7974         hc    192    ccc    H12   7974 0.16730000   1.008000   ; qtot 0.160136
 7975          c    192    ccc     C8   7975 0.72110000  12.010000   ; qtot 0.881236
 7976          o    192    ccc     O2   7976 -0.61950000  16.000000   ; qtot 0.261736
 7977         h1    192    ccc    H13   7977 -0.05230000   1.008000   ; qtot 0.209436
 7978         h1    192    ccc    H14   7978 -0.05230000   1.008000   ; qtot 0.157136
 7979         c3    192    ccc     C9   7979 -0.60390000  12.010000   ; qtot -0.446764
 7980         hc    192    ccc    H15   7980 0.16730000   1.008000   ; qtot -0.279464
 7981         hc    192    ccc    H16   7981 0.16730000   1.008000   ; qtot -0.112164
 7982          c    192    ccc    C10   7982 0.72110000  12.010000   ; qtot 0.608936
 7983          o    192    ccc     O4   7983 -0.61950000  16.000000   ; qtot -0.010564
 7984         c3    192    ccc    C11   7984 0.08518000  12.010000   ; qtot 0.074616
 7985         c3    192    ccc    C12   7985 0.07918000  12.010000   ; qtot 0.153796
 7986         h1    192    ccc    H17   7986 0.06978000   1.008000   ; qtot 0.223576
 7987         c3    192    ccc    C13   7987 0.07918000  12.010000   ; qtot 0.302756
 7988         c3    192    ccc    C14   7988 0.03578000  12.010000   ; qtot 0.338536
 7989         c3    192    ccc    C15   7989 0.33498000  12.010000   ; qtot 0.673516
 7990         h1    192    ccc    H18   7990 0.06178000   1.008000   ; qtot 0.735296
 7991         h1    192    ccc    H19   7991 0.11278000   1.008000   ; qtot 0.848076
 7992         h2    192    ccc    H20   7992 0.12178000   1.008000   ; qtot 0.969856
 7993         oh    192    ccc     O1   7993 -0.56972000  16.000000   ; qtot 0.400136
 7994         oh    192    ccc     O6   7994 -0.57772000  16.000000   ; qtot -0.177584
 7995         c3    192    ccc    C16   7995 0.14548000  12.010000   ; qtot -0.032104
 7996         ho    192    ccc    H21   7996 0.40508000   1.008000   ; qtot 0.372976
 7997         hn    192    ccc    H22   7997 0.31758000   1.008000   ; qtot 0.690556
 7998         h1    192    ccc    H23   7998 0.06278000   1.008000   ; qtot 0.753336
 7999         h1    192    ccc    H24   7999 0.06278000   1.008000   ; qtot 0.816116
 8000         oh    192    ccc     O7   8000 -0.59472000  16.000000   ; qtot 0.221396
 8001         ho    192    ccc    H25   8001 0.41908000   1.008000   ; qtot 0.640476
 8002         os    192    ccc     O8   8002 -0.44552000  16.000000   ; qtot 0.194956
 8003         ho    192    ccc    H26   8003 0.41908000   1.008000   ; qtot 0.614036
 8004         h1    192    ccc    H27   8004 0.08578000   1.008000   ; qtot 0.699816
 8005         oh    192    ccc     O9   8005 -0.58672000  16.000000   ; qtot 0.113096
 8006         ho    192    ccc    H28   8006 0.41908000   1.008000   ; qtot 0.532176
 8007         n3    192    ccc     N3   8007 -0.54282000  14.010000   ; qtot -0.010644
 8008         c3    192    ccc    C17   8008 0.08518000  12.010000   ; qtot 0.074536
 8009         c3    192    ccc    C18   8009 0.07918000  12.010000   ; qtot 0.153716
 8010         h1    192    ccc    H29   8010 0.06978000   1.008000   ; qtot 0.223496
 8011         c3    192    ccc    C19   8011 0.07918000  12.010000   ; qtot 0.302676
 8012         c3    192    ccc    C20   8012 0.03578000  12.010000   ; qtot 0.338456
 8013         c3    192    ccc    C21   8013 0.33498000  12.010000   ; qtot 0.673436
 8014         h1    192    ccc    H30   8014 0.06178000   1.008000   ; qtot 0.735216
 8015         h1    192    ccc    H31   8015 0.11278000   1.008000   ; qtot 0.847996
 8016         h2    192    ccc    H32   8016 0.12178000   1.008000   ; qtot 0.969776
 8017         oh    192    ccc    O10   8017 -0.56972000  16.000000   ; qtot 0.400056
 8018         oh    192    ccc    O11   8018 -0.57772000  16.000000   ; qtot -0.177664
 8019         c3    192    ccc    C22   8019 0.14548000  12.010000   ; qtot -0.032184
 8020         ho    192    ccc    H33   8020 0.40508000   1.008000   ; qtot 0.372896
 8021         hn    192    ccc    H34   8021 0.31758000   1.008000   ; qtot 0.690476
 8022         h1    192    ccc    H35   8022 0.06278000   1.008000   ; qtot 0.753256
 8023         h1    192    ccc    H36   8023 0.06278000   1.008000   ; qtot 0.816036
 8024         oh    192    ccc    O12   8024 -0.59472000  16.000000   ; qtot 0.221316
 8025         ho    192    ccc    H37   8025 0.41908000   1.008000   ; qtot 0.640396
 8026         os    192    ccc    O13   8026 -0.44552000  16.000000   ; qtot 0.194876
 8027         ho    192    ccc    H38   8027 0.41908000   1.008000   ; qtot 0.613956
 8028         h1    192    ccc    H39   8028 0.08578000   1.008000   ; qtot 0.699736
 8029         oh    192    ccc     O5   8029 -0.58672000  16.000000   ; qtot 0.113016
 8030         ho    192    ccc    H40   8030 0.41908000   1.008000   ; qtot 0.532096
 8031         n3    192    ccc     N4   8031 -0.54282000  14.010000   ; qtot -0.010724
; residue  193 ccc rtp ccc q -0.0
 8032          n    193    ccc     N1   8032 -0.46580000  14.010000   ; qtot -0.476524
 8033         hn    193    ccc     H4   8033 0.31480000   1.008000   ; qtot -0.161724
 8034         c3    193    ccc     C3   8034 -0.28250000  12.010000   ; qtot -0.444224
 8035         h1    193    ccc     H5   8035 0.15710000   1.008000   ; qtot -0.287124
 8036         c3    193    ccc     C4   8036 0.44180000  12.010000   ; qtot 0.154676
 8037         h1    193    ccc     H6   8037 0.15710000   1.008000   ; qtot 0.311776
 8038         h1    193    ccc     H7   8038 -0.03530000   1.008000   ; qtot 0.276476
 8039         h1    193    ccc     H8   8039 -0.03530000   1.008000   ; qtot 0.241176
 8040         n3    193    ccc     N2   8040 -0.74090000  14.010000   ; qtot -0.499724
 8041         c3    193    ccc     C5   8041 0.51680000  12.010000   ; qtot 0.017076
 8042         c3    193    ccc     C6   8042 0.51680000  12.010000   ; qtot 0.533876
 8043         h1    193    ccc     H9   8043 -0.05230000   1.008000   ; qtot 0.481576
 8044         c3    193    ccc     C7   8044 -0.60390000  12.010000   ; qtot -0.122324
 8045         h1    193    ccc    H10   8045 -0.05230000   1.008000   ; qtot -0.174624
 8046         hc    193    ccc    H11   8046 0.16730000   1.008000   ; qtot -0.007324
 8047         hc    193    ccc    H12   8047 0.16730000   1.008000   ; qtot 0.159976
 8048          c    193    ccc     C8   8048 0.72110000  12.010000   ; qtot 0.881076
 8049          o    193    ccc     O2   8049 -0.61950000  16.000000   ; qtot 0.261576
 8050         h1    193    ccc    H13   8050 -0.05230000   1.008000   ; qtot 0.209276
 8051         h1    193    ccc    H14   8051 -0.05230000   1.008000   ; qtot 0.156976
 8052         c3    193    ccc     C9   8052 -0.60390000  12.010000   ; qtot -0.446924
 8053         hc    193    ccc    H15   8053 0.16730000   1.008000   ; qtot -0.279624
 8054         hc    193    ccc    H16   8054 0.16730000   1.008000   ; qtot -0.112324
 8055          c    193    ccc    C10   8055 0.72110000  12.010000   ; qtot 0.608776
 8056          o    193    ccc     O4   8056 -0.61950000  16.000000   ; qtot -0.010724
 8057         c3    193    ccc    C11   8057 0.08518000  12.010000   ; qtot 0.074456
 8058         c3    193    ccc    C12   8058 0.07918000  12.010000   ; qtot 0.153636
 8059         h1    193    ccc    H17   8059 0.06978000   1.008000   ; qtot 0.223416
 8060         c3    193    ccc    C13   8060 0.07918000  12.010000   ; qtot 0.302596
 8061         c3    193    ccc    C14   8061 0.03578000  12.010000   ; qtot 0.338376
 8062         c3    193    ccc    C15   8062 0.33498000  12.010000   ; qtot 0.673356
 8063         h1    193    ccc    H18   8063 0.06178000   1.008000   ; qtot 0.735136
 8064         h1    193    ccc    H19   8064 0.11278000   1.008000   ; qtot 0.847916
 8065         h2    193    ccc    H20   8065 0.12178000   1.008000   ; qtot 0.969696
 8066         oh    193    ccc     O1   8066 -0.56972000  16.000000   ; qtot 0.399976
 8067         oh    193    ccc     O6   8067 -0.57772000  16.000000   ; qtot -0.177744
 8068         c3    193    ccc    C16   8068 0.14548000  12.010000   ; qtot -0.032264
 8069         ho    193    ccc    H21   8069 0.40508000   1.008000   ; qtot 0.372816
 8070         hn    193    ccc    H22   8070 0.31758000   1.008000   ; qtot 0.690396
 8071         h1    193    ccc    H23   8071 0.06278000   1.008000   ; qtot 0.753175
 8072         h1    193    ccc    H24   8072 0.06278000   1.008000   ; qtot 0.815955
 8073         oh    193    ccc     O7   8073 -0.59472000  16.000000   ; qtot 0.221235
 8074         ho    193    ccc    H25   8074 0.41908000   1.008000   ; qtot 0.640315
 8075         os    193    ccc     O8   8075 -0.44552000  16.000000   ; qtot 0.194795
 8076         ho    193    ccc    H26   8076 0.41908000   1.008000   ; qtot 0.613875
 8077         h1    193    ccc    H27   8077 0.08578000   1.008000   ; qtot 0.699655
 8078         oh    193    ccc     O9   8078 -0.58672000  16.000000   ; qtot 0.112935
 8079         ho    193    ccc    H28   8079 0.41908000   1.008000   ; qtot 0.532015
 8080         n3    193    ccc     N3   8080 -0.54282000  14.010000   ; qtot -0.010805
 8081         c3    193    ccc    C17   8081 0.08518000  12.010000   ; qtot 0.074375
 8082         c3    193    ccc    C18   8082 0.07918000  12.010000   ; qtot 0.153555
 8083         h1    193    ccc    H29   8083 0.06978000   1.008000   ; qtot 0.223335
 8084         c3    193    ccc    C19   8084 0.07918000  12.010000   ; qtot 0.302515
 8085         c3    193    ccc    C20   8085 0.03578000  12.010000   ; qtot 0.338295
 8086         c3    193    ccc    C21   8086 0.33498000  12.010000   ; qtot 0.673275
 8087         h1    193    ccc    H30   8087 0.06178000   1.008000   ; qtot 0.735055
 8088         h1    193    ccc    H31   8088 0.11278000   1.008000   ; qtot 0.847835
 8089         h2    193    ccc    H32   8089 0.12178000   1.008000   ; qtot 0.969615
 8090         oh    193    ccc    O10   8090 -0.56972000  16.000000   ; qtot 0.399895
 8091         oh    193    ccc    O11   8091 -0.57772000  16.000000   ; qtot -0.177825
 8092         c3    193    ccc    C22   8092 0.14548000  12.010000   ; qtot -0.032345
 8093         ho    193    ccc    H33   8093 0.40508000   1.008000   ; qtot 0.372735
 8094         hn    193    ccc    H34   8094 0.31758000   1.008000   ; qtot 0.690315
 8095         h1    193    ccc    H35   8095 0.06278000   1.008000   ; qtot 0.753095
 8096         h1    193    ccc    H36   8096 0.06278000   1.008000   ; qtot 0.815875
 8097         oh    193    ccc    O12   8097 -0.59472000  16.000000   ; qtot 0.221155
 8098         ho    193    ccc    H37   8098 0.41908000   1.008000   ; qtot 0.640235
 8099         os    193    ccc    O13   8099 -0.44552000  16.000000   ; qtot 0.194715
 8100         ho    193    ccc    H38   8100 0.41908000   1.008000   ; qtot 0.613795
 8101         h1    193    ccc    H39   8101 0.08578000   1.008000   ; qtot 0.699575
 8102         oh    193    ccc     O5   8102 -0.58672000  16.000000   ; qtot 0.112855
 8103         ho    193    ccc    H40   8103 0.41908000   1.008000   ; qtot 0.531935
 8104         n3    193    ccc     N4   8104 -0.54282000  14.010000   ; qtot -0.010885
; residue  194 ccc rtp ccc q -0.0
 8105          n    194    ccc     N1   8105 -0.46580000  14.010000   ; qtot -0.476685
 8106         hn    194    ccc     H4   8106 0.31480000   1.008000   ; qtot -0.161885
 8107         c3    194    ccc     C3   8107 -0.28250000  12.010000   ; qtot -0.444385
 8108         h1    194    ccc     H5   8108 0.15710000   1.008000   ; qtot -0.287285
 8109         c3    194    ccc     C4   8109 0.44180000  12.010000   ; qtot 0.154515
 8110         h1    194    ccc     H6   8110 0.15710000   1.008000   ; qtot 0.311615
 8111         h1    194    ccc     H7   8111 -0.03530000   1.008000   ; qtot 0.276315
 8112         h1    194    ccc     H8   8112 -0.03530000   1.008000   ; qtot 0.241015
 8113         n3    194    ccc     N2   8113 -0.74090000  14.010000   ; qtot -0.499885
 8114         c3    194    ccc     C5   8114 0.51680000  12.010000   ; qtot 0.016915
 8115         c3    194    ccc     C6   8115 0.51680000  12.010000   ; qtot 0.533715
 8116         h1    194    ccc     H9   8116 -0.05230000   1.008000   ; qtot 0.481415
 8117         c3    194    ccc     C7   8117 -0.60390000  12.010000   ; qtot -0.122485
 8118         h1    194    ccc    H10   8118 -0.05230000   1.008000   ; qtot -0.174785
 8119         hc    194    ccc    H11   8119 0.16730000   1.008000   ; qtot -0.007485
 8120         hc    194    ccc    H12   8120 0.16730000   1.008000   ; qtot 0.159815
 8121          c    194    ccc     C8   8121 0.72110000  12.010000   ; qtot 0.880915
 8122          o    194    ccc     O2   8122 -0.61950000  16.000000   ; qtot 0.261415
 8123         h1    194    ccc    H13   8123 -0.05230000   1.008000   ; qtot 0.209115
 8124         h1    194    ccc    H14   8124 -0.05230000   1.008000   ; qtot 0.156815
 8125         c3    194    ccc     C9   8125 -0.60390000  12.010000   ; qtot -0.447085
 8126         hc    194    ccc    H15   8126 0.16730000   1.008000   ; qtot -0.279785
 8127         hc    194    ccc    H16   8127 0.16730000   1.008000   ; qtot -0.112485
 8128          c    194    ccc    C10   8128 0.72110000  12.010000   ; qtot 0.608615
 8129          o    194    ccc     O4   8129 -0.61950000  16.000000   ; qtot -0.010885
 8130         c3    194    ccc    C11   8130 0.08518000  12.010000   ; qtot 0.074295
 8131         c3    194    ccc    C12   8131 0.07918000  12.010000   ; qtot 0.153475
 8132         h1    194    ccc    H17   8132 0.06978000   1.008000   ; qtot 0.223255
 8133         c3    194    ccc    C13   8133 0.07918000  12.010000   ; qtot 0.302435
 8134         c3    194    ccc    C14   8134 0.03578000  12.010000   ; qtot 0.338215
 8135         c3    194    ccc    C15   8135 0.33498000  12.010000   ; qtot 0.673195
 8136         h1    194    ccc    H18   8136 0.06178000   1.008000   ; qtot 0.734975
 8137         h1    194    ccc    H19   8137 0.11278000   1.008000   ; qtot 0.847755
 8138         h2    194    ccc    H20   8138 0.12178000   1.008000   ; qtot 0.969535
 8139         oh    194    ccc     O1   8139 -0.56972000  16.000000   ; qtot 0.399815
 8140         oh    194    ccc     O6   8140 -0.57772000  16.000000   ; qtot -0.177905
 8141         c3    194    ccc    C16   8141 0.14548000  12.010000   ; qtot -0.032425
 8142         ho    194    ccc    H21   8142 0.40508000   1.008000   ; qtot 0.372655
 8143         hn    194    ccc    H22   8143 0.31758000   1.008000   ; qtot 0.690235
 8144         h1    194    ccc    H23   8144 0.06278000   1.008000   ; qtot 0.753015
 8145         h1    194    ccc    H24   8145 0.06278000   1.008000   ; qtot 0.815795
 8146         oh    194    ccc     O7   8146 -0.59472000  16.000000   ; qtot 0.221075
 8147         ho    194    ccc    H25   8147 0.41908000   1.008000   ; qtot 0.640155
 8148         os    194    ccc     O8   8148 -0.44552000  16.000000   ; qtot 0.194635
 8149         ho    194    ccc    H26   8149 0.41908000   1.008000   ; qtot 0.613715
 8150         h1    194    ccc    H27   8150 0.08578000   1.008000   ; qtot 0.699495
 8151         oh    194    ccc     O9   8151 -0.58672000  16.000000   ; qtot 0.112775
 8152         ho    194    ccc    H28   8152 0.41908000   1.008000   ; qtot 0.531855
 8153         n3    194    ccc     N3   8153 -0.54282000  14.010000   ; qtot -0.010965
 8154         c3    194    ccc    C17   8154 0.08518000  12.010000   ; qtot 0.074215
 8155         c3    194    ccc    C18   8155 0.07918000  12.010000   ; qtot 0.153395
 8156         h1    194    ccc    H29   8156 0.06978000   1.008000   ; qtot 0.223175
 8157         c3    194    ccc    C19   8157 0.07918000  12.010000   ; qtot 0.302355
 8158         c3    194    ccc    C20   8158 0.03578000  12.010000   ; qtot 0.338135
 8159         c3    194    ccc    C21   8159 0.33498000  12.010000   ; qtot 0.673115
 8160         h1    194    ccc    H30   8160 0.06178000   1.008000   ; qtot 0.734895
 8161         h1    194    ccc    H31   8161 0.11278000   1.008000   ; qtot 0.847675
 8162         h2    194    ccc    H32   8162 0.12178000   1.008000   ; qtot 0.969455
 8163         oh    194    ccc    O10   8163 -0.56972000  16.000000   ; qtot 0.399735
 8164         oh    194    ccc    O11   8164 -0.57772000  16.000000   ; qtot -0.177985
 8165         c3    194    ccc    C22   8165 0.14548000  12.010000   ; qtot -0.032505
 8166         ho    194    ccc    H33   8166 0.40508000   1.008000   ; qtot 0.372575
 8167         hn    194    ccc    H34   8167 0.31758000   1.008000   ; qtot 0.690155
 8168         h1    194    ccc    H35   8168 0.06278000   1.008000   ; qtot 0.752935
 8169         h1    194    ccc    H36   8169 0.06278000   1.008000   ; qtot 0.815715
 8170         oh    194    ccc    O12   8170 -0.59472000  16.000000   ; qtot 0.220995
 8171         ho    194    ccc    H37   8171 0.41908000   1.008000   ; qtot 0.640075
 8172         os    194    ccc    O13   8172 -0.44552000  16.000000   ; qtot 0.194555
 8173         ho    194    ccc    H38   8173 0.41908000   1.008000   ; qtot 0.613635
 8174         h1    194    ccc    H39   8174 0.08578000   1.008000   ; qtot 0.699415
 8175         oh    194    ccc     O5   8175 -0.58672000  16.000000   ; qtot 0.112695
 8176         ho    194    ccc    H40   8176 0.41908000   1.008000   ; qtot 0.531775
 8177         n3    194    ccc     N4   8177 -0.54282000  14.010000   ; qtot -0.011045
; residue  195 ccc rtp ccc q -0.0
 8178          n    195    ccc     N1   8178 -0.46580000  14.010000   ; qtot -0.476845
 8179         hn    195    ccc     H4   8179 0.31480000   1.008000   ; qtot -0.162045
 8180         c3    195    ccc     C3   8180 -0.28250000  12.010000   ; qtot -0.444545
 8181         h1    195    ccc     H5   8181 0.15710000   1.008000   ; qtot -0.287445
 8182         c3    195    ccc     C4   8182 0.44180000  12.010000   ; qtot 0.154355
 8183         h1    195    ccc     H6   8183 0.15710000   1.008000   ; qtot 0.311455
 8184         h1    195    ccc     H7   8184 -0.03530000   1.008000   ; qtot 0.276155
 8185         h1    195    ccc     H8   8185 -0.03530000   1.008000   ; qtot 0.240855
 8186         n3    195    ccc     N2   8186 -0.74090000  14.010000   ; qtot -0.500045
 8187         c3    195    ccc     C5   8187 0.51680000  12.010000   ; qtot 0.016755
 8188         c3    195    ccc     C6   8188 0.51680000  12.010000   ; qtot 0.533555
 8189         h1    195    ccc     H9   8189 -0.05230000   1.008000   ; qtot 0.481255
 8190         c3    195    ccc     C7   8190 -0.60390000  12.010000   ; qtot -0.122645
 8191         h1    195    ccc    H10   8191 -0.05230000   1.008000   ; qtot -0.174945
 8192         hc    195    ccc    H11   8192 0.16730000   1.008000   ; qtot -0.007645
 8193         hc    195    ccc    H12   8193 0.16730000   1.008000   ; qtot 0.159655
 8194          c    195    ccc     C8   8194 0.72110000  12.010000   ; qtot 0.880755
 8195          o    195    ccc     O2   8195 -0.61950000  16.000000   ; qtot 0.261255
 8196         h1    195    ccc    H13   8196 -0.05230000   1.008000   ; qtot 0.208955
 8197         h1    195    ccc    H14   8197 -0.05230000   1.008000   ; qtot 0.156655
 8198         c3    195    ccc     C9   8198 -0.60390000  12.010000   ; qtot -0.447245
 8199         hc    195    ccc    H15   8199 0.16730000   1.008000   ; qtot -0.279945
 8200         hc    195    ccc    H16   8200 0.16730000   1.008000   ; qtot -0.112645
 8201          c    195    ccc    C10   8201 0.72110000  12.010000   ; qtot 0.608455
 8202          o    195    ccc     O4   8202 -0.61950000  16.000000   ; qtot -0.011045
 8203         c3    195    ccc    C11   8203 0.08518000  12.010000   ; qtot 0.074135
 8204         c3    195    ccc    C12   8204 0.07918000  12.010000   ; qtot 0.153315
 8205         h1    195    ccc    H17   8205 0.06978000   1.008000   ; qtot 0.223095
 8206         c3    195    ccc    C13   8206 0.07918000  12.010000   ; qtot 0.302275
 8207         c3    195    ccc    C14   8207 0.03578000  12.010000   ; qtot 0.338055
 8208         c3    195    ccc    C15   8208 0.33498000  12.010000   ; qtot 0.673035
 8209         h1    195    ccc    H18   8209 0.06178000   1.008000   ; qtot 0.734815
 8210         h1    195    ccc    H19   8210 0.11278000   1.008000   ; qtot 0.847595
 8211         h2    195    ccc    H20   8211 0.12178000   1.008000   ; qtot 0.969375
 8212         oh    195    ccc     O1   8212 -0.56972000  16.000000   ; qtot 0.399655
 8213         oh    195    ccc     O6   8213 -0.57772000  16.000000   ; qtot -0.178065
 8214         c3    195    ccc    C16   8214 0.14548000  12.010000   ; qtot -0.032585
 8215         ho    195    ccc    H21   8215 0.40508000   1.008000   ; qtot 0.372495
 8216         hn    195    ccc    H22   8216 0.31758000   1.008000   ; qtot 0.690075
 8217         h1    195    ccc    H23   8217 0.06278000   1.008000   ; qtot 0.752855
 8218         h1    195    ccc    H24   8218 0.06278000   1.008000   ; qtot 0.815635
 8219         oh    195    ccc     O7   8219 -0.59472000  16.000000   ; qtot 0.220915
 8220         ho    195    ccc    H25   8220 0.41908000   1.008000   ; qtot 0.639995
 8221         os    195    ccc     O8   8221 -0.44552000  16.000000   ; qtot 0.194475
 8222         ho    195    ccc    H26   8222 0.41908000   1.008000   ; qtot 0.613555
 8223         h1    195    ccc    H27   8223 0.08578000   1.008000   ; qtot 0.699335
 8224         oh    195    ccc     O9   8224 -0.58672000  16.000000   ; qtot 0.112615
 8225         ho    195    ccc    H28   8225 0.41908000   1.008000   ; qtot 0.531695
 8226         n3    195    ccc     N3   8226 -0.54282000  14.010000   ; qtot -0.011125
 8227         c3    195    ccc    C17   8227 0.08518000  12.010000   ; qtot 0.074055
 8228         c3    195    ccc    C18   8228 0.07918000  12.010000   ; qtot 0.153235
 8229         h1    195    ccc    H29   8229 0.06978000   1.008000   ; qtot 0.223015
 8230         c3    195    ccc    C19   8230 0.07918000  12.010000   ; qtot 0.302195
 8231         c3    195    ccc    C20   8231 0.03578000  12.010000   ; qtot 0.337975
 8232         c3    195    ccc    C21   8232 0.33498000  12.010000   ; qtot 0.672955
 8233         h1    195    ccc    H30   8233 0.06178000   1.008000   ; qtot 0.734735
 8234         h1    195    ccc    H31   8234 0.11278000   1.008000   ; qtot 0.847515
 8235         h2    195    ccc    H32   8235 0.12178000   1.008000   ; qtot 0.969295
 8236         oh    195    ccc    O10   8236 -0.56972000  16.000000   ; qtot 0.399575
 8237         oh    195    ccc    O11   8237 -0.57772000  16.000000   ; qtot -0.178145
 8238         c3    195    ccc    C22   8238 0.14548000  12.010000   ; qtot -0.032665
 8239         ho    195    ccc    H33   8239 0.40508000   1.008000   ; qtot 0.372415
 8240         hn    195    ccc    H34   8240 0.31758000   1.008000   ; qtot 0.689995
 8241         h1    195    ccc    H35   8241 0.06278000   1.008000   ; qtot 0.752775
 8242         h1    195    ccc    H36   8242 0.06278000   1.008000   ; qtot 0.815555
 8243         oh    195    ccc    O12   8243 -0.59472000  16.000000   ; qtot 0.220835
 8244         ho    195    ccc    H37   8244 0.41908000   1.008000   ; qtot 0.639915
 8245         os    195    ccc    O13   8245 -0.44552000  16.000000   ; qtot 0.194395
 8246         ho    195    ccc    H38   8246 0.41908000   1.008000   ; qtot 0.613475
 8247         h1    195    ccc    H39   8247 0.08578000   1.008000   ; qtot 0.699255
 8248         oh    195    ccc     O5   8248 -0.58672000  16.000000   ; qtot 0.112535
 8249         ho    195    ccc    H40   8249 0.41908000   1.008000   ; qtot 0.531615
 8250         n3    195    ccc     N4   8250 -0.54282000  14.010000   ; qtot -0.011205
; residue  196 ccc rtp ccc q -0.0
 8251          n    196    ccc     N1   8251 -0.46580000  14.010000   ; qtot -0.477005
 8252         hn    196    ccc     H4   8252 0.31480000   1.008000   ; qtot -0.162205
 8253         c3    196    ccc     C3   8253 -0.28250000  12.010000   ; qtot -0.444705
 8254         h1    196    ccc     H5   8254 0.15710000   1.008000   ; qtot -0.287605
 8255         c3    196    ccc     C4   8255 0.44180000  12.010000   ; qtot 0.154195
 8256         h1    196    ccc     H6   8256 0.15710000   1.008000   ; qtot 0.311295
 8257         h1    196    ccc     H7   8257 -0.03530000   1.008000   ; qtot 0.275995
 8258         h1    196    ccc     H8   8258 -0.03530000   1.008000   ; qtot 0.240695
 8259         n3    196    ccc     N2   8259 -0.74090000  14.010000   ; qtot -0.500205
 8260         c3    196    ccc     C5   8260 0.51680000  12.010000   ; qtot 0.016595
 8261         c3    196    ccc     C6   8261 0.51680000  12.010000   ; qtot 0.533395
 8262         h1    196    ccc     H9   8262 -0.05230000   1.008000   ; qtot 0.481095
 8263         c3    196    ccc     C7   8263 -0.60390000  12.010000   ; qtot -0.122805
 8264         h1    196    ccc    H10   8264 -0.05230000   1.008000   ; qtot -0.175105
 8265         hc    196    ccc    H11   8265 0.16730000   1.008000   ; qtot -0.007805
 8266         hc    196    ccc    H12   8266 0.16730000   1.008000   ; qtot 0.159495
 8267          c    196    ccc     C8   8267 0.72110000  12.010000   ; qtot 0.880595
 8268          o    196    ccc     O2   8268 -0.61950000  16.000000   ; qtot 0.261095
 8269         h1    196    ccc    H13   8269 -0.05230000   1.008000   ; qtot 0.208795
 8270         h1    196    ccc    H14   8270 -0.05230000   1.008000   ; qtot 0.156495
 8271         c3    196    ccc     C9   8271 -0.60390000  12.010000   ; qtot -0.447405
 8272         hc    196    ccc    H15   8272 0.16730000   1.008000   ; qtot -0.280105
 8273         hc    196    ccc    H16   8273 0.16730000   1.008000   ; qtot -0.112805
 8274          c    196    ccc    C10   8274 0.72110000  12.010000   ; qtot 0.608295
 8275          o    196    ccc     O4   8275 -0.61950000  16.000000   ; qtot -0.011205
 8276         c3    196    ccc    C11   8276 0.08518000  12.010000   ; qtot 0.073975
 8277         c3    196    ccc    C12   8277 0.07918000  12.010000   ; qtot 0.153155
 8278         h1    196    ccc    H17   8278 0.06978000   1.008000   ; qtot 0.222935
 8279         c3    196    ccc    C13   8279 0.07918000  12.010000   ; qtot 0.302115
 8280         c3    196    ccc    C14   8280 0.03578000  12.010000   ; qtot 0.337895
 8281         c3    196    ccc    C15   8281 0.33498000  12.010000   ; qtot 0.672875
 8282         h1    196    ccc    H18   8282 0.06178000   1.008000   ; qtot 0.734655
 8283         h1    196    ccc    H19   8283 0.11278000   1.008000   ; qtot 0.847435
 8284         h2    196    ccc    H20   8284 0.12178000   1.008000   ; qtot 0.969215
 8285         oh    196    ccc     O1   8285 -0.56972000  16.000000   ; qtot 0.399495
 8286         oh    196    ccc     O6   8286 -0.57772000  16.000000   ; qtot -0.178225
 8287         c3    196    ccc    C16   8287 0.14548000  12.010000   ; qtot -0.032745
 8288         ho    196    ccc    H21   8288 0.40508000   1.008000   ; qtot 0.372335
 8289         hn    196    ccc    H22   8289 0.31758000   1.008000   ; qtot 0.689915
 8290         h1    196    ccc    H23   8290 0.06278000   1.008000   ; qtot 0.752695
 8291         h1    196    ccc    H24   8291 0.06278000   1.008000   ; qtot 0.815475
 8292         oh    196    ccc     O7   8292 -0.59472000  16.000000   ; qtot 0.220755
 8293         ho    196    ccc    H25   8293 0.41908000   1.008000   ; qtot 0.639835
 8294         os    196    ccc     O8   8294 -0.44552000  16.000000   ; qtot 0.194315
 8295         ho    196    ccc    H26   8295 0.41908000   1.008000   ; qtot 0.613395
 8296         h1    196    ccc    H27   8296 0.08578000   1.008000   ; qtot 0.699175
 8297         oh    196    ccc     O9   8297 -0.58672000  16.000000   ; qtot 0.112455
 8298         ho    196    ccc    H28   8298 0.41908000   1.008000   ; qtot 0.531535
 8299         n3    196    ccc     N3   8299 -0.54282000  14.010000   ; qtot -0.011285
 8300         c3    196    ccc    C17   8300 0.08518000  12.010000   ; qtot 0.073895
 8301         c3    196    ccc    C18   8301 0.07918000  12.010000   ; qtot 0.153075
 8302         h1    196    ccc    H29   8302 0.06978000   1.008000   ; qtot 0.222855
 8303         c3    196    ccc    C19   8303 0.07918000  12.010000   ; qtot 0.302035
 8304         c3    196    ccc    C20   8304 0.03578000  12.010000   ; qtot 0.337815
 8305         c3    196    ccc    C21   8305 0.33498000  12.010000   ; qtot 0.672795
 8306         h1    196    ccc    H30   8306 0.06178000   1.008000   ; qtot 0.734575
 8307         h1    196    ccc    H31   8307 0.11278000   1.008000   ; qtot 0.847355
 8308         h2    196    ccc    H32   8308 0.12178000   1.008000   ; qtot 0.969135
 8309         oh    196    ccc    O10   8309 -0.56972000  16.000000   ; qtot 0.399415
 8310         oh    196    ccc    O11   8310 -0.57772000  16.000000   ; qtot -0.178305
 8311         c3    196    ccc    C22   8311 0.14548000  12.010000   ; qtot -0.032825
 8312         ho    196    ccc    H33   8312 0.40508000   1.008000   ; qtot 0.372255
 8313         hn    196    ccc    H34   8313 0.31758000   1.008000   ; qtot 0.689835
 8314         h1    196    ccc    H35   8314 0.06278000   1.008000   ; qtot 0.752615
 8315         h1    196    ccc    H36   8315 0.06278000   1.008000   ; qtot 0.815395
 8316         oh    196    ccc    O12   8316 -0.59472000  16.000000   ; qtot 0.220675
 8317         ho    196    ccc    H37   8317 0.41908000   1.008000   ; qtot 0.639755
 8318         os    196    ccc    O13   8318 -0.44552000  16.000000   ; qtot 0.194235
 8319         ho    196    ccc    H38   8319 0.41908000   1.008000   ; qtot 0.613315
 8320         h1    196    ccc    H39   8320 0.08578000   1.008000   ; qtot 0.699095
 8321         oh    196    ccc     O5   8321 -0.58672000  16.000000   ; qtot 0.112375
 8322         ho    196    ccc    H40   8322 0.41908000   1.008000   ; qtot 0.531455
 8323         n3    196    ccc     N4   8323 -0.54282000  14.010000   ; qtot -0.011365
; residue  197 ccc rtp ccc q -0.0
 8324          n    197    ccc     N1   8324 -0.46580000  14.010000   ; qtot -0.477165
 8325         hn    197    ccc     H4   8325 0.31480000   1.008000   ; qtot -0.162365
 8326         c3    197    ccc     C3   8326 -0.28250000  12.010000   ; qtot -0.444865
 8327         h1    197    ccc     H5   8327 0.15710000   1.008000   ; qtot -0.287765
 8328         c3    197    ccc     C4   8328 0.44180000  12.010000   ; qtot 0.154035
 8329         h1    197    ccc     H6   8329 0.15710000   1.008000   ; qtot 0.311135
 8330         h1    197    ccc     H7   8330 -0.03530000   1.008000   ; qtot 0.275835
 8331         h1    197    ccc     H8   8331 -0.03530000   1.008000   ; qtot 0.240535
 8332         n3    197    ccc     N2   8332 -0.74090000  14.010000   ; qtot -0.500365
 8333         c3    197    ccc     C5   8333 0.51680000  12.010000   ; qtot 0.016435
 8334         c3    197    ccc     C6   8334 0.51680000  12.010000   ; qtot 0.533235
 8335         h1    197    ccc     H9   8335 -0.05230000   1.008000   ; qtot 0.480935
 8336         c3    197    ccc     C7   8336 -0.60390000  12.010000   ; qtot -0.122965
 8337         h1    197    ccc    H10   8337 -0.05230000   1.008000   ; qtot -0.175265
 8338         hc    197    ccc    H11   8338 0.16730000   1.008000   ; qtot -0.007965
 8339         hc    197    ccc    H12   8339 0.16730000   1.008000   ; qtot 0.159335
 8340          c    197    ccc     C8   8340 0.72110000  12.010000   ; qtot 0.880435
 8341          o    197    ccc     O2   8341 -0.61950000  16.000000   ; qtot 0.260935
 8342         h1    197    ccc    H13   8342 -0.05230000   1.008000   ; qtot 0.208635
 8343         h1    197    ccc    H14   8343 -0.05230000   1.008000   ; qtot 0.156335
 8344         c3    197    ccc     C9   8344 -0.60390000  12.010000   ; qtot -0.447565
 8345         hc    197    ccc    H15   8345 0.16730000   1.008000   ; qtot -0.280265
 8346         hc    197    ccc    H16   8346 0.16730000   1.008000   ; qtot -0.112965
 8347          c    197    ccc    C10   8347 0.72110000  12.010000   ; qtot 0.608135
 8348          o    197    ccc     O4   8348 -0.61950000  16.000000   ; qtot -0.011365
 8349         c3    197    ccc    C11   8349 0.08518000  12.010000   ; qtot 0.073815
 8350         c3    197    ccc    C12   8350 0.07918000  12.010000   ; qtot 0.152995
 8351         h1    197    ccc    H17   8351 0.06978000   1.008000   ; qtot 0.222775
 8352         c3    197    ccc    C13   8352 0.07918000  12.010000   ; qtot 0.301955
 8353         c3    197    ccc    C14   8353 0.03578000  12.010000   ; qtot 0.337735
 8354         c3    197    ccc    C15   8354 0.33498000  12.010000   ; qtot 0.672715
 8355         h1    197    ccc    H18   8355 0.06178000   1.008000   ; qtot 0.734495
 8356         h1    197    ccc    H19   8356 0.11278000   1.008000   ; qtot 0.847275
 8357         h2    197    ccc    H20   8357 0.12178000   1.008000   ; qtot 0.969055
 8358         oh    197    ccc     O1   8358 -0.56972000  16.000000   ; qtot 0.399335
 8359         oh    197    ccc     O6   8359 -0.57772000  16.000000   ; qtot -0.178385
 8360         c3    197    ccc    C16   8360 0.14548000  12.010000   ; qtot -0.032905
 8361         ho    197    ccc    H21   8361 0.40508000   1.008000   ; qtot 0.372175
 8362         hn    197    ccc    H22   8362 0.31758000   1.008000   ; qtot 0.689755
 8363         h1    197    ccc    H23   8363 0.06278000   1.008000   ; qtot 0.752535
 8364         h1    197    ccc    H24   8364 0.06278000   1.008000   ; qtot 0.815315
 8365         oh    197    ccc     O7   8365 -0.59472000  16.000000   ; qtot 0.220595
 8366         ho    197    ccc    H25   8366 0.41908000   1.008000   ; qtot 0.639675
 8367         os    197    ccc     O8   8367 -0.44552000  16.000000   ; qtot 0.194155
 8368         ho    197    ccc    H26   8368 0.41908000   1.008000   ; qtot 0.613235
 8369         h1    197    ccc    H27   8369 0.08578000   1.008000   ; qtot 0.699015
 8370         oh    197    ccc     O9   8370 -0.58672000  16.000000   ; qtot 0.112295
 8371         ho    197    ccc    H28   8371 0.41908000   1.008000   ; qtot 0.531375
 8372         n3    197    ccc     N3   8372 -0.54282000  14.010000   ; qtot -0.011445
 8373         c3    197    ccc    C17   8373 0.08518000  12.010000   ; qtot 0.073735
 8374         c3    197    ccc    C18   8374 0.07918000  12.010000   ; qtot 0.152915
 8375         h1    197    ccc    H29   8375 0.06978000   1.008000   ; qtot 0.222695
 8376         c3    197    ccc    C19   8376 0.07918000  12.010000   ; qtot 0.301875
 8377         c3    197    ccc    C20   8377 0.03578000  12.010000   ; qtot 0.337655
 8378         c3    197    ccc    C21   8378 0.33498000  12.010000   ; qtot 0.672635
 8379         h1    197    ccc    H30   8379 0.06178000   1.008000   ; qtot 0.734415
 8380         h1    197    ccc    H31   8380 0.11278000   1.008000   ; qtot 0.847195
 8381         h2    197    ccc    H32   8381 0.12178000   1.008000   ; qtot 0.968975
 8382         oh    197    ccc    O10   8382 -0.56972000  16.000000   ; qtot 0.399255
 8383         oh    197    ccc    O11   8383 -0.57772000  16.000000   ; qtot -0.178465
 8384         c3    197    ccc    C22   8384 0.14548000  12.010000   ; qtot -0.032985
 8385         ho    197    ccc    H33   8385 0.40508000   1.008000   ; qtot 0.372095
 8386         hn    197    ccc    H34   8386 0.31758000   1.008000   ; qtot 0.689675
 8387         h1    197    ccc    H35   8387 0.06278000   1.008000   ; qtot 0.752455
 8388         h1    197    ccc    H36   8388 0.06278000   1.008000   ; qtot 0.815235
 8389         oh    197    ccc    O12   8389 -0.59472000  16.000000   ; qtot 0.220515
 8390         ho    197    ccc    H37   8390 0.41908000   1.008000   ; qtot 0.639595
 8391         os    197    ccc    O13   8391 -0.44552000  16.000000   ; qtot 0.194075
 8392         ho    197    ccc    H38   8392 0.41908000   1.008000   ; qtot 0.613155
 8393         h1    197    ccc    H39   8393 0.08578000   1.008000   ; qtot 0.698935
 8394         oh    197    ccc     O5   8394 -0.58672000  16.000000   ; qtot 0.112215
 8395         ho    197    ccc    H40   8395 0.41908000   1.008000   ; qtot 0.531295
 8396         n3    197    ccc     N4   8396 -0.54282000  14.010000   ; qtot -0.011525
; residue  198 ccc rtp ccc q -0.0
 8397          n    198    ccc     N1   8397 -0.46580000  14.010000   ; qtot -0.477325
 8398         hn    198    ccc     H4   8398 0.31480000   1.008000   ; qtot -0.162525
 8399         c3    198    ccc     C3   8399 -0.28250000  12.010000   ; qtot -0.445025
 8400         h1    198    ccc     H5   8400 0.15710000   1.008000   ; qtot -0.287925
 8401         c3    198    ccc     C4   8401 0.44180000  12.010000   ; qtot 0.153875
 8402         h1    198    ccc     H6   8402 0.15710000   1.008000   ; qtot 0.310975
 8403         h1    198    ccc     H7   8403 -0.03530000   1.008000   ; qtot 0.275675
 8404         h1    198    ccc     H8   8404 -0.03530000   1.008000   ; qtot 0.240375
 8405         n3    198    ccc     N2   8405 -0.74090000  14.010000   ; qtot -0.500525
 8406         c3    198    ccc     C5   8406 0.51680000  12.010000   ; qtot 0.016275
 8407         c3    198    ccc     C6   8407 0.51680000  12.010000   ; qtot 0.533075
 8408         h1    198    ccc     H9   8408 -0.05230000   1.008000   ; qtot 0.480775
 8409         c3    198    ccc     C7   8409 -0.60390000  12.010000   ; qtot -0.123125
 8410         h1    198    ccc    H10   8410 -0.05230000   1.008000   ; qtot -0.175425
 8411         hc    198    ccc    H11   8411 0.16730000   1.008000   ; qtot -0.008125
 8412         hc    198    ccc    H12   8412 0.16730000   1.008000   ; qtot 0.159175
 8413          c    198    ccc     C8   8413 0.72110000  12.010000   ; qtot 0.880275
 8414          o    198    ccc     O2   8414 -0.61950000  16.000000   ; qtot 0.260775
 8415         h1    198    ccc    H13   8415 -0.05230000   1.008000   ; qtot 0.208475
 8416         h1    198    ccc    H14   8416 -0.05230000   1.008000   ; qtot 0.156175
 8417         c3    198    ccc     C9   8417 -0.60390000  12.010000   ; qtot -0.447725
 8418         hc    198    ccc    H15   8418 0.16730000   1.008000   ; qtot -0.280425
 8419         hc    198    ccc    H16   8419 0.16730000   1.008000   ; qtot -0.113125
 8420          c    198    ccc    C10   8420 0.72110000  12.010000   ; qtot 0.607975
 8421          o    198    ccc     O4   8421 -0.61950000  16.000000   ; qtot -0.011525
 8422         c3    198    ccc    C11   8422 0.08518000  12.010000   ; qtot 0.073655
 8423         c3    198    ccc    C12   8423 0.07918000  12.010000   ; qtot 0.152835
 8424         h1    198    ccc    H17   8424 0.06978000   1.008000   ; qtot 0.222615
 8425         c3    198    ccc    C13   8425 0.07918000  12.010000   ; qtot 0.301795
 8426         c3    198    ccc    C14   8426 0.03578000  12.010000   ; qtot 0.337575
 8427         c3    198    ccc    C15   8427 0.33498000  12.010000   ; qtot 0.672555
 8428         h1    198    ccc    H18   8428 0.06178000   1.008000   ; qtot 0.734335
 8429         h1    198    ccc    H19   8429 0.11278000   1.008000   ; qtot 0.847115
 8430         h2    198    ccc    H20   8430 0.12178000   1.008000   ; qtot 0.968895
 8431         oh    198    ccc     O1   8431 -0.56972000  16.000000   ; qtot 0.399175
 8432         oh    198    ccc     O6   8432 -0.57772000  16.000000   ; qtot -0.178545
 8433         c3    198    ccc    C16   8433 0.14548000  12.010000   ; qtot -0.033065
 8434         ho    198    ccc    H21   8434 0.40508000   1.008000   ; qtot 0.372015
 8435         hn    198    ccc    H22   8435 0.31758000   1.008000   ; qtot 0.689595
 8436         h1    198    ccc    H23   8436 0.06278000   1.008000   ; qtot 0.752375
 8437         h1    198    ccc    H24   8437 0.06278000   1.008000   ; qtot 0.815155
 8438         oh    198    ccc     O7   8438 -0.59472000  16.000000   ; qtot 0.220435
 8439         ho    198    ccc    H25   8439 0.41908000   1.008000   ; qtot 0.639515
 8440         os    198    ccc     O8   8440 -0.44552000  16.000000   ; qtot 0.193995
 8441         ho    198    ccc    H26   8441 0.41908000   1.008000   ; qtot 0.613075
 8442         h1    198    ccc    H27   8442 0.08578000   1.008000   ; qtot 0.698855
 8443         oh    198    ccc     O9   8443 -0.58672000  16.000000   ; qtot 0.112135
 8444         ho    198    ccc    H28   8444 0.41908000   1.008000   ; qtot 0.531215
 8445         n3    198    ccc     N3   8445 -0.54282000  14.010000   ; qtot -0.011605
 8446         c3    198    ccc    C17   8446 0.08518000  12.010000   ; qtot 0.073575
 8447         c3    198    ccc    C18   8447 0.07918000  12.010000   ; qtot 0.152755
 8448         h1    198    ccc    H29   8448 0.06978000   1.008000   ; qtot 0.222535
 8449         c3    198    ccc    C19   8449 0.07918000  12.010000   ; qtot 0.301715
 8450         c3    198    ccc    C20   8450 0.03578000  12.010000   ; qtot 0.337495
 8451         c3    198    ccc    C21   8451 0.33498000  12.010000   ; qtot 0.672475
 8452         h1    198    ccc    H30   8452 0.06178000   1.008000   ; qtot 0.734255
 8453         h1    198    ccc    H31   8453 0.11278000   1.008000   ; qtot 0.847035
 8454         h2    198    ccc    H32   8454 0.12178000   1.008000   ; qtot 0.968815
 8455         oh    198    ccc    O10   8455 -0.56972000  16.000000   ; qtot 0.399095
 8456         oh    198    ccc    O11   8456 -0.57772000  16.000000   ; qtot -0.178625
 8457         c3    198    ccc    C22   8457 0.14548000  12.010000   ; qtot -0.033145
 8458         ho    198    ccc    H33   8458 0.40508000   1.008000   ; qtot 0.371935
 8459         hn    198    ccc    H34   8459 0.31758000   1.008000   ; qtot 0.689515
 8460         h1    198    ccc    H35   8460 0.06278000   1.008000   ; qtot 0.752295
 8461         h1    198    ccc    H36   8461 0.06278000   1.008000   ; qtot 0.815075
 8462         oh    198    ccc    O12   8462 -0.59472000  16.000000   ; qtot 0.220355
 8463         ho    198    ccc    H37   8463 0.41908000   1.008000   ; qtot 0.639435
 8464         os    198    ccc    O13   8464 -0.44552000  16.000000   ; qtot 0.193915
 8465         ho    198    ccc    H38   8465 0.41908000   1.008000   ; qtot 0.612995
 8466         h1    198    ccc    H39   8466 0.08578000   1.008000   ; qtot 0.698775
 8467         oh    198    ccc     O5   8467 -0.58672000  16.000000   ; qtot 0.112055
 8468         ho    198    ccc    H40   8468 0.41908000   1.008000   ; qtot 0.531135
 8469         n3    198    ccc     N4   8469 -0.54282000  14.010000   ; qtot -0.011685
; residue  199 ccc rtp ccc q -0.0
 8470          n    199    ccc     N1   8470 -0.46580000  14.010000   ; qtot -0.477485
 8471         hn    199    ccc     H4   8471 0.31480000   1.008000   ; qtot -0.162685
 8472         c3    199    ccc     C3   8472 -0.28250000  12.010000   ; qtot -0.445185
 8473         h1    199    ccc     H5   8473 0.15710000   1.008000   ; qtot -0.288085
 8474         c3    199    ccc     C4   8474 0.44180000  12.010000   ; qtot 0.153715
 8475         h1    199    ccc     H6   8475 0.15710000   1.008000   ; qtot 0.310815
 8476         h1    199    ccc     H7   8476 -0.03530000   1.008000   ; qtot 0.275515
 8477         h1    199    ccc     H8   8477 -0.03530000   1.008000   ; qtot 0.240215
 8478         n3    199    ccc     N2   8478 -0.74090000  14.010000   ; qtot -0.500685
 8479         c3    199    ccc     C5   8479 0.51680000  12.010000   ; qtot 0.016115
 8480         c3    199    ccc     C6   8480 0.51680000  12.010000   ; qtot 0.532915
 8481         h1    199    ccc     H9   8481 -0.05230000   1.008000   ; qtot 0.480615
 8482         c3    199    ccc     C7   8482 -0.60390000  12.010000   ; qtot -0.123285
 8483         h1    199    ccc    H10   8483 -0.05230000   1.008000   ; qtot -0.175585
 8484         hc    199    ccc    H11   8484 0.16730000   1.008000   ; qtot -0.008285
 8485         hc    199    ccc    H12   8485 0.16730000   1.008000   ; qtot 0.159015
 8486          c    199    ccc     C8   8486 0.72110000  12.010000   ; qtot 0.880115
 8487          o    199    ccc     O2   8487 -0.61950000  16.000000   ; qtot 0.260615
 8488         h1    199    ccc    H13   8488 -0.05230000   1.008000   ; qtot 0.208315
 8489         h1    199    ccc    H14   8489 -0.05230000   1.008000   ; qtot 0.156015
 8490         c3    199    ccc     C9   8490 -0.60390000  12.010000   ; qtot -0.447885
 8491         hc    199    ccc    H15   8491 0.16730000   1.008000   ; qtot -0.280585
 8492         hc    199    ccc    H16   8492 0.16730000   1.008000   ; qtot -0.113285
 8493          c    199    ccc    C10   8493 0.72110000  12.010000   ; qtot 0.607815
 8494          o    199    ccc     O4   8494 -0.61950000  16.000000   ; qtot -0.011685
 8495         c3    199    ccc    C11   8495 0.08518000  12.010000   ; qtot 0.073495
 8496         c3    199    ccc    C12   8496 0.07918000  12.010000   ; qtot 0.152675
 8497         h1    199    ccc    H17   8497 0.06978000   1.008000   ; qtot 0.222455
 8498         c3    199    ccc    C13   8498 0.07918000  12.010000   ; qtot 0.301635
 8499         c3    199    ccc    C14   8499 0.03578000  12.010000   ; qtot 0.337415
 8500         c3    199    ccc    C15   8500 0.33498000  12.010000   ; qtot 0.672395
 8501         h1    199    ccc    H18   8501 0.06178000   1.008000   ; qtot 0.734175
 8502         h1    199    ccc    H19   8502 0.11278000   1.008000   ; qtot 0.846955
 8503         h2    199    ccc    H20   8503 0.12178000   1.008000   ; qtot 0.968735
 8504         oh    199    ccc     O1   8504 -0.56972000  16.000000   ; qtot 0.399015
 8505         oh    199    ccc     O6   8505 -0.57772000  16.000000   ; qtot -0.178705
 8506         c3    199    ccc    C16   8506 0.14548000  12.010000   ; qtot -0.033225
 8507         ho    199    ccc    H21   8507 0.40508000   1.008000   ; qtot 0.371855
 8508         hn    199    ccc    H22   8508 0.31758000   1.008000   ; qtot 0.689435
 8509         h1    199    ccc    H23   8509 0.06278000   1.008000   ; qtot 0.752215
 8510         h1    199    ccc    H24   8510 0.06278000   1.008000   ; qtot 0.814995
 8511         oh    199    ccc     O7   8511 -0.59472000  16.000000   ; qtot 0.220275
 8512         ho    199    ccc    H25   8512 0.41908000   1.008000   ; qtot 0.639355
 8513         os    199    ccc     O8   8513 -0.44552000  16.000000   ; qtot 0.193835
 8514         ho    199    ccc    H26   8514 0.41908000   1.008000   ; qtot 0.612915
 8515         h1    199    ccc    H27   8515 0.08578000   1.008000   ; qtot 0.698695
 8516         oh    199    ccc     O9   8516 -0.58672000  16.000000   ; qtot 0.111975
 8517         ho    199    ccc    H28   8517 0.41908000   1.008000   ; qtot 0.531055
 8518         n3    199    ccc     N3   8518 -0.54282000  14.010000   ; qtot -0.011765
 8519         c3    199    ccc    C17   8519 0.08518000  12.010000   ; qtot 0.073415
 8520         c3    199    ccc    C18   8520 0.07918000  12.010000   ; qtot 0.152595
 8521         h1    199    ccc    H29   8521 0.06978000   1.008000   ; qtot 0.222375
 8522         c3    199    ccc    C19   8522 0.07918000  12.010000   ; qtot 0.301555
 8523         c3    199    ccc    C20   8523 0.03578000  12.010000   ; qtot 0.337335
 8524         c3    199    ccc    C21   8524 0.33498000  12.010000   ; qtot 0.672315
 8525         h1    199    ccc    H30   8525 0.06178000   1.008000   ; qtot 0.734095
 8526         h1    199    ccc    H31   8526 0.11278000   1.008000   ; qtot 0.846875
 8527         h2    199    ccc    H32   8527 0.12178000   1.008000   ; qtot 0.968655
 8528         oh    199    ccc    O10   8528 -0.56972000  16.000000   ; qtot 0.398935
 8529         oh    199    ccc    O11   8529 -0.57772000  16.000000   ; qtot -0.178785
 8530         c3    199    ccc    C22   8530 0.14548000  12.010000   ; qtot -0.033305
 8531         ho    199    ccc    H33   8531 0.40508000   1.008000   ; qtot 0.371775
 8532         hn    199    ccc    H34   8532 0.31758000   1.008000   ; qtot 0.689355
 8533         h1    199    ccc    H35   8533 0.06278000   1.008000   ; qtot 0.752135
 8534         h1    199    ccc    H36   8534 0.06278000   1.008000   ; qtot 0.814915
 8535         oh    199    ccc    O12   8535 -0.59472000  16.000000   ; qtot 0.220195
 8536         ho    199    ccc    H37   8536 0.41908000   1.008000   ; qtot 0.639275
 8537         os    199    ccc    O13   8537 -0.44552000  16.000000   ; qtot 0.193755
 8538         ho    199    ccc    H38   8538 0.41908000   1.008000   ; qtot 0.612835
 8539         h1    199    ccc    H39   8539 0.08578000   1.008000   ; qtot 0.698615
 8540         oh    199    ccc     O5   8540 -0.58672000  16.000000   ; qtot 0.111895
 8541         ho    199    ccc    H40   8541 0.41908000   1.008000   ; qtot 0.530975
 8542         n3    199    ccc     N4   8542 -0.54282000  14.010000   ; qtot -0.011845
; residue  200 ccc rtp ccc q -0.0
 8543          n    200    ccc     N1   8543 -0.46580000  14.010000   ; qtot -0.477645
 8544         hn    200    ccc     H4   8544 0.31480000   1.008000   ; qtot -0.162845
 8545         c3    200    ccc     C3   8545 -0.28250000  12.010000   ; qtot -0.445345
 8546         h1    200    ccc     H5   8546 0.15710000   1.008000   ; qtot -0.288245
 8547         c3    200    ccc     C4   8547 0.44180000  12.010000   ; qtot 0.153555
 8548         h1    200    ccc     H6   8548 0.15710000   1.008000   ; qtot 0.310655
 8549         h1    200    ccc     H7   8549 -0.03530000   1.008000   ; qtot 0.275355
 8550         h1    200    ccc     H8   8550 -0.03530000   1.008000   ; qtot 0.240055
 8551         n3    200    ccc     N2   8551 -0.74090000  14.010000   ; qtot -0.500845
 8552         c3    200    ccc     C5   8552 0.51680000  12.010000   ; qtot 0.015955
 8553         c3    200    ccc     C6   8553 0.51680000  12.010000   ; qtot 0.532755
 8554         h1    200    ccc     H9   8554 -0.05230000   1.008000   ; qtot 0.480455
 8555         c3    200    ccc     C7   8555 -0.60390000  12.010000   ; qtot -0.123445
 8556         h1    200    ccc    H10   8556 -0.05230000   1.008000   ; qtot -0.175745
 8557         hc    200    ccc    H11   8557 0.16730000   1.008000   ; qtot -0.008445
 8558         hc    200    ccc    H12   8558 0.16730000   1.008000   ; qtot 0.158855
 8559          c    200    ccc     C8   8559 0.72110000  12.010000   ; qtot 0.879955
 8560          o    200    ccc     O2   8560 -0.61950000  16.000000   ; qtot 0.260455
 8561         h1    200    ccc    H13   8561 -0.05230000   1.008000   ; qtot 0.208155
 8562         h1    200    ccc    H14   8562 -0.05230000   1.008000   ; qtot 0.155855
 8563         c3    200    ccc     C9   8563 -0.60390000  12.010000   ; qtot -0.448045
 8564         hc    200    ccc    H15   8564 0.16730000   1.008000   ; qtot -0.280745
 8565         hc    200    ccc    H16   8565 0.16730000   1.008000   ; qtot -0.113445
 8566          c    200    ccc    C10   8566 0.72110000  12.010000   ; qtot 0.607655
 8567          o    200    ccc     O4   8567 -0.61950000  16.000000   ; qtot -0.011845
 8568         c3    200    ccc    C11   8568 0.08518000  12.010000   ; qtot 0.073335
 8569         c3    200    ccc    C12   8569 0.07918000  12.010000   ; qtot 0.152515
 8570         h1    200    ccc    H17   8570 0.06978000   1.008000   ; qtot 0.222295
 8571         c3    200    ccc    C13   8571 0.07918000  12.010000   ; qtot 0.301475
 8572         c3    200    ccc    C14   8572 0.03578000  12.010000   ; qtot 0.337255
 8573         c3    200    ccc    C15   8573 0.33498000  12.010000   ; qtot 0.672235
 8574         h1    200    ccc    H18   8574 0.06178000   1.008000   ; qtot 0.734015
 8575         h1    200    ccc    H19   8575 0.11278000   1.008000   ; qtot 0.846795
 8576         h2    200    ccc    H20   8576 0.12178000   1.008000   ; qtot 0.968575
 8577         oh    200    ccc     O1   8577 -0.56972000  16.000000   ; qtot 0.398855
 8578         oh    200    ccc     O6   8578 -0.57772000  16.000000   ; qtot -0.178865
 8579         c3    200    ccc    C16   8579 0.14548000  12.010000   ; qtot -0.033385
 8580         ho    200    ccc    H21   8580 0.40508000   1.008000   ; qtot 0.371695
 8581         hn    200    ccc    H22   8581 0.31758000   1.008000   ; qtot 0.689275
 8582         h1    200    ccc    H23   8582 0.06278000   1.008000   ; qtot 0.752055
 8583         h1    200    ccc    H24   8583 0.06278000   1.008000   ; qtot 0.814835
 8584         oh    200    ccc     O7   8584 -0.59472000  16.000000   ; qtot 0.220115
 8585         ho    200    ccc    H25   8585 0.41908000   1.008000   ; qtot 0.639195
 8586         os    200    ccc     O8   8586 -0.44552000  16.000000   ; qtot 0.193675
 8587         ho    200    ccc    H26   8587 0.41908000   1.008000   ; qtot 0.612755
 8588         h1    200    ccc    H27   8588 0.08578000   1.008000   ; qtot 0.698535
 8589         oh    200    ccc     O9   8589 -0.58672000  16.000000   ; qtot 0.111815
 8590         ho    200    ccc    H28   8590 0.41908000   1.008000   ; qtot 0.530895
 8591         n3    200    ccc     N3   8591 -0.54282000  14.010000   ; qtot -0.011925
 8592         c3    200    ccc    C17   8592 0.08518000  12.010000   ; qtot 0.073255
 8593         c3    200    ccc    C18   8593 0.07918000  12.010000   ; qtot 0.152435
 8594         h1    200    ccc    H29   8594 0.06978000   1.008000   ; qtot 0.222215
 8595         c3    200    ccc    C19   8595 0.07918000  12.010000   ; qtot 0.301395
 8596         c3    200    ccc    C20   8596 0.03578000  12.010000   ; qtot 0.337175
 8597         c3    200    ccc    C21   8597 0.33498000  12.010000   ; qtot 0.672155
 8598         h1    200    ccc    H30   8598 0.06178000   1.008000   ; qtot 0.733935
 8599         h1    200    ccc    H31   8599 0.11278000   1.008000   ; qtot 0.846715
 8600         h2    200    ccc    H32   8600 0.12178000   1.008000   ; qtot 0.968495
 8601         oh    200    ccc    O10   8601 -0.56972000  16.000000   ; qtot 0.398775
 8602         oh    200    ccc    O11   8602 -0.57772000  16.000000   ; qtot -0.178945
 8603         c3    200    ccc    C22   8603 0.14548000  12.010000   ; qtot -0.033465
 8604         ho    200    ccc    H33   8604 0.40508000   1.008000   ; qtot 0.371615
 8605         hn    200    ccc    H34   8605 0.31758000   1.008000   ; qtot 0.689195
 8606         h1    200    ccc    H35   8606 0.06278000   1.008000   ; qtot 0.751975
 8607         h1    200    ccc    H36   8607 0.06278000   1.008000   ; qtot 0.814755
 8608         oh    200    ccc    O12   8608 -0.59472000  16.000000   ; qtot 0.220035
 8609         ho    200    ccc    H37   8609 0.41908000   1.008000   ; qtot 0.639115
 8610         os    200    ccc    O13   8610 -0.44552000  16.000000   ; qtot 0.193595
 8611         ho    200    ccc    H38   8611 0.41908000   1.008000   ; qtot 0.612675
 8612         h1    200    ccc    H39   8612 0.08578000   1.008000   ; qtot 0.698455
 8613         oh    200    ccc     O5   8613 -0.58672000  16.000000   ; qtot 0.111735
 8614         ho    200    ccc    H40   8614 0.41908000   1.008000   ; qtot 0.530815
 8615         n3    200    ccc     N4   8615 -0.54282000  14.010000   ; qtot -0.012005
; residue  201 ccc rtp ccc q -0.0
 8616          n    201    ccc     N1   8616 -0.46580000  14.010000   ; qtot -0.477805
 8617         hn    201    ccc     H4   8617 0.31480000   1.008000   ; qtot -0.163005
 8618         c3    201    ccc     C3   8618 -0.28250000  12.010000   ; qtot -0.445505
 8619         h1    201    ccc     H5   8619 0.15710000   1.008000   ; qtot -0.288405
 8620         c3    201    ccc     C4   8620 0.44180000  12.010000   ; qtot 0.153395
 8621         h1    201    ccc     H6   8621 0.15710000   1.008000   ; qtot 0.310495
 8622         h1    201    ccc     H7   8622 -0.03530000   1.008000   ; qtot 0.275195
 8623         h1    201    ccc     H8   8623 -0.03530000   1.008000   ; qtot 0.239895
 8624         n3    201    ccc     N2   8624 -0.74090000  14.010000   ; qtot -0.501005
 8625         c3    201    ccc     C5   8625 0.51680000  12.010000   ; qtot 0.015795
 8626         c3    201    ccc     C6   8626 0.51680000  12.010000   ; qtot 0.532595
 8627         h1    201    ccc     H9   8627 -0.05230000   1.008000   ; qtot 0.480295
 8628         c3    201    ccc     C7   8628 -0.60390000  12.010000   ; qtot -0.123605
 8629         h1    201    ccc    H10   8629 -0.05230000   1.008000   ; qtot -0.175905
 8630         hc    201    ccc    H11   8630 0.16730000   1.008000   ; qtot -0.008605
 8631         hc    201    ccc    H12   8631 0.16730000   1.008000   ; qtot 0.158695
 8632          c    201    ccc     C8   8632 0.72110000  12.010000   ; qtot 0.879795
 8633          o    201    ccc     O2   8633 -0.61950000  16.000000   ; qtot 0.260295
 8634         h1    201    ccc    H13   8634 -0.05230000   1.008000   ; qtot 0.207995
 8635         h1    201    ccc    H14   8635 -0.05230000   1.008000   ; qtot 0.155695
 8636         c3    201    ccc     C9   8636 -0.60390000  12.010000   ; qtot -0.448205
 8637         hc    201    ccc    H15   8637 0.16730000   1.008000   ; qtot -0.280905
 8638         hc    201    ccc    H16   8638 0.16730000   1.008000   ; qtot -0.113605
 8639          c    201    ccc    C10   8639 0.72110000  12.010000   ; qtot 0.607495
 8640          o    201    ccc     O4   8640 -0.61950000  16.000000   ; qtot -0.012005
 8641         c3    201    ccc    C11   8641 0.08518000  12.010000   ; qtot 0.073175
 8642         c3    201    ccc    C12   8642 0.07918000  12.010000   ; qtot 0.152355
 8643         h1    201    ccc    H17   8643 0.06978000   1.008000   ; qtot 0.222135
 8644         c3    201    ccc    C13   8644 0.07918000  12.010000   ; qtot 0.301315
 8645         c3    201    ccc    C14   8645 0.03578000  12.010000   ; qtot 0.337095
 8646         c3    201    ccc    C15   8646 0.33498000  12.010000   ; qtot 0.672075
 8647         h1    201    ccc    H18   8647 0.06178000   1.008000   ; qtot 0.733855
 8648         h1    201    ccc    H19   8648 0.11278000   1.008000   ; qtot 0.846635
 8649         h2    201    ccc    H20   8649 0.12178000   1.008000   ; qtot 0.968415
 8650         oh    201    ccc     O1   8650 -0.56972000  16.000000   ; qtot 0.398695
 8651         oh    201    ccc     O6   8651 -0.57772000  16.000000   ; qtot -0.179025
 8652         c3    201    ccc    C16   8652 0.14548000  12.010000   ; qtot -0.033545
 8653         ho    201    ccc    H21   8653 0.40508000   1.008000   ; qtot 0.371535
 8654         hn    201    ccc    H22   8654 0.31758000   1.008000   ; qtot 0.689115
 8655         h1    201    ccc    H23   8655 0.06278000   1.008000   ; qtot 0.751895
 8656         h1    201    ccc    H24   8656 0.06278000   1.008000   ; qtot 0.814675
 8657         oh    201    ccc     O7   8657 -0.59472000  16.000000   ; qtot 0.219955
 8658         ho    201    ccc    H25   8658 0.41908000   1.008000   ; qtot 0.639035
 8659         os    201    ccc     O8   8659 -0.44552000  16.000000   ; qtot 0.193515
 8660         ho    201    ccc    H26   8660 0.41908000   1.008000   ; qtot 0.612595
 8661         h1    201    ccc    H27   8661 0.08578000   1.008000   ; qtot 0.698375
 8662         oh    201    ccc     O9   8662 -0.58672000  16.000000   ; qtot 0.111655
 8663         ho    201    ccc    H28   8663 0.41908000   1.008000   ; qtot 0.530735
 8664         n3    201    ccc     N3   8664 -0.54282000  14.010000   ; qtot -0.012085
 8665         c3    201    ccc    C17   8665 0.08518000  12.010000   ; qtot 0.073095
 8666         c3    201    ccc    C18   8666 0.07918000  12.010000   ; qtot 0.152275
 8667         h1    201    ccc    H29   8667 0.06978000   1.008000   ; qtot 0.222055
 8668         c3    201    ccc    C19   8668 0.07918000  12.010000   ; qtot 0.301235
 8669         c3    201    ccc    C20   8669 0.03578000  12.010000   ; qtot 0.337015
 8670         c3    201    ccc    C21   8670 0.33498000  12.010000   ; qtot 0.671995
 8671         h1    201    ccc    H30   8671 0.06178000   1.008000   ; qtot 0.733775
 8672         h1    201    ccc    H31   8672 0.11278000   1.008000   ; qtot 0.846555
 8673         h2    201    ccc    H32   8673 0.12178000   1.008000   ; qtot 0.968335
 8674         oh    201    ccc    O10   8674 -0.56972000  16.000000   ; qtot 0.398615
 8675         oh    201    ccc    O11   8675 -0.57772000  16.000000   ; qtot -0.179105
 8676         c3    201    ccc    C22   8676 0.14548000  12.010000   ; qtot -0.033625
 8677         ho    201    ccc    H33   8677 0.40508000   1.008000   ; qtot 0.371455
 8678         hn    201    ccc    H34   8678 0.31758000   1.008000   ; qtot 0.689035
 8679         h1    201    ccc    H35   8679 0.06278000   1.008000   ; qtot 0.751815
 8680         h1    201    ccc    H36   8680 0.06278000   1.008000   ; qtot 0.814595
 8681         oh    201    ccc    O12   8681 -0.59472000  16.000000   ; qtot 0.219875
 8682         ho    201    ccc    H37   8682 0.41908000   1.008000   ; qtot 0.638955
 8683         os    201    ccc    O13   8683 -0.44552000  16.000000   ; qtot 0.193435
 8684         ho    201    ccc    H38   8684 0.41908000   1.008000   ; qtot 0.612515
 8685         h1    201    ccc    H39   8685 0.08578000   1.008000   ; qtot 0.698295
 8686         oh    201    ccc     O5   8686 -0.58672000  16.000000   ; qtot 0.111575
 8687         ho    201    ccc    H40   8687 0.41908000   1.008000   ; qtot 0.530655
 8688         n3    201    ccc     N4   8688 -0.54282000  14.010000   ; qtot -0.012165
; residue  202 ccc rtp ccc q -0.0
 8689          n    202    ccc     N1   8689 -0.46580000  14.010000   ; qtot -0.477965
 8690         hn    202    ccc     H4   8690 0.31480000   1.008000   ; qtot -0.163165
 8691         c3    202    ccc     C3   8691 -0.28250000  12.010000   ; qtot -0.445665
 8692         h1    202    ccc     H5   8692 0.15710000   1.008000   ; qtot -0.288565
 8693         c3    202    ccc     C4   8693 0.44180000  12.010000   ; qtot 0.153235
 8694         h1    202    ccc     H6   8694 0.15710000   1.008000   ; qtot 0.310335
 8695         h1    202    ccc     H7   8695 -0.03530000   1.008000   ; qtot 0.275035
 8696         h1    202    ccc     H8   8696 -0.03530000   1.008000   ; qtot 0.239735
 8697         n3    202    ccc     N2   8697 -0.74090000  14.010000   ; qtot -0.501165
 8698         c3    202    ccc     C5   8698 0.51680000  12.010000   ; qtot 0.015635
 8699         c3    202    ccc     C6   8699 0.51680000  12.010000   ; qtot 0.532435
 8700         h1    202    ccc     H9   8700 -0.05230000   1.008000   ; qtot 0.480135
 8701         c3    202    ccc     C7   8701 -0.60390000  12.010000   ; qtot -0.123765
 8702         h1    202    ccc    H10   8702 -0.05230000   1.008000   ; qtot -0.176065
 8703         hc    202    ccc    H11   8703 0.16730000   1.008000   ; qtot -0.008765
 8704         hc    202    ccc    H12   8704 0.16730000   1.008000   ; qtot 0.158535
 8705          c    202    ccc     C8   8705 0.72110000  12.010000   ; qtot 0.879635
 8706          o    202    ccc     O2   8706 -0.61950000  16.000000   ; qtot 0.260135
 8707         h1    202    ccc    H13   8707 -0.05230000   1.008000   ; qtot 0.207835
 8708         h1    202    ccc    H14   8708 -0.05230000   1.008000   ; qtot 0.155535
 8709         c3    202    ccc     C9   8709 -0.60390000  12.010000   ; qtot -0.448365
 8710         hc    202    ccc    H15   8710 0.16730000   1.008000   ; qtot -0.281065
 8711         hc    202    ccc    H16   8711 0.16730000   1.008000   ; qtot -0.113765
 8712          c    202    ccc    C10   8712 0.72110000  12.010000   ; qtot 0.607335
 8713          o    202    ccc     O4   8713 -0.61950000  16.000000   ; qtot -0.012165
 8714         c3    202    ccc    C11   8714 0.08518000  12.010000   ; qtot 0.073015
 8715         c3    202    ccc    C12   8715 0.07918000  12.010000   ; qtot 0.152195
 8716         h1    202    ccc    H17   8716 0.06978000   1.008000   ; qtot 0.221975
 8717         c3    202    ccc    C13   8717 0.07918000  12.010000   ; qtot 0.301155
 8718         c3    202    ccc    C14   8718 0.03578000  12.010000   ; qtot 0.336935
 8719         c3    202    ccc    C15   8719 0.33498000  12.010000   ; qtot 0.671915
 8720         h1    202    ccc    H18   8720 0.06178000   1.008000   ; qtot 0.733695
 8721         h1    202    ccc    H19   8721 0.11278000   1.008000   ; qtot 0.846475
 8722         h2    202    ccc    H20   8722 0.12178000   1.008000   ; qtot 0.968255
 8723         oh    202    ccc     O1   8723 -0.56972000  16.000000   ; qtot 0.398535
 8724         oh    202    ccc     O6   8724 -0.57772000  16.000000   ; qtot -0.179185
 8725         c3    202    ccc    C16   8725 0.14548000  12.010000   ; qtot -0.033705
 8726         ho    202    ccc    H21   8726 0.40508000   1.008000   ; qtot 0.371375
 8727         hn    202    ccc    H22   8727 0.31758000   1.008000   ; qtot 0.688955
 8728         h1    202    ccc    H23   8728 0.06278000   1.008000   ; qtot 0.751735
 8729         h1    202    ccc    H24   8729 0.06278000   1.008000   ; qtot 0.814515
 8730         oh    202    ccc     O7   8730 -0.59472000  16.000000   ; qtot 0.219795
 8731         ho    202    ccc    H25   8731 0.41908000   1.008000   ; qtot 0.638875
 8732         os    202    ccc     O8   8732 -0.44552000  16.000000   ; qtot 0.193355
 8733         ho    202    ccc    H26   8733 0.41908000   1.008000   ; qtot 0.612435
 8734         h1    202    ccc    H27   8734 0.08578000   1.008000   ; qtot 0.698215
 8735         oh    202    ccc     O9   8735 -0.58672000  16.000000   ; qtot 0.111495
 8736         ho    202    ccc    H28   8736 0.41908000   1.008000   ; qtot 0.530575
 8737         n3    202    ccc     N3   8737 -0.54282000  14.010000   ; qtot -0.012245
 8738         c3    202    ccc    C17   8738 0.08518000  12.010000   ; qtot 0.072935
 8739         c3    202    ccc    C18   8739 0.07918000  12.010000   ; qtot 0.152115
 8740         h1    202    ccc    H29   8740 0.06978000   1.008000   ; qtot 0.221895
 8741         c3    202    ccc    C19   8741 0.07918000  12.010000   ; qtot 0.301075
 8742         c3    202    ccc    C20   8742 0.03578000  12.010000   ; qtot 0.336855
 8743         c3    202    ccc    C21   8743 0.33498000  12.010000   ; qtot 0.671835
 8744         h1    202    ccc    H30   8744 0.06178000   1.008000   ; qtot 0.733615
 8745         h1    202    ccc    H31   8745 0.11278000   1.008000   ; qtot 0.846395
 8746         h2    202    ccc    H32   8746 0.12178000   1.008000   ; qtot 0.968175
 8747         oh    202    ccc    O10   8747 -0.56972000  16.000000   ; qtot 0.398455
 8748         oh    202    ccc    O11   8748 -0.57772000  16.000000   ; qtot -0.179265
 8749         c3    202    ccc    C22   8749 0.14548000  12.010000   ; qtot -0.033785
 8750         ho    202    ccc    H33   8750 0.40508000   1.008000   ; qtot 0.371295
 8751         hn    202    ccc    H34   8751 0.31758000   1.008000   ; qtot 0.688875
 8752         h1    202    ccc    H35   8752 0.06278000   1.008000   ; qtot 0.751655
 8753         h1    202    ccc    H36   8753 0.06278000   1.008000   ; qtot 0.814435
 8754         oh    202    ccc    O12   8754 -0.59472000  16.000000   ; qtot 0.219715
 8755         ho    202    ccc    H37   8755 0.41908000   1.008000   ; qtot 0.638795
 8756         os    202    ccc    O13   8756 -0.44552000  16.000000   ; qtot 0.193275
 8757         ho    202    ccc    H38   8757 0.41908000   1.008000   ; qtot 0.612355
 8758         h1    202    ccc    H39   8758 0.08578000   1.008000   ; qtot 0.698135
 8759         oh    202    ccc     O5   8759 -0.58672000  16.000000   ; qtot 0.111415
 8760         ho    202    ccc    H40   8760 0.41908000   1.008000   ; qtot 0.530495
 8761         n3    202    ccc     N4   8761 -0.54282000  14.010000   ; qtot -0.012325
; residue  203 ccc rtp ccc q -0.0
 8762          n    203    ccc     N1   8762 -0.46580000  14.010000   ; qtot -0.478125
 8763         hn    203    ccc     H4   8763 0.31480000   1.008000   ; qtot -0.163325
 8764         c3    203    ccc     C3   8764 -0.28250000  12.010000   ; qtot -0.445825
 8765         h1    203    ccc     H5   8765 0.15710000   1.008000   ; qtot -0.288725
 8766         c3    203    ccc     C4   8766 0.44180000  12.010000   ; qtot 0.153075
 8767         h1    203    ccc     H6   8767 0.15710000   1.008000   ; qtot 0.310175
 8768         h1    203    ccc     H7   8768 -0.03530000   1.008000   ; qtot 0.274875
 8769         h1    203    ccc     H8   8769 -0.03530000   1.008000   ; qtot 0.239575
 8770         n3    203    ccc     N2   8770 -0.74090000  14.010000   ; qtot -0.501325
 8771         c3    203    ccc     C5   8771 0.51680000  12.010000   ; qtot 0.015475
 8772         c3    203    ccc     C6   8772 0.51680000  12.010000   ; qtot 0.532275
 8773         h1    203    ccc     H9   8773 -0.05230000   1.008000   ; qtot 0.479975
 8774         c3    203    ccc     C7   8774 -0.60390000  12.010000   ; qtot -0.123925
 8775         h1    203    ccc    H10   8775 -0.05230000   1.008000   ; qtot -0.176225
 8776         hc    203    ccc    H11   8776 0.16730000   1.008000   ; qtot -0.008925
 8777         hc    203    ccc    H12   8777 0.16730000   1.008000   ; qtot 0.158375
 8778          c    203    ccc     C8   8778 0.72110000  12.010000   ; qtot 0.879475
 8779          o    203    ccc     O2   8779 -0.61950000  16.000000   ; qtot 0.259975
 8780         h1    203    ccc    H13   8780 -0.05230000   1.008000   ; qtot 0.207675
 8781         h1    203    ccc    H14   8781 -0.05230000   1.008000   ; qtot 0.155375
 8782         c3    203    ccc     C9   8782 -0.60390000  12.010000   ; qtot -0.448525
 8783         hc    203    ccc    H15   8783 0.16730000   1.008000   ; qtot -0.281225
 8784         hc    203    ccc    H16   8784 0.16730000   1.008000   ; qtot -0.113925
 8785          c    203    ccc    C10   8785 0.72110000  12.010000   ; qtot 0.607175
 8786          o    203    ccc     O4   8786 -0.61950000  16.000000   ; qtot -0.012325
 8787         c3    203    ccc    C11   8787 0.08518000  12.010000   ; qtot 0.072855
 8788         c3    203    ccc    C12   8788 0.07918000  12.010000   ; qtot 0.152035
 8789         h1    203    ccc    H17   8789 0.06978000   1.008000   ; qtot 0.221815
 8790         c3    203    ccc    C13   8790 0.07918000  12.010000   ; qtot 0.300995
 8791         c3    203    ccc    C14   8791 0.03578000  12.010000   ; qtot 0.336775
 8792         c3    203    ccc    C15   8792 0.33498000  12.010000   ; qtot 0.671755
 8793         h1    203    ccc    H18   8793 0.06178000   1.008000   ; qtot 0.733535
 8794         h1    203    ccc    H19   8794 0.11278000   1.008000   ; qtot 0.846315
 8795         h2    203    ccc    H20   8795 0.12178000   1.008000   ; qtot 0.968095
 8796         oh    203    ccc     O1   8796 -0.56972000  16.000000   ; qtot 0.398375
 8797         oh    203    ccc     O6   8797 -0.57772000  16.000000   ; qtot -0.179345
 8798         c3    203    ccc    C16   8798 0.14548000  12.010000   ; qtot -0.033865
 8799         ho    203    ccc    H21   8799 0.40508000   1.008000   ; qtot 0.371215
 8800         hn    203    ccc    H22   8800 0.31758000   1.008000   ; qtot 0.688795
 8801         h1    203    ccc    H23   8801 0.06278000   1.008000   ; qtot 0.751575
 8802         h1    203    ccc    H24   8802 0.06278000   1.008000   ; qtot 0.814355
 8803         oh    203    ccc     O7   8803 -0.59472000  16.000000   ; qtot 0.219635
 8804         ho    203    ccc    H25   8804 0.41908000   1.008000   ; qtot 0.638715
 8805         os    203    ccc     O8   8805 -0.44552000  16.000000   ; qtot 0.193195
 8806         ho    203    ccc    H26   8806 0.41908000   1.008000   ; qtot 0.612275
 8807         h1    203    ccc    H27   8807 0.08578000   1.008000   ; qtot 0.698055
 8808         oh    203    ccc     O9   8808 -0.58672000  16.000000   ; qtot 0.111335
 8809         ho    203    ccc    H28   8809 0.41908000   1.008000   ; qtot 0.530415
 8810         n3    203    ccc     N3   8810 -0.54282000  14.010000   ; qtot -0.012405
 8811         c3    203    ccc    C17   8811 0.08518000  12.010000   ; qtot 0.072775
 8812         c3    203    ccc    C18   8812 0.07918000  12.010000   ; qtot 0.151955
 8813         h1    203    ccc    H29   8813 0.06978000   1.008000   ; qtot 0.221735
 8814         c3    203    ccc    C19   8814 0.07918000  12.010000   ; qtot 0.300915
 8815         c3    203    ccc    C20   8815 0.03578000  12.010000   ; qtot 0.336695
 8816         c3    203    ccc    C21   8816 0.33498000  12.010000   ; qtot 0.671675
 8817         h1    203    ccc    H30   8817 0.06178000   1.008000   ; qtot 0.733455
 8818         h1    203    ccc    H31   8818 0.11278000   1.008000   ; qtot 0.846235
 8819         h2    203    ccc    H32   8819 0.12178000   1.008000   ; qtot 0.968015
 8820         oh    203    ccc    O10   8820 -0.56972000  16.000000   ; qtot 0.398295
 8821         oh    203    ccc    O11   8821 -0.57772000  16.000000   ; qtot -0.179425
 8822         c3    203    ccc    C22   8822 0.14548000  12.010000   ; qtot -0.033945
 8823         ho    203    ccc    H33   8823 0.40508000   1.008000   ; qtot 0.371135
 8824         hn    203    ccc    H34   8824 0.31758000   1.008000   ; qtot 0.688715
 8825         h1    203    ccc    H35   8825 0.06278000   1.008000   ; qtot 0.751495
 8826         h1    203    ccc    H36   8826 0.06278000   1.008000   ; qtot 0.814275
 8827         oh    203    ccc    O12   8827 -0.59472000  16.000000   ; qtot 0.219555
 8828         ho    203    ccc    H37   8828 0.41908000   1.008000   ; qtot 0.638635
 8829         os    203    ccc    O13   8829 -0.44552000  16.000000   ; qtot 0.193115
 8830         ho    203    ccc    H38   8830 0.41908000   1.008000   ; qtot 0.612195
 8831         h1    203    ccc    H39   8831 0.08578000   1.008000   ; qtot 0.697975
 8832         oh    203    ccc     O5   8832 -0.58672000  16.000000   ; qtot 0.111255
 8833         ho    203    ccc    H40   8833 0.41908000   1.008000   ; qtot 0.530335
 8834         n3    203    ccc     N4   8834 -0.54282000  14.010000   ; qtot -0.012485
; residue  204 ccc rtp ccc q -0.0
 8835          n    204    ccc     N1   8835 -0.46580000  14.010000   ; qtot -0.478285
 8836         hn    204    ccc     H4   8836 0.31480000   1.008000   ; qtot -0.163485
 8837         c3    204    ccc     C3   8837 -0.28250000  12.010000   ; qtot -0.445985
 8838         h1    204    ccc     H5   8838 0.15710000   1.008000   ; qtot -0.288885
 8839         c3    204    ccc     C4   8839 0.44180000  12.010000   ; qtot 0.152915
 8840         h1    204    ccc     H6   8840 0.15710000   1.008000   ; qtot 0.310015
 8841         h1    204    ccc     H7   8841 -0.03530000   1.008000   ; qtot 0.274715
 8842         h1    204    ccc     H8   8842 -0.03530000   1.008000   ; qtot 0.239415
 8843         n3    204    ccc     N2   8843 -0.74090000  14.010000   ; qtot -0.501485
 8844         c3    204    ccc     C5   8844 0.51680000  12.010000   ; qtot 0.015315
 8845         c3    204    ccc     C6   8845 0.51680000  12.010000   ; qtot 0.532115
 8846         h1    204    ccc     H9   8846 -0.05230000   1.008000   ; qtot 0.479815
 8847         c3    204    ccc     C7   8847 -0.60390000  12.010000   ; qtot -0.124085
 8848         h1    204    ccc    H10   8848 -0.05230000   1.008000   ; qtot -0.176385
 8849         hc    204    ccc    H11   8849 0.16730000   1.008000   ; qtot -0.009085
 8850         hc    204    ccc    H12   8850 0.16730000   1.008000   ; qtot 0.158215
 8851          c    204    ccc     C8   8851 0.72110000  12.010000   ; qtot 0.879315
 8852          o    204    ccc     O2   8852 -0.61950000  16.000000   ; qtot 0.259815
 8853         h1    204    ccc    H13   8853 -0.05230000   1.008000   ; qtot 0.207515
 8854         h1    204    ccc    H14   8854 -0.05230000   1.008000   ; qtot 0.155215
 8855         c3    204    ccc     C9   8855 -0.60390000  12.010000   ; qtot -0.448685
 8856         hc    204    ccc    H15   8856 0.16730000   1.008000   ; qtot -0.281385
 8857         hc    204    ccc    H16   8857 0.16730000   1.008000   ; qtot -0.114085
 8858          c    204    ccc    C10   8858 0.72110000  12.010000   ; qtot 0.607015
 8859          o    204    ccc     O4   8859 -0.61950000  16.000000   ; qtot -0.012485
 8860         c3    204    ccc    C11   8860 0.08518000  12.010000   ; qtot 0.072695
 8861         c3    204    ccc    C12   8861 0.07918000  12.010000   ; qtot 0.151875
 8862         h1    204    ccc    H17   8862 0.06978000   1.008000   ; qtot 0.221655
 8863         c3    204    ccc    C13   8863 0.07918000  12.010000   ; qtot 0.300835
 8864         c3    204    ccc    C14   8864 0.03578000  12.010000   ; qtot 0.336615
 8865         c3    204    ccc    C15   8865 0.33498000  12.010000   ; qtot 0.671595
 8866         h1    204    ccc    H18   8866 0.06178000   1.008000   ; qtot 0.733375
 8867         h1    204    ccc    H19   8867 0.11278000   1.008000   ; qtot 0.846155
 8868         h2    204    ccc    H20   8868 0.12178000   1.008000   ; qtot 0.967935
 8869         oh    204    ccc     O1   8869 -0.56972000  16.000000   ; qtot 0.398215
 8870         oh    204    ccc     O6   8870 -0.57772000  16.000000   ; qtot -0.179505
 8871         c3    204    ccc    C16   8871 0.14548000  12.010000   ; qtot -0.034025
 8872         ho    204    ccc    H21   8872 0.40508000   1.008000   ; qtot 0.371055
 8873         hn    204    ccc    H22   8873 0.31758000   1.008000   ; qtot 0.688635
 8874         h1    204    ccc    H23   8874 0.06278000   1.008000   ; qtot 0.751415
 8875         h1    204    ccc    H24   8875 0.06278000   1.008000   ; qtot 0.814195
 8876         oh    204    ccc     O7   8876 -0.59472000  16.000000   ; qtot 0.219475
 8877         ho    204    ccc    H25   8877 0.41908000   1.008000   ; qtot 0.638555
 8878         os    204    ccc     O8   8878 -0.44552000  16.000000   ; qtot 0.193035
 8879         ho    204    ccc    H26   8879 0.41908000   1.008000   ; qtot 0.612115
 8880         h1    204    ccc    H27   8880 0.08578000   1.008000   ; qtot 0.697895
 8881         oh    204    ccc     O9   8881 -0.58672000  16.000000   ; qtot 0.111175
 8882         ho    204    ccc    H28   8882 0.41908000   1.008000   ; qtot 0.530255
 8883         n3    204    ccc     N3   8883 -0.54282000  14.010000   ; qtot -0.012565
 8884         c3    204    ccc    C17   8884 0.08518000  12.010000   ; qtot 0.072615
 8885         c3    204    ccc    C18   8885 0.07918000  12.010000   ; qtot 0.151795
 8886         h1    204    ccc    H29   8886 0.06978000   1.008000   ; qtot 0.221575
 8887         c3    204    ccc    C19   8887 0.07918000  12.010000   ; qtot 0.300755
 8888         c3    204    ccc    C20   8888 0.03578000  12.010000   ; qtot 0.336535
 8889         c3    204    ccc    C21   8889 0.33498000  12.010000   ; qtot 0.671515
 8890         h1    204    ccc    H30   8890 0.06178000   1.008000   ; qtot 0.733295
 8891         h1    204    ccc    H31   8891 0.11278000   1.008000   ; qtot 0.846075
 8892         h2    204    ccc    H32   8892 0.12178000   1.008000   ; qtot 0.967855
 8893         oh    204    ccc    O10   8893 -0.56972000  16.000000   ; qtot 0.398135
 8894         oh    204    ccc    O11   8894 -0.57772000  16.000000   ; qtot -0.179585
 8895         c3    204    ccc    C22   8895 0.14548000  12.010000   ; qtot -0.034105
 8896         ho    204    ccc    H33   8896 0.40508000   1.008000   ; qtot 0.370975
 8897         hn    204    ccc    H34   8897 0.31758000   1.008000   ; qtot 0.688555
 8898         h1    204    ccc    H35   8898 0.06278000   1.008000   ; qtot 0.751335
 8899         h1    204    ccc    H36   8899 0.06278000   1.008000   ; qtot 0.814115
 8900         oh    204    ccc    O12   8900 -0.59472000  16.000000   ; qtot 0.219395
 8901         ho    204    ccc    H37   8901 0.41908000   1.008000   ; qtot 0.638475
 8902         os    204    ccc    O13   8902 -0.44552000  16.000000   ; qtot 0.192955
 8903         ho    204    ccc    H38   8903 0.41908000   1.008000   ; qtot 0.612035
 8904         h1    204    ccc    H39   8904 0.08578000   1.008000   ; qtot 0.697815
 8905         oh    204    ccc     O5   8905 -0.58672000  16.000000   ; qtot 0.111095
 8906         ho    204    ccc    H40   8906 0.41908000   1.008000   ; qtot 0.530175
 8907         n3    204    ccc     N4   8907 -0.54282000  14.010000   ; qtot -0.012645
; residue  205 ccc rtp ccc q -0.0
 8908          n    205    ccc     N1   8908 -0.46580000  14.010000   ; qtot -0.478445
 8909         hn    205    ccc     H4   8909 0.31480000   1.008000   ; qtot -0.163645
 8910         c3    205    ccc     C3   8910 -0.28250000  12.010000   ; qtot -0.446145
 8911         h1    205    ccc     H5   8911 0.15710000   1.008000   ; qtot -0.289045
 8912         c3    205    ccc     C4   8912 0.44180000  12.010000   ; qtot 0.152755
 8913         h1    205    ccc     H6   8913 0.15710000   1.008000   ; qtot 0.309855
 8914         h1    205    ccc     H7   8914 -0.03530000   1.008000   ; qtot 0.274555
 8915         h1    205    ccc     H8   8915 -0.03530000   1.008000   ; qtot 0.239255
 8916         n3    205    ccc     N2   8916 -0.74090000  14.010000   ; qtot -0.501645
 8917         c3    205    ccc     C5   8917 0.51680000  12.010000   ; qtot 0.015155
 8918         c3    205    ccc     C6   8918 0.51680000  12.010000   ; qtot 0.531955
 8919         h1    205    ccc     H9   8919 -0.05230000   1.008000   ; qtot 0.479655
 8920         c3    205    ccc     C7   8920 -0.60390000  12.010000   ; qtot -0.124245
 8921         h1    205    ccc    H10   8921 -0.05230000   1.008000   ; qtot -0.176545
 8922         hc    205    ccc    H11   8922 0.16730000   1.008000   ; qtot -0.009245
 8923         hc    205    ccc    H12   8923 0.16730000   1.008000   ; qtot 0.158055
 8924          c    205    ccc     C8   8924 0.72110000  12.010000   ; qtot 0.879155
 8925          o    205    ccc     O2   8925 -0.61950000  16.000000   ; qtot 0.259655
 8926         h1    205    ccc    H13   8926 -0.05230000   1.008000   ; qtot 0.207355
 8927         h1    205    ccc    H14   8927 -0.05230000   1.008000   ; qtot 0.155055
 8928         c3    205    ccc     C9   8928 -0.60390000  12.010000   ; qtot -0.448845
 8929         hc    205    ccc    H15   8929 0.16730000   1.008000   ; qtot -0.281545
 8930         hc    205    ccc    H16   8930 0.16730000   1.008000   ; qtot -0.114245
 8931          c    205    ccc    C10   8931 0.72110000  12.010000   ; qtot 0.606855
 8932          o    205    ccc     O4   8932 -0.61950000  16.000000   ; qtot -0.012645
 8933         c3    205    ccc    C11   8933 0.08518000  12.010000   ; qtot 0.072535
 8934         c3    205    ccc    C12   8934 0.07918000  12.010000   ; qtot 0.151715
 8935         h1    205    ccc    H17   8935 0.06978000   1.008000   ; qtot 0.221495
 8936         c3    205    ccc    C13   8936 0.07918000  12.010000   ; qtot 0.300675
 8937         c3    205    ccc    C14   8937 0.03578000  12.010000   ; qtot 0.336455
 8938         c3    205    ccc    C15   8938 0.33498000  12.010000   ; qtot 0.671435
 8939         h1    205    ccc    H18   8939 0.06178000   1.008000   ; qtot 0.733215
 8940         h1    205    ccc    H19   8940 0.11278000   1.008000   ; qtot 0.845995
 8941         h2    205    ccc    H20   8941 0.12178000   1.008000   ; qtot 0.967775
 8942         oh    205    ccc     O1   8942 -0.56972000  16.000000   ; qtot 0.398055
 8943         oh    205    ccc     O6   8943 -0.57772000  16.000000   ; qtot -0.179665
 8944         c3    205    ccc    C16   8944 0.14548000  12.010000   ; qtot -0.034185
 8945         ho    205    ccc    H21   8945 0.40508000   1.008000   ; qtot 0.370895
 8946         hn    205    ccc    H22   8946 0.31758000   1.008000   ; qtot 0.688475
 8947         h1    205    ccc    H23   8947 0.06278000   1.008000   ; qtot 0.751255
 8948         h1    205    ccc    H24   8948 0.06278000   1.008000   ; qtot 0.814035
 8949         oh    205    ccc     O7   8949 -0.59472000  16.000000   ; qtot 0.219315
 8950         ho    205    ccc    H25   8950 0.41908000   1.008000   ; qtot 0.638395
 8951         os    205    ccc     O8   8951 -0.44552000  16.000000   ; qtot 0.192875
 8952         ho    205    ccc    H26   8952 0.41908000   1.008000   ; qtot 0.611955
 8953         h1    205    ccc    H27   8953 0.08578000   1.008000   ; qtot 0.697735
 8954         oh    205    ccc     O9   8954 -0.58672000  16.000000   ; qtot 0.111015
 8955         ho    205    ccc    H28   8955 0.41908000   1.008000   ; qtot 0.530095
 8956         n3    205    ccc     N3   8956 -0.54282000  14.010000   ; qtot -0.012725
 8957         c3    205    ccc    C17   8957 0.08518000  12.010000   ; qtot 0.072455
 8958         c3    205    ccc    C18   8958 0.07918000  12.010000   ; qtot 0.151635
 8959         h1    205    ccc    H29   8959 0.06978000   1.008000   ; qtot 0.221415
 8960         c3    205    ccc    C19   8960 0.07918000  12.010000   ; qtot 0.300595
 8961         c3    205    ccc    C20   8961 0.03578000  12.010000   ; qtot 0.336375
 8962         c3    205    ccc    C21   8962 0.33498000  12.010000   ; qtot 0.671355
 8963         h1    205    ccc    H30   8963 0.06178000   1.008000   ; qtot 0.733135
 8964         h1    205    ccc    H31   8964 0.11278000   1.008000   ; qtot 0.845915
 8965         h2    205    ccc    H32   8965 0.12178000   1.008000   ; qtot 0.967695
 8966         oh    205    ccc    O10   8966 -0.56972000  16.000000   ; qtot 0.397975
 8967         oh    205    ccc    O11   8967 -0.57772000  16.000000   ; qtot -0.179745
 8968         c3    205    ccc    C22   8968 0.14548000  12.010000   ; qtot -0.034265
 8969         ho    205    ccc    H33   8969 0.40508000   1.008000   ; qtot 0.370815
 8970         hn    205    ccc    H34   8970 0.31758000   1.008000   ; qtot 0.688395
 8971         h1    205    ccc    H35   8971 0.06278000   1.008000   ; qtot 0.751175
 8972         h1    205    ccc    H36   8972 0.06278000   1.008000   ; qtot 0.813955
 8973         oh    205    ccc    O12   8973 -0.59472000  16.000000   ; qtot 0.219235
 8974         ho    205    ccc    H37   8974 0.41908000   1.008000   ; qtot 0.638315
 8975         os    205    ccc    O13   8975 -0.44552000  16.000000   ; qtot 0.192795
 8976         ho    205    ccc    H38   8976 0.41908000   1.008000   ; qtot 0.611875
 8977         h1    205    ccc    H39   8977 0.08578000   1.008000   ; qtot 0.697655
 8978         oh    205    ccc     O5   8978 -0.58672000  16.000000   ; qtot 0.110935
 8979         ho    205    ccc    H40   8979 0.41908000   1.008000   ; qtot 0.530015
 8980         n3    205    ccc     N4   8980 -0.54282000  14.010000   ; qtot -0.012805
; residue  206 ccc rtp ccc q -0.0
 8981          n    206    ccc     N1   8981 -0.46580000  14.010000   ; qtot -0.478605
 8982         hn    206    ccc     H4   8982 0.31480000   1.008000   ; qtot -0.163805
 8983         c3    206    ccc     C3   8983 -0.28250000  12.010000   ; qtot -0.446305
 8984         h1    206    ccc     H5   8984 0.15710000   1.008000   ; qtot -0.289205
 8985         c3    206    ccc     C4   8985 0.44180000  12.010000   ; qtot 0.152595
 8986         h1    206    ccc     H6   8986 0.15710000   1.008000   ; qtot 0.309695
 8987         h1    206    ccc     H7   8987 -0.03530000   1.008000   ; qtot 0.274395
 8988         h1    206    ccc     H8   8988 -0.03530000   1.008000   ; qtot 0.239095
 8989         n3    206    ccc     N2   8989 -0.74090000  14.010000   ; qtot -0.501805
 8990         c3    206    ccc     C5   8990 0.51680000  12.010000   ; qtot 0.014995
 8991         c3    206    ccc     C6   8991 0.51680000  12.010000   ; qtot 0.531795
 8992         h1    206    ccc     H9   8992 -0.05230000   1.008000   ; qtot 0.479495
 8993         c3    206    ccc     C7   8993 -0.60390000  12.010000   ; qtot -0.124405
 8994         h1    206    ccc    H10   8994 -0.05230000   1.008000   ; qtot -0.176705
 8995         hc    206    ccc    H11   8995 0.16730000   1.008000   ; qtot -0.009405
 8996         hc    206    ccc    H12   8996 0.16730000   1.008000   ; qtot 0.157895
 8997          c    206    ccc     C8   8997 0.72110000  12.010000   ; qtot 0.878995
 8998          o    206    ccc     O2   8998 -0.61950000  16.000000   ; qtot 0.259495
 8999         h1    206    ccc    H13   8999 -0.05230000   1.008000   ; qtot 0.207195
 9000         h1    206    ccc    H14   9000 -0.05230000   1.008000   ; qtot 0.154895
 9001         c3    206    ccc     C9   9001 -0.60390000  12.010000   ; qtot -0.449005
 9002         hc    206    ccc    H15   9002 0.16730000   1.008000   ; qtot -0.281705
 9003         hc    206    ccc    H16   9003 0.16730000   1.008000   ; qtot -0.114405
 9004          c    206    ccc    C10   9004 0.72110000  12.010000   ; qtot 0.606695
 9005          o    206    ccc     O4   9005 -0.61950000  16.000000   ; qtot -0.012805
 9006         c3    206    ccc    C11   9006 0.08518000  12.010000   ; qtot 0.072375
 9007         c3    206    ccc    C12   9007 0.07918000  12.010000   ; qtot 0.151555
 9008         h1    206    ccc    H17   9008 0.06978000   1.008000   ; qtot 0.221335
 9009         c3    206    ccc    C13   9009 0.07918000  12.010000   ; qtot 0.300515
 9010         c3    206    ccc    C14   9010 0.03578000  12.010000   ; qtot 0.336295
 9011         c3    206    ccc    C15   9011 0.33498000  12.010000   ; qtot 0.671275
 9012         h1    206    ccc    H18   9012 0.06178000   1.008000   ; qtot 0.733055
 9013         h1    206    ccc    H19   9013 0.11278000   1.008000   ; qtot 0.845835
 9014         h2    206    ccc    H20   9014 0.12178000   1.008000   ; qtot 0.967615
 9015         oh    206    ccc     O1   9015 -0.56972000  16.000000   ; qtot 0.397895
 9016         oh    206    ccc     O6   9016 -0.57772000  16.000000   ; qtot -0.179825
 9017         c3    206    ccc    C16   9017 0.14548000  12.010000   ; qtot -0.034345
 9018         ho    206    ccc    H21   9018 0.40508000   1.008000   ; qtot 0.370735
 9019         hn    206    ccc    H22   9019 0.31758000   1.008000   ; qtot 0.688315
 9020         h1    206    ccc    H23   9020 0.06278000   1.008000   ; qtot 0.751095
 9021         h1    206    ccc    H24   9021 0.06278000   1.008000   ; qtot 0.813875
 9022         oh    206    ccc     O7   9022 -0.59472000  16.000000   ; qtot 0.219155
 9023         ho    206    ccc    H25   9023 0.41908000   1.008000   ; qtot 0.638235
 9024         os    206    ccc     O8   9024 -0.44552000  16.000000   ; qtot 0.192715
 9025         ho    206    ccc    H26   9025 0.41908000   1.008000   ; qtot 0.611795
 9026         h1    206    ccc    H27   9026 0.08578000   1.008000   ; qtot 0.697575
 9027         oh    206    ccc     O9   9027 -0.58672000  16.000000   ; qtot 0.110855
 9028         ho    206    ccc    H28   9028 0.41908000   1.008000   ; qtot 0.529935
 9029         n3    206    ccc     N3   9029 -0.54282000  14.010000   ; qtot -0.012885
 9030         c3    206    ccc    C17   9030 0.08518000  12.010000   ; qtot 0.072295
 9031         c3    206    ccc    C18   9031 0.07918000  12.010000   ; qtot 0.151475
 9032         h1    206    ccc    H29   9032 0.06978000   1.008000   ; qtot 0.221255
 9033         c3    206    ccc    C19   9033 0.07918000  12.010000   ; qtot 0.300435
 9034         c3    206    ccc    C20   9034 0.03578000  12.010000   ; qtot 0.336215
 9035         c3    206    ccc    C21   9035 0.33498000  12.010000   ; qtot 0.671195
 9036         h1    206    ccc    H30   9036 0.06178000   1.008000   ; qtot 0.732975
 9037         h1    206    ccc    H31   9037 0.11278000   1.008000   ; qtot 0.845755
 9038         h2    206    ccc    H32   9038 0.12178000   1.008000   ; qtot 0.967535
 9039         oh    206    ccc    O10   9039 -0.56972000  16.000000   ; qtot 0.397815
 9040         oh    206    ccc    O11   9040 -0.57772000  16.000000   ; qtot -0.179905
 9041         c3    206    ccc    C22   9041 0.14548000  12.010000   ; qtot -0.034425
 9042         ho    206    ccc    H33   9042 0.40508000   1.008000   ; qtot 0.370655
 9043         hn    206    ccc    H34   9043 0.31758000   1.008000   ; qtot 0.688235
 9044         h1    206    ccc    H35   9044 0.06278000   1.008000   ; qtot 0.751015
 9045         h1    206    ccc    H36   9045 0.06278000   1.008000   ; qtot 0.813795
 9046         oh    206    ccc    O12   9046 -0.59472000  16.000000   ; qtot 0.219075
 9047         ho    206    ccc    H37   9047 0.41908000   1.008000   ; qtot 0.638155
 9048         os    206    ccc    O13   9048 -0.44552000  16.000000   ; qtot 0.192635
 9049         ho    206    ccc    H38   9049 0.41908000   1.008000   ; qtot 0.611715
 9050         h1    206    ccc    H39   9050 0.08578000   1.008000   ; qtot 0.697495
 9051         oh    206    ccc     O5   9051 -0.58672000  16.000000   ; qtot 0.110775
 9052         ho    206    ccc    H40   9052 0.41908000   1.008000   ; qtot 0.529855
 9053         n3    206    ccc     N4   9053 -0.54282000  14.010000   ; qtot -0.012965
; residue  207 ccc rtp ccc q -0.0
 9054          n    207    ccc     N1   9054 -0.46580000  14.010000   ; qtot -0.478765
 9055         hn    207    ccc     H4   9055 0.31480000   1.008000   ; qtot -0.163965
 9056         c3    207    ccc     C3   9056 -0.28250000  12.010000   ; qtot -0.446465
 9057         h1    207    ccc     H5   9057 0.15710000   1.008000   ; qtot -0.289365
 9058         c3    207    ccc     C4   9058 0.44180000  12.010000   ; qtot 0.152435
 9059         h1    207    ccc     H6   9059 0.15710000   1.008000   ; qtot 0.309535
 9060         h1    207    ccc     H7   9060 -0.03530000   1.008000   ; qtot 0.274235
 9061         h1    207    ccc     H8   9061 -0.03530000   1.008000   ; qtot 0.238935
 9062         n3    207    ccc     N2   9062 -0.74090000  14.010000   ; qtot -0.501965
 9063         c3    207    ccc     C5   9063 0.51680000  12.010000   ; qtot 0.014835
 9064         c3    207    ccc     C6   9064 0.51680000  12.010000   ; qtot 0.531635
 9065         h1    207    ccc     H9   9065 -0.05230000   1.008000   ; qtot 0.479335
 9066         c3    207    ccc     C7   9066 -0.60390000  12.010000   ; qtot -0.124565
 9067         h1    207    ccc    H10   9067 -0.05230000   1.008000   ; qtot -0.176865
 9068         hc    207    ccc    H11   9068 0.16730000   1.008000   ; qtot -0.009565
 9069         hc    207    ccc    H12   9069 0.16730000   1.008000   ; qtot 0.157735
 9070          c    207    ccc     C8   9070 0.72110000  12.010000   ; qtot 0.878835
 9071          o    207    ccc     O2   9071 -0.61950000  16.000000   ; qtot 0.259335
 9072         h1    207    ccc    H13   9072 -0.05230000   1.008000   ; qtot 0.207035
 9073         h1    207    ccc    H14   9073 -0.05230000   1.008000   ; qtot 0.154735
 9074         c3    207    ccc     C9   9074 -0.60390000  12.010000   ; qtot -0.449165
 9075         hc    207    ccc    H15   9075 0.16730000   1.008000   ; qtot -0.281865
 9076         hc    207    ccc    H16   9076 0.16730000   1.008000   ; qtot -0.114565
 9077          c    207    ccc    C10   9077 0.72110000  12.010000   ; qtot 0.606535
 9078          o    207    ccc     O4   9078 -0.61950000  16.000000   ; qtot -0.012965
 9079         c3    207    ccc    C11   9079 0.08518000  12.010000   ; qtot 0.072215
 9080         c3    207    ccc    C12   9080 0.07918000  12.010000   ; qtot 0.151395
 9081         h1    207    ccc    H17   9081 0.06978000   1.008000   ; qtot 0.221175
 9082         c3    207    ccc    C13   9082 0.07918000  12.010000   ; qtot 0.300355
 9083         c3    207    ccc    C14   9083 0.03578000  12.010000   ; qtot 0.336135
 9084         c3    207    ccc    C15   9084 0.33498000  12.010000   ; qtot 0.671115
 9085         h1    207    ccc    H18   9085 0.06178000   1.008000   ; qtot 0.732895
 9086         h1    207    ccc    H19   9086 0.11278000   1.008000   ; qtot 0.845675
 9087         h2    207    ccc    H20   9087 0.12178000   1.008000   ; qtot 0.967455
 9088         oh    207    ccc     O1   9088 -0.56972000  16.000000   ; qtot 0.397735
 9089         oh    207    ccc     O6   9089 -0.57772000  16.000000   ; qtot -0.179985
 9090         c3    207    ccc    C16   9090 0.14548000  12.010000   ; qtot -0.034505
 9091         ho    207    ccc    H21   9091 0.40508000   1.008000   ; qtot 0.370575
 9092         hn    207    ccc    H22   9092 0.31758000   1.008000   ; qtot 0.688155
 9093         h1    207    ccc    H23   9093 0.06278000   1.008000   ; qtot 0.750935
 9094         h1    207    ccc    H24   9094 0.06278000   1.008000   ; qtot 0.813715
 9095         oh    207    ccc     O7   9095 -0.59472000  16.000000   ; qtot 0.218995
 9096         ho    207    ccc    H25   9096 0.41908000   1.008000   ; qtot 0.638075
 9097         os    207    ccc     O8   9097 -0.44552000  16.000000   ; qtot 0.192555
 9098         ho    207    ccc    H26   9098 0.41908000   1.008000   ; qtot 0.611635
 9099         h1    207    ccc    H27   9099 0.08578000   1.008000   ; qtot 0.697415
 9100         oh    207    ccc     O9   9100 -0.58672000  16.000000   ; qtot 0.110695
 9101         ho    207    ccc    H28   9101 0.41908000   1.008000   ; qtot 0.529775
 9102         n3    207    ccc     N3   9102 -0.54282000  14.010000   ; qtot -0.013045
 9103         c3    207    ccc    C17   9103 0.08518000  12.010000   ; qtot 0.072135
 9104         c3    207    ccc    C18   9104 0.07918000  12.010000   ; qtot 0.151315
 9105         h1    207    ccc    H29   9105 0.06978000   1.008000   ; qtot 0.221095
 9106         c3    207    ccc    C19   9106 0.07918000  12.010000   ; qtot 0.300275
 9107         c3    207    ccc    C20   9107 0.03578000  12.010000   ; qtot 0.336055
 9108         c3    207    ccc    C21   9108 0.33498000  12.010000   ; qtot 0.671035
 9109         h1    207    ccc    H30   9109 0.06178000   1.008000   ; qtot 0.732815
 9110         h1    207    ccc    H31   9110 0.11278000   1.008000   ; qtot 0.845595
 9111         h2    207    ccc    H32   9111 0.12178000   1.008000   ; qtot 0.967375
 9112         oh    207    ccc    O10   9112 -0.56972000  16.000000   ; qtot 0.397655
 9113         oh    207    ccc    O11   9113 -0.57772000  16.000000   ; qtot -0.180065
 9114         c3    207    ccc    C22   9114 0.14548000  12.010000   ; qtot -0.034585
 9115         ho    207    ccc    H33   9115 0.40508000   1.008000   ; qtot 0.370495
 9116         hn    207    ccc    H34   9116 0.31758000   1.008000   ; qtot 0.688075
 9117         h1    207    ccc    H35   9117 0.06278000   1.008000   ; qtot 0.750855
 9118         h1    207    ccc    H36   9118 0.06278000   1.008000   ; qtot 0.813635
 9119         oh    207    ccc    O12   9119 -0.59472000  16.000000   ; qtot 0.218915
 9120         ho    207    ccc    H37   9120 0.41908000   1.008000   ; qtot 0.637995
 9121         os    207    ccc    O13   9121 -0.44552000  16.000000   ; qtot 0.192475
 9122         ho    207    ccc    H38   9122 0.41908000   1.008000   ; qtot 0.611555
 9123         h1    207    ccc    H39   9123 0.08578000   1.008000   ; qtot 0.697335
 9124         oh    207    ccc     O5   9124 -0.58672000  16.000000   ; qtot 0.110615
 9125         ho    207    ccc    H40   9125 0.41908000   1.008000   ; qtot 0.529695
 9126         n3    207    ccc     N4   9126 -0.54282000  14.010000   ; qtot -0.013125
; residue  208 ccc rtp ccc q -0.0
 9127          n    208    ccc     N1   9127 -0.46580000  14.010000   ; qtot -0.478925
 9128         hn    208    ccc     H4   9128 0.31480000   1.008000   ; qtot -0.164125
 9129         c3    208    ccc     C3   9129 -0.28250000  12.010000   ; qtot -0.446625
 9130         h1    208    ccc     H5   9130 0.15710000   1.008000   ; qtot -0.289525
 9131         c3    208    ccc     C4   9131 0.44180000  12.010000   ; qtot 0.152275
 9132         h1    208    ccc     H6   9132 0.15710000   1.008000   ; qtot 0.309375
 9133         h1    208    ccc     H7   9133 -0.03530000   1.008000   ; qtot 0.274075
 9134         h1    208    ccc     H8   9134 -0.03530000   1.008000   ; qtot 0.238775
 9135         n3    208    ccc     N2   9135 -0.74090000  14.010000   ; qtot -0.502125
 9136         c3    208    ccc     C5   9136 0.51680000  12.010000   ; qtot 0.014675
 9137         c3    208    ccc     C6   9137 0.51680000  12.010000   ; qtot 0.531475
 9138         h1    208    ccc     H9   9138 -0.05230000   1.008000   ; qtot 0.479175
 9139         c3    208    ccc     C7   9139 -0.60390000  12.010000   ; qtot -0.124725
 9140         h1    208    ccc    H10   9140 -0.05230000   1.008000   ; qtot -0.177025
 9141         hc    208    ccc    H11   9141 0.16730000   1.008000   ; qtot -0.009725
 9142         hc    208    ccc    H12   9142 0.16730000   1.008000   ; qtot 0.157575
 9143          c    208    ccc     C8   9143 0.72110000  12.010000   ; qtot 0.878675
 9144          o    208    ccc     O2   9144 -0.61950000  16.000000   ; qtot 0.259175
 9145         h1    208    ccc    H13   9145 -0.05230000   1.008000   ; qtot 0.206875
 9146         h1    208    ccc    H14   9146 -0.05230000   1.008000   ; qtot 0.154575
 9147         c3    208    ccc     C9   9147 -0.60390000  12.010000   ; qtot -0.449325
 9148         hc    208    ccc    H15   9148 0.16730000   1.008000   ; qtot -0.282025
 9149         hc    208    ccc    H16   9149 0.16730000   1.008000   ; qtot -0.114725
 9150          c    208    ccc    C10   9150 0.72110000  12.010000   ; qtot 0.606375
 9151          o    208    ccc     O4   9151 -0.61950000  16.000000   ; qtot -0.013125
 9152         c3    208    ccc    C11   9152 0.08518000  12.010000   ; qtot 0.072055
 9153         c3    208    ccc    C12   9153 0.07918000  12.010000   ; qtot 0.151235
 9154         h1    208    ccc    H17   9154 0.06978000   1.008000   ; qtot 0.221015
 9155         c3    208    ccc    C13   9155 0.07918000  12.010000   ; qtot 0.300195
 9156         c3    208    ccc    C14   9156 0.03578000  12.010000   ; qtot 0.335975
 9157         c3    208    ccc    C15   9157 0.33498000  12.010000   ; qtot 0.670955
 9158         h1    208    ccc    H18   9158 0.06178000   1.008000   ; qtot 0.732735
 9159         h1    208    ccc    H19   9159 0.11278000   1.008000   ; qtot 0.845515
 9160         h2    208    ccc    H20   9160 0.12178000   1.008000   ; qtot 0.967295
 9161         oh    208    ccc     O1   9161 -0.56972000  16.000000   ; qtot 0.397575
 9162         oh    208    ccc     O6   9162 -0.57772000  16.000000   ; qtot -0.180145
 9163         c3    208    ccc    C16   9163 0.14548000  12.010000   ; qtot -0.034665
 9164         ho    208    ccc    H21   9164 0.40508000   1.008000   ; qtot 0.370415
 9165         hn    208    ccc    H22   9165 0.31758000   1.008000   ; qtot 0.687995
 9166         h1    208    ccc    H23   9166 0.06278000   1.008000   ; qtot 0.750775
 9167         h1    208    ccc    H24   9167 0.06278000   1.008000   ; qtot 0.813555
 9168         oh    208    ccc     O7   9168 -0.59472000  16.000000   ; qtot 0.218835
 9169         ho    208    ccc    H25   9169 0.41908000   1.008000   ; qtot 0.637915
 9170         os    208    ccc     O8   9170 -0.44552000  16.000000   ; qtot 0.192395
 9171         ho    208    ccc    H26   9171 0.41908000   1.008000   ; qtot 0.611475
 9172         h1    208    ccc    H27   9172 0.08578000   1.008000   ; qtot 0.697255
 9173         oh    208    ccc     O9   9173 -0.58672000  16.000000   ; qtot 0.110535
 9174         ho    208    ccc    H28   9174 0.41908000   1.008000   ; qtot 0.529615
 9175         n3    208    ccc     N3   9175 -0.54282000  14.010000   ; qtot -0.013205
 9176         c3    208    ccc    C17   9176 0.08518000  12.010000   ; qtot 0.071975
 9177         c3    208    ccc    C18   9177 0.07918000  12.010000   ; qtot 0.151155
 9178         h1    208    ccc    H29   9178 0.06978000   1.008000   ; qtot 0.220935
 9179         c3    208    ccc    C19   9179 0.07918000  12.010000   ; qtot 0.300115
 9180         c3    208    ccc    C20   9180 0.03578000  12.010000   ; qtot 0.335895
 9181         c3    208    ccc    C21   9181 0.33498000  12.010000   ; qtot 0.670875
 9182         h1    208    ccc    H30   9182 0.06178000   1.008000   ; qtot 0.732655
 9183         h1    208    ccc    H31   9183 0.11278000   1.008000   ; qtot 0.845435
 9184         h2    208    ccc    H32   9184 0.12178000   1.008000   ; qtot 0.967215
 9185         oh    208    ccc    O10   9185 -0.56972000  16.000000   ; qtot 0.397495
 9186         oh    208    ccc    O11   9186 -0.57772000  16.000000   ; qtot -0.180225
 9187         c3    208    ccc    C22   9187 0.14548000  12.010000   ; qtot -0.034745
 9188         ho    208    ccc    H33   9188 0.40508000   1.008000   ; qtot 0.370335
 9189         hn    208    ccc    H34   9189 0.31758000   1.008000   ; qtot 0.687915
 9190         h1    208    ccc    H35   9190 0.06278000   1.008000   ; qtot 0.750695
 9191         h1    208    ccc    H36   9191 0.06278000   1.008000   ; qtot 0.813475
 9192         oh    208    ccc    O12   9192 -0.59472000  16.000000   ; qtot 0.218755
 9193         ho    208    ccc    H37   9193 0.41908000   1.008000   ; qtot 0.637835
 9194         os    208    ccc    O13   9194 -0.44552000  16.000000   ; qtot 0.192315
 9195         ho    208    ccc    H38   9195 0.41908000   1.008000   ; qtot 0.611395
 9196         h1    208    ccc    H39   9196 0.08578000   1.008000   ; qtot 0.697175
 9197         oh    208    ccc     O5   9197 -0.58672000  16.000000   ; qtot 0.110455
 9198         ho    208    ccc    H40   9198 0.41908000   1.008000   ; qtot 0.529535
 9199         n3    208    ccc     N4   9199 -0.54282000  14.010000   ; qtot -0.013285
; residue  209 ccc rtp ccc q -0.0
 9200          n    209    ccc     N1   9200 -0.46580000  14.010000   ; qtot -0.479085
 9201         hn    209    ccc     H4   9201 0.31480000   1.008000   ; qtot -0.164285
 9202         c3    209    ccc     C3   9202 -0.28250000  12.010000   ; qtot -0.446785
 9203         h1    209    ccc     H5   9203 0.15710000   1.008000   ; qtot -0.289685
 9204         c3    209    ccc     C4   9204 0.44180000  12.010000   ; qtot 0.152115
 9205         h1    209    ccc     H6   9205 0.15710000   1.008000   ; qtot 0.309215
 9206         h1    209    ccc     H7   9206 -0.03530000   1.008000   ; qtot 0.273915
 9207         h1    209    ccc     H8   9207 -0.03530000   1.008000   ; qtot 0.238615
 9208         n3    209    ccc     N2   9208 -0.74090000  14.010000   ; qtot -0.502285
 9209         c3    209    ccc     C5   9209 0.51680000  12.010000   ; qtot 0.014515
 9210         c3    209    ccc     C6   9210 0.51680000  12.010000   ; qtot 0.531315
 9211         h1    209    ccc     H9   9211 -0.05230000   1.008000   ; qtot 0.479015
 9212         c3    209    ccc     C7   9212 -0.60390000  12.010000   ; qtot -0.124885
 9213         h1    209    ccc    H10   9213 -0.05230000   1.008000   ; qtot -0.177185
 9214         hc    209    ccc    H11   9214 0.16730000   1.008000   ; qtot -0.009885
 9215         hc    209    ccc    H12   9215 0.16730000   1.008000   ; qtot 0.157415
 9216          c    209    ccc     C8   9216 0.72110000  12.010000   ; qtot 0.878515
 9217          o    209    ccc     O2   9217 -0.61950000  16.000000   ; qtot 0.259015
 9218         h1    209    ccc    H13   9218 -0.05230000   1.008000   ; qtot 0.206715
 9219         h1    209    ccc    H14   9219 -0.05230000   1.008000   ; qtot 0.154415
 9220         c3    209    ccc     C9   9220 -0.60390000  12.010000   ; qtot -0.449485
 9221         hc    209    ccc    H15   9221 0.16730000   1.008000   ; qtot -0.282185
 9222         hc    209    ccc    H16   9222 0.16730000   1.008000   ; qtot -0.114885
 9223          c    209    ccc    C10   9223 0.72110000  12.010000   ; qtot 0.606215
 9224          o    209    ccc     O4   9224 -0.61950000  16.000000   ; qtot -0.013285
 9225         c3    209    ccc    C11   9225 0.08518000  12.010000   ; qtot 0.071895
 9226         c3    209    ccc    C12   9226 0.07918000  12.010000   ; qtot 0.151075
 9227         h1    209    ccc    H17   9227 0.06978000   1.008000   ; qtot 0.220855
 9228         c3    209    ccc    C13   9228 0.07918000  12.010000   ; qtot 0.300035
 9229         c3    209    ccc    C14   9229 0.03578000  12.010000   ; qtot 0.335815
 9230         c3    209    ccc    C15   9230 0.33498000  12.010000   ; qtot 0.670795
 9231         h1    209    ccc    H18   9231 0.06178000   1.008000   ; qtot 0.732575
 9232         h1    209    ccc    H19   9232 0.11278000   1.008000   ; qtot 0.845355
 9233         h2    209    ccc    H20   9233 0.12178000   1.008000   ; qtot 0.967135
 9234         oh    209    ccc     O1   9234 -0.56972000  16.000000   ; qtot 0.397415
 9235         oh    209    ccc     O6   9235 -0.57772000  16.000000   ; qtot -0.180305
 9236         c3    209    ccc    C16   9236 0.14548000  12.010000   ; qtot -0.034825
 9237         ho    209    ccc    H21   9237 0.40508000   1.008000   ; qtot 0.370255
 9238         hn    209    ccc    H22   9238 0.31758000   1.008000   ; qtot 0.687835
 9239         h1    209    ccc    H23   9239 0.06278000   1.008000   ; qtot 0.750615
 9240         h1    209    ccc    H24   9240 0.06278000   1.008000   ; qtot 0.813395
 9241         oh    209    ccc     O7   9241 -0.59472000  16.000000   ; qtot 0.218675
 9242         ho    209    ccc    H25   9242 0.41908000   1.008000   ; qtot 0.637755
 9243         os    209    ccc     O8   9243 -0.44552000  16.000000   ; qtot 0.192235
 9244         ho    209    ccc    H26   9244 0.41908000   1.008000   ; qtot 0.611315
 9245         h1    209    ccc    H27   9245 0.08578000   1.008000   ; qtot 0.697095
 9246         oh    209    ccc     O9   9246 -0.58672000  16.000000   ; qtot 0.110375
 9247         ho    209    ccc    H28   9247 0.41908000   1.008000   ; qtot 0.529455
 9248         n3    209    ccc     N3   9248 -0.54282000  14.010000   ; qtot -0.013365
 9249         c3    209    ccc    C17   9249 0.08518000  12.010000   ; qtot 0.071815
 9250         c3    209    ccc    C18   9250 0.07918000  12.010000   ; qtot 0.150995
 9251         h1    209    ccc    H29   9251 0.06978000   1.008000   ; qtot 0.220775
 9252         c3    209    ccc    C19   9252 0.07918000  12.010000   ; qtot 0.299955
 9253         c3    209    ccc    C20   9253 0.03578000  12.010000   ; qtot 0.335735
 9254         c3    209    ccc    C21   9254 0.33498000  12.010000   ; qtot 0.670715
 9255         h1    209    ccc    H30   9255 0.06178000   1.008000   ; qtot 0.732495
 9256         h1    209    ccc    H31   9256 0.11278000   1.008000   ; qtot 0.845275
 9257         h2    209    ccc    H32   9257 0.12178000   1.008000   ; qtot 0.967055
 9258         oh    209    ccc    O10   9258 -0.56972000  16.000000   ; qtot 0.397335
 9259         oh    209    ccc    O11   9259 -0.57772000  16.000000   ; qtot -0.180385
 9260         c3    209    ccc    C22   9260 0.14548000  12.010000   ; qtot -0.034905
 9261         ho    209    ccc    H33   9261 0.40508000   1.008000   ; qtot 0.370175
 9262         hn    209    ccc    H34   9262 0.31758000   1.008000   ; qtot 0.687755
 9263         h1    209    ccc    H35   9263 0.06278000   1.008000   ; qtot 0.750535
 9264         h1    209    ccc    H36   9264 0.06278000   1.008000   ; qtot 0.813315
 9265         oh    209    ccc    O12   9265 -0.59472000  16.000000   ; qtot 0.218595
 9266         ho    209    ccc    H37   9266 0.41908000   1.008000   ; qtot 0.637675
 9267         os    209    ccc    O13   9267 -0.44552000  16.000000   ; qtot 0.192155
 9268         ho    209    ccc    H38   9268 0.41908000   1.008000   ; qtot 0.611235
 9269         h1    209    ccc    H39   9269 0.08578000   1.008000   ; qtot 0.697015
 9270         oh    209    ccc     O5   9270 -0.58672000  16.000000   ; qtot 0.110295
 9271         ho    209    ccc    H40   9271 0.41908000   1.008000   ; qtot 0.529375
 9272         n3    209    ccc     N4   9272 -0.54282000  14.010000   ; qtot -0.013445
; residue  210 ccc rtp ccc q -0.0
 9273          n    210    ccc     N1   9273 -0.46580000  14.010000   ; qtot -0.479245
 9274         hn    210    ccc     H4   9274 0.31480000   1.008000   ; qtot -0.164445
 9275         c3    210    ccc     C3   9275 -0.28250000  12.010000   ; qtot -0.446945
 9276         h1    210    ccc     H5   9276 0.15710000   1.008000   ; qtot -0.289845
 9277         c3    210    ccc     C4   9277 0.44180000  12.010000   ; qtot 0.151955
 9278         h1    210    ccc     H6   9278 0.15710000   1.008000   ; qtot 0.309055
 9279         h1    210    ccc     H7   9279 -0.03530000   1.008000   ; qtot 0.273755
 9280         h1    210    ccc     H8   9280 -0.03530000   1.008000   ; qtot 0.238455
 9281         n3    210    ccc     N2   9281 -0.74090000  14.010000   ; qtot -0.502445
 9282         c3    210    ccc     C5   9282 0.51680000  12.010000   ; qtot 0.014355
 9283         c3    210    ccc     C6   9283 0.51680000  12.010000   ; qtot 0.531155
 9284         h1    210    ccc     H9   9284 -0.05230000   1.008000   ; qtot 0.478855
 9285         c3    210    ccc     C7   9285 -0.60390000  12.010000   ; qtot -0.125045
 9286         h1    210    ccc    H10   9286 -0.05230000   1.008000   ; qtot -0.177345
 9287         hc    210    ccc    H11   9287 0.16730000   1.008000   ; qtot -0.010045
 9288         hc    210    ccc    H12   9288 0.16730000   1.008000   ; qtot 0.157255
 9289          c    210    ccc     C8   9289 0.72110000  12.010000   ; qtot 0.878355
 9290          o    210    ccc     O2   9290 -0.61950000  16.000000   ; qtot 0.258855
 9291         h1    210    ccc    H13   9291 -0.05230000   1.008000   ; qtot 0.206555
 9292         h1    210    ccc    H14   9292 -0.05230000   1.008000   ; qtot 0.154255
 9293         c3    210    ccc     C9   9293 -0.60390000  12.010000   ; qtot -0.449645
 9294         hc    210    ccc    H15   9294 0.16730000   1.008000   ; qtot -0.282345
 9295         hc    210    ccc    H16   9295 0.16730000   1.008000   ; qtot -0.115045
 9296          c    210    ccc    C10   9296 0.72110000  12.010000   ; qtot 0.606055
 9297          o    210    ccc     O4   9297 -0.61950000  16.000000   ; qtot -0.013445
 9298         c3    210    ccc    C11   9298 0.08518000  12.010000   ; qtot 0.071735
 9299         c3    210    ccc    C12   9299 0.07918000  12.010000   ; qtot 0.150915
 9300         h1    210    ccc    H17   9300 0.06978000   1.008000   ; qtot 0.220695
 9301         c3    210    ccc    C13   9301 0.07918000  12.010000   ; qtot 0.299875
 9302         c3    210    ccc    C14   9302 0.03578000  12.010000   ; qtot 0.335655
 9303         c3    210    ccc    C15   9303 0.33498000  12.010000   ; qtot 0.670635
 9304         h1    210    ccc    H18   9304 0.06178000   1.008000   ; qtot 0.732415
 9305         h1    210    ccc    H19   9305 0.11278000   1.008000   ; qtot 0.845195
 9306         h2    210    ccc    H20   9306 0.12178000   1.008000   ; qtot 0.966975
 9307         oh    210    ccc     O1   9307 -0.56972000  16.000000   ; qtot 0.397255
 9308         oh    210    ccc     O6   9308 -0.57772000  16.000000   ; qtot -0.180465
 9309         c3    210    ccc    C16   9309 0.14548000  12.010000   ; qtot -0.034985
 9310         ho    210    ccc    H21   9310 0.40508000   1.008000   ; qtot 0.370095
 9311         hn    210    ccc    H22   9311 0.31758000   1.008000   ; qtot 0.687675
 9312         h1    210    ccc    H23   9312 0.06278000   1.008000   ; qtot 0.750455
 9313         h1    210    ccc    H24   9313 0.06278000   1.008000   ; qtot 0.813235
 9314         oh    210    ccc     O7   9314 -0.59472000  16.000000   ; qtot 0.218515
 9315         ho    210    ccc    H25   9315 0.41908000   1.008000   ; qtot 0.637595
 9316         os    210    ccc     O8   9316 -0.44552000  16.000000   ; qtot 0.192075
 9317         ho    210    ccc    H26   9317 0.41908000   1.008000   ; qtot 0.611155
 9318         h1    210    ccc    H27   9318 0.08578000   1.008000   ; qtot 0.696935
 9319         oh    210    ccc     O9   9319 -0.58672000  16.000000   ; qtot 0.110215
 9320         ho    210    ccc    H28   9320 0.41908000   1.008000   ; qtot 0.529295
 9321         n3    210    ccc     N3   9321 -0.54282000  14.010000   ; qtot -0.013525
 9322         c3    210    ccc    C17   9322 0.08518000  12.010000   ; qtot 0.071655
 9323         c3    210    ccc    C18   9323 0.07918000  12.010000   ; qtot 0.150835
 9324         h1    210    ccc    H29   9324 0.06978000   1.008000   ; qtot 0.220615
 9325         c3    210    ccc    C19   9325 0.07918000  12.010000   ; qtot 0.299795
 9326         c3    210    ccc    C20   9326 0.03578000  12.010000   ; qtot 0.335575
 9327         c3    210    ccc    C21   9327 0.33498000  12.010000   ; qtot 0.670555
 9328         h1    210    ccc    H30   9328 0.06178000   1.008000   ; qtot 0.732335
 9329         h1    210    ccc    H31   9329 0.11278000   1.008000   ; qtot 0.845115
 9330         h2    210    ccc    H32   9330 0.12178000   1.008000   ; qtot 0.966895
 9331         oh    210    ccc    O10   9331 -0.56972000  16.000000   ; qtot 0.397175
 9332         oh    210    ccc    O11   9332 -0.57772000  16.000000   ; qtot -0.180545
 9333         c3    210    ccc    C22   9333 0.14548000  12.010000   ; qtot -0.035065
 9334         ho    210    ccc    H33   9334 0.40508000   1.008000   ; qtot 0.370015
 9335         hn    210    ccc    H34   9335 0.31758000   1.008000   ; qtot 0.687595
 9336         h1    210    ccc    H35   9336 0.06278000   1.008000   ; qtot 0.750375
 9337         h1    210    ccc    H36   9337 0.06278000   1.008000   ; qtot 0.813155
 9338         oh    210    ccc    O12   9338 -0.59472000  16.000000   ; qtot 0.218435
 9339         ho    210    ccc    H37   9339 0.41908000   1.008000   ; qtot 0.637515
 9340         os    210    ccc    O13   9340 -0.44552000  16.000000   ; qtot 0.191995
 9341         ho    210    ccc    H38   9341 0.41908000   1.008000   ; qtot 0.611075
 9342         h1    210    ccc    H39   9342 0.08578000   1.008000   ; qtot 0.696855
 9343         oh    210    ccc     O5   9343 -0.58672000  16.000000   ; qtot 0.110135
 9344         ho    210    ccc    H40   9344 0.41908000   1.008000   ; qtot 0.529215
 9345         n3    210    ccc     N4   9345 -0.54282000  14.010000   ; qtot -0.013605
; residue  211 ccc rtp ccc q -0.0
 9346          n    211    ccc     N1   9346 -0.46580000  14.010000   ; qtot -0.479405
 9347         hn    211    ccc     H4   9347 0.31480000   1.008000   ; qtot -0.164605
 9348         c3    211    ccc     C3   9348 -0.28250000  12.010000   ; qtot -0.447105
 9349         h1    211    ccc     H5   9349 0.15710000   1.008000   ; qtot -0.290005
 9350         c3    211    ccc     C4   9350 0.44180000  12.010000   ; qtot 0.151795
 9351         h1    211    ccc     H6   9351 0.15710000   1.008000   ; qtot 0.308895
 9352         h1    211    ccc     H7   9352 -0.03530000   1.008000   ; qtot 0.273595
 9353         h1    211    ccc     H8   9353 -0.03530000   1.008000   ; qtot 0.238295
 9354         n3    211    ccc     N2   9354 -0.74090000  14.010000   ; qtot -0.502605
 9355         c3    211    ccc     C5   9355 0.51680000  12.010000   ; qtot 0.014195
 9356         c3    211    ccc     C6   9356 0.51680000  12.010000   ; qtot 0.530995
 9357         h1    211    ccc     H9   9357 -0.05230000   1.008000   ; qtot 0.478695
 9358         c3    211    ccc     C7   9358 -0.60390000  12.010000   ; qtot -0.125205
 9359         h1    211    ccc    H10   9359 -0.05230000   1.008000   ; qtot -0.177505
 9360         hc    211    ccc    H11   9360 0.16730000   1.008000   ; qtot -0.010205
 9361         hc    211    ccc    H12   9361 0.16730000   1.008000   ; qtot 0.157095
 9362          c    211    ccc     C8   9362 0.72110000  12.010000   ; qtot 0.878195
 9363          o    211    ccc     O2   9363 -0.61950000  16.000000   ; qtot 0.258695
 9364         h1    211    ccc    H13   9364 -0.05230000   1.008000   ; qtot 0.206395
 9365         h1    211    ccc    H14   9365 -0.05230000   1.008000   ; qtot 0.154095
 9366         c3    211    ccc     C9   9366 -0.60390000  12.010000   ; qtot -0.449805
 9367         hc    211    ccc    H15   9367 0.16730000   1.008000   ; qtot -0.282505
 9368         hc    211    ccc    H16   9368 0.16730000   1.008000   ; qtot -0.115205
 9369          c    211    ccc    C10   9369 0.72110000  12.010000   ; qtot 0.605895
 9370          o    211    ccc     O4   9370 -0.61950000  16.000000   ; qtot -0.013605
 9371         c3    211    ccc    C11   9371 0.08518000  12.010000   ; qtot 0.071575
 9372         c3    211    ccc    C12   9372 0.07918000  12.010000   ; qtot 0.150755
 9373         h1    211    ccc    H17   9373 0.06978000   1.008000   ; qtot 0.220535
 9374         c3    211    ccc    C13   9374 0.07918000  12.010000   ; qtot 0.299715
 9375         c3    211    ccc    C14   9375 0.03578000  12.010000   ; qtot 0.335495
 9376         c3    211    ccc    C15   9376 0.33498000  12.010000   ; qtot 0.670475
 9377         h1    211    ccc    H18   9377 0.06178000   1.008000   ; qtot 0.732255
 9378         h1    211    ccc    H19   9378 0.11278000   1.008000   ; qtot 0.845035
 9379         h2    211    ccc    H20   9379 0.12178000   1.008000   ; qtot 0.966815
 9380         oh    211    ccc     O1   9380 -0.56972000  16.000000   ; qtot 0.397095
 9381         oh    211    ccc     O6   9381 -0.57772000  16.000000   ; qtot -0.180625
 9382         c3    211    ccc    C16   9382 0.14548000  12.010000   ; qtot -0.035145
 9383         ho    211    ccc    H21   9383 0.40508000   1.008000   ; qtot 0.369935
 9384         hn    211    ccc    H22   9384 0.31758000   1.008000   ; qtot 0.687515
 9385         h1    211    ccc    H23   9385 0.06278000   1.008000   ; qtot 0.750295
 9386         h1    211    ccc    H24   9386 0.06278000   1.008000   ; qtot 0.813075
 9387         oh    211    ccc     O7   9387 -0.59472000  16.000000   ; qtot 0.218355
 9388         ho    211    ccc    H25   9388 0.41908000   1.008000   ; qtot 0.637435
 9389         os    211    ccc     O8   9389 -0.44552000  16.000000   ; qtot 0.191915
 9390         ho    211    ccc    H26   9390 0.41908000   1.008000   ; qtot 0.610995
 9391         h1    211    ccc    H27   9391 0.08578000   1.008000   ; qtot 0.696775
 9392         oh    211    ccc     O9   9392 -0.58672000  16.000000   ; qtot 0.110055
 9393         ho    211    ccc    H28   9393 0.41908000   1.008000   ; qtot 0.529135
 9394         n3    211    ccc     N3   9394 -0.54282000  14.010000   ; qtot -0.013685
 9395         c3    211    ccc    C17   9395 0.08518000  12.010000   ; qtot 0.071495
 9396         c3    211    ccc    C18   9396 0.07918000  12.010000   ; qtot 0.150675
 9397         h1    211    ccc    H29   9397 0.06978000   1.008000   ; qtot 0.220455
 9398         c3    211    ccc    C19   9398 0.07918000  12.010000   ; qtot 0.299635
 9399         c3    211    ccc    C20   9399 0.03578000  12.010000   ; qtot 0.335415
 9400         c3    211    ccc    C21   9400 0.33498000  12.010000   ; qtot 0.670395
 9401         h1    211    ccc    H30   9401 0.06178000   1.008000   ; qtot 0.732175
 9402         h1    211    ccc    H31   9402 0.11278000   1.008000   ; qtot 0.844955
 9403         h2    211    ccc    H32   9403 0.12178000   1.008000   ; qtot 0.966735
 9404         oh    211    ccc    O10   9404 -0.56972000  16.000000   ; qtot 0.397015
 9405         oh    211    ccc    O11   9405 -0.57772000  16.000000   ; qtot -0.180705
 9406         c3    211    ccc    C22   9406 0.14548000  12.010000   ; qtot -0.035225
 9407         ho    211    ccc    H33   9407 0.40508000   1.008000   ; qtot 0.369855
 9408         hn    211    ccc    H34   9408 0.31758000   1.008000   ; qtot 0.687435
 9409         h1    211    ccc    H35   9409 0.06278000   1.008000   ; qtot 0.750215
 9410         h1    211    ccc    H36   9410 0.06278000   1.008000   ; qtot 0.812995
 9411         oh    211    ccc    O12   9411 -0.59472000  16.000000   ; qtot 0.218275
 9412         ho    211    ccc    H37   9412 0.41908000   1.008000   ; qtot 0.637355
 9413         os    211    ccc    O13   9413 -0.44552000  16.000000   ; qtot 0.191835
 9414         ho    211    ccc    H38   9414 0.41908000   1.008000   ; qtot 0.610915
 9415         h1    211    ccc    H39   9415 0.08578000   1.008000   ; qtot 0.696695
 9416         oh    211    ccc     O5   9416 -0.58672000  16.000000   ; qtot 0.109975
 9417         ho    211    ccc    H40   9417 0.41908000   1.008000   ; qtot 0.529055
 9418         n3    211    ccc     N4   9418 -0.54282000  14.010000   ; qtot -0.013765
; residue  212 ccc rtp ccc q -0.0
 9419          n    212    ccc     N1   9419 -0.46580000  14.010000   ; qtot -0.479565
 9420         hn    212    ccc     H4   9420 0.31480000   1.008000   ; qtot -0.164765
 9421         c3    212    ccc     C3   9421 -0.28250000  12.010000   ; qtot -0.447265
 9422         h1    212    ccc     H5   9422 0.15710000   1.008000   ; qtot -0.290165
 9423         c3    212    ccc     C4   9423 0.44180000  12.010000   ; qtot 0.151635
 9424         h1    212    ccc     H6   9424 0.15710000   1.008000   ; qtot 0.308735
 9425         h1    212    ccc     H7   9425 -0.03530000   1.008000   ; qtot 0.273435
 9426         h1    212    ccc     H8   9426 -0.03530000   1.008000   ; qtot 0.238135
 9427         n3    212    ccc     N2   9427 -0.74090000  14.010000   ; qtot -0.502765
 9428         c3    212    ccc     C5   9428 0.51680000  12.010000   ; qtot 0.014035
 9429         c3    212    ccc     C6   9429 0.51680000  12.010000   ; qtot 0.530835
 9430         h1    212    ccc     H9   9430 -0.05230000   1.008000   ; qtot 0.478535
 9431         c3    212    ccc     C7   9431 -0.60390000  12.010000   ; qtot -0.125365
 9432         h1    212    ccc    H10   9432 -0.05230000   1.008000   ; qtot -0.177665
 9433         hc    212    ccc    H11   9433 0.16730000   1.008000   ; qtot -0.010365
 9434         hc    212    ccc    H12   9434 0.16730000   1.008000   ; qtot 0.156935
 9435          c    212    ccc     C8   9435 0.72110000  12.010000   ; qtot 0.878035
 9436          o    212    ccc     O2   9436 -0.61950000  16.000000   ; qtot 0.258535
 9437         h1    212    ccc    H13   9437 -0.05230000   1.008000   ; qtot 0.206235
 9438         h1    212    ccc    H14   9438 -0.05230000   1.008000   ; qtot 0.153935
 9439         c3    212    ccc     C9   9439 -0.60390000  12.010000   ; qtot -0.449965
 9440         hc    212    ccc    H15   9440 0.16730000   1.008000   ; qtot -0.282665
 9441         hc    212    ccc    H16   9441 0.16730000   1.008000   ; qtot -0.115365
 9442          c    212    ccc    C10   9442 0.72110000  12.010000   ; qtot 0.605735
 9443          o    212    ccc     O4   9443 -0.61950000  16.000000   ; qtot -0.013765
 9444         c3    212    ccc    C11   9444 0.08518000  12.010000   ; qtot 0.071415
 9445         c3    212    ccc    C12   9445 0.07918000  12.010000   ; qtot 0.150595
 9446         h1    212    ccc    H17   9446 0.06978000   1.008000   ; qtot 0.220375
 9447         c3    212    ccc    C13   9447 0.07918000  12.010000   ; qtot 0.299555
 9448         c3    212    ccc    C14   9448 0.03578000  12.010000   ; qtot 0.335335
 9449         c3    212    ccc    C15   9449 0.33498000  12.010000   ; qtot 0.670315
 9450         h1    212    ccc    H18   9450 0.06178000   1.008000   ; qtot 0.732095
 9451         h1    212    ccc    H19   9451 0.11278000   1.008000   ; qtot 0.844875
 9452         h2    212    ccc    H20   9452 0.12178000   1.008000   ; qtot 0.966655
 9453         oh    212    ccc     O1   9453 -0.56972000  16.000000   ; qtot 0.396935
 9454         oh    212    ccc     O6   9454 -0.57772000  16.000000   ; qtot -0.180785
 9455         c3    212    ccc    C16   9455 0.14548000  12.010000   ; qtot -0.035305
 9456         ho    212    ccc    H21   9456 0.40508000   1.008000   ; qtot 0.369775
 9457         hn    212    ccc    H22   9457 0.31758000   1.008000   ; qtot 0.687355
 9458         h1    212    ccc    H23   9458 0.06278000   1.008000   ; qtot 0.750135
 9459         h1    212    ccc    H24   9459 0.06278000   1.008000   ; qtot 0.812915
 9460         oh    212    ccc     O7   9460 -0.59472000  16.000000   ; qtot 0.218195
 9461         ho    212    ccc    H25   9461 0.41908000   1.008000   ; qtot 0.637275
 9462         os    212    ccc     O8   9462 -0.44552000  16.000000   ; qtot 0.191755
 9463         ho    212    ccc    H26   9463 0.41908000   1.008000   ; qtot 0.610835
 9464         h1    212    ccc    H27   9464 0.08578000   1.008000   ; qtot 0.696615
 9465         oh    212    ccc     O9   9465 -0.58672000  16.000000   ; qtot 0.109895
 9466         ho    212    ccc    H28   9466 0.41908000   1.008000   ; qtot 0.528975
 9467         n3    212    ccc     N3   9467 -0.54282000  14.010000   ; qtot -0.013845
 9468         c3    212    ccc    C17   9468 0.08518000  12.010000   ; qtot 0.071335
 9469         c3    212    ccc    C18   9469 0.07918000  12.010000   ; qtot 0.150515
 9470         h1    212    ccc    H29   9470 0.06978000   1.008000   ; qtot 0.220295
 9471         c3    212    ccc    C19   9471 0.07918000  12.010000   ; qtot 0.299475
 9472         c3    212    ccc    C20   9472 0.03578000  12.010000   ; qtot 0.335255
 9473         c3    212    ccc    C21   9473 0.33498000  12.010000   ; qtot 0.670235
 9474         h1    212    ccc    H30   9474 0.06178000   1.008000   ; qtot 0.732015
 9475         h1    212    ccc    H31   9475 0.11278000   1.008000   ; qtot 0.844795
 9476         h2    212    ccc    H32   9476 0.12178000   1.008000   ; qtot 0.966575
 9477         oh    212    ccc    O10   9477 -0.56972000  16.000000   ; qtot 0.396855
 9478         oh    212    ccc    O11   9478 -0.57772000  16.000000   ; qtot -0.180865
 9479         c3    212    ccc    C22   9479 0.14548000  12.010000   ; qtot -0.035385
 9480         ho    212    ccc    H33   9480 0.40508000   1.008000   ; qtot 0.369695
 9481         hn    212    ccc    H34   9481 0.31758000   1.008000   ; qtot 0.687275
 9482         h1    212    ccc    H35   9482 0.06278000   1.008000   ; qtot 0.750055
 9483         h1    212    ccc    H36   9483 0.06278000   1.008000   ; qtot 0.812835
 9484         oh    212    ccc    O12   9484 -0.59472000  16.000000   ; qtot 0.218115
 9485         ho    212    ccc    H37   9485 0.41908000   1.008000   ; qtot 0.637195
 9486         os    212    ccc    O13   9486 -0.44552000  16.000000   ; qtot 0.191675
 9487         ho    212    ccc    H38   9487 0.41908000   1.008000   ; qtot 0.610755
 9488         h1    212    ccc    H39   9488 0.08578000   1.008000   ; qtot 0.696535
 9489         oh    212    ccc     O5   9489 -0.58672000  16.000000   ; qtot 0.109815
 9490         ho    212    ccc    H40   9490 0.41908000   1.008000   ; qtot 0.528895
 9491         n3    212    ccc     N4   9491 -0.54282000  14.010000   ; qtot -0.013925
; residue  213 ccc rtp ccc q -0.0
 9492          n    213    ccc     N1   9492 -0.46580000  14.010000   ; qtot -0.479725
 9493         hn    213    ccc     H4   9493 0.31480000   1.008000   ; qtot -0.164925
 9494         c3    213    ccc     C3   9494 -0.28250000  12.010000   ; qtot -0.447425
 9495         h1    213    ccc     H5   9495 0.15710000   1.008000   ; qtot -0.290325
 9496         c3    213    ccc     C4   9496 0.44180000  12.010000   ; qtot 0.151475
 9497         h1    213    ccc     H6   9497 0.15710000   1.008000   ; qtot 0.308575
 9498         h1    213    ccc     H7   9498 -0.03530000   1.008000   ; qtot 0.273275
 9499         h1    213    ccc     H8   9499 -0.03530000   1.008000   ; qtot 0.237975
 9500         n3    213    ccc     N2   9500 -0.74090000  14.010000   ; qtot -0.502925
 9501         c3    213    ccc     C5   9501 0.51680000  12.010000   ; qtot 0.013875
 9502         c3    213    ccc     C6   9502 0.51680000  12.010000   ; qtot 0.530675
 9503         h1    213    ccc     H9   9503 -0.05230000   1.008000   ; qtot 0.478375
 9504         c3    213    ccc     C7   9504 -0.60390000  12.010000   ; qtot -0.125525
 9505         h1    213    ccc    H10   9505 -0.05230000   1.008000   ; qtot -0.177825
 9506         hc    213    ccc    H11   9506 0.16730000   1.008000   ; qtot -0.010525
 9507         hc    213    ccc    H12   9507 0.16730000   1.008000   ; qtot 0.156775
 9508          c    213    ccc     C8   9508 0.72110000  12.010000   ; qtot 0.877875
 9509          o    213    ccc     O2   9509 -0.61950000  16.000000   ; qtot 0.258375
 9510         h1    213    ccc    H13   9510 -0.05230000   1.008000   ; qtot 0.206075
 9511         h1    213    ccc    H14   9511 -0.05230000   1.008000   ; qtot 0.153775
 9512         c3    213    ccc     C9   9512 -0.60390000  12.010000   ; qtot -0.450125
 9513         hc    213    ccc    H15   9513 0.16730000   1.008000   ; qtot -0.282825
 9514         hc    213    ccc    H16   9514 0.16730000   1.008000   ; qtot -0.115525
 9515          c    213    ccc    C10   9515 0.72110000  12.010000   ; qtot 0.605575
 9516          o    213    ccc     O4   9516 -0.61950000  16.000000   ; qtot -0.013925
 9517         c3    213    ccc    C11   9517 0.08518000  12.010000   ; qtot 0.071255
 9518         c3    213    ccc    C12   9518 0.07918000  12.010000   ; qtot 0.150435
 9519         h1    213    ccc    H17   9519 0.06978000   1.008000   ; qtot 0.220215
 9520         c3    213    ccc    C13   9520 0.07918000  12.010000   ; qtot 0.299395
 9521         c3    213    ccc    C14   9521 0.03578000  12.010000   ; qtot 0.335175
 9522         c3    213    ccc    C15   9522 0.33498000  12.010000   ; qtot 0.670155
 9523         h1    213    ccc    H18   9523 0.06178000   1.008000   ; qtot 0.731935
 9524         h1    213    ccc    H19   9524 0.11278000   1.008000   ; qtot 0.844715
 9525         h2    213    ccc    H20   9525 0.12178000   1.008000   ; qtot 0.966495
 9526         oh    213    ccc     O1   9526 -0.56972000  16.000000   ; qtot 0.396775
 9527         oh    213    ccc     O6   9527 -0.57772000  16.000000   ; qtot -0.180945
 9528         c3    213    ccc    C16   9528 0.14548000  12.010000   ; qtot -0.035465
 9529         ho    213    ccc    H21   9529 0.40508000   1.008000   ; qtot 0.369615
 9530         hn    213    ccc    H22   9530 0.31758000   1.008000   ; qtot 0.687195
 9531         h1    213    ccc    H23   9531 0.06278000   1.008000   ; qtot 0.749975
 9532         h1    213    ccc    H24   9532 0.06278000   1.008000   ; qtot 0.812755
 9533         oh    213    ccc     O7   9533 -0.59472000  16.000000   ; qtot 0.218035
 9534         ho    213    ccc    H25   9534 0.41908000   1.008000   ; qtot 0.637115
 9535         os    213    ccc     O8   9535 -0.44552000  16.000000   ; qtot 0.191595
 9536         ho    213    ccc    H26   9536 0.41908000   1.008000   ; qtot 0.610675
 9537         h1    213    ccc    H27   9537 0.08578000   1.008000   ; qtot 0.696455
 9538         oh    213    ccc     O9   9538 -0.58672000  16.000000   ; qtot 0.109735
 9539         ho    213    ccc    H28   9539 0.41908000   1.008000   ; qtot 0.528815
 9540         n3    213    ccc     N3   9540 -0.54282000  14.010000   ; qtot -0.014005
 9541         c3    213    ccc    C17   9541 0.08518000  12.010000   ; qtot 0.071175
 9542         c3    213    ccc    C18   9542 0.07918000  12.010000   ; qtot 0.150355
 9543         h1    213    ccc    H29   9543 0.06978000   1.008000   ; qtot 0.220135
 9544         c3    213    ccc    C19   9544 0.07918000  12.010000   ; qtot 0.299315
 9545         c3    213    ccc    C20   9545 0.03578000  12.010000   ; qtot 0.335095
 9546         c3    213    ccc    C21   9546 0.33498000  12.010000   ; qtot 0.670075
 9547         h1    213    ccc    H30   9547 0.06178000   1.008000   ; qtot 0.731855
 9548         h1    213    ccc    H31   9548 0.11278000   1.008000   ; qtot 0.844635
 9549         h2    213    ccc    H32   9549 0.12178000   1.008000   ; qtot 0.966415
 9550         oh    213    ccc    O10   9550 -0.56972000  16.000000   ; qtot 0.396695
 9551         oh    213    ccc    O11   9551 -0.57772000  16.000000   ; qtot -0.181025
 9552         c3    213    ccc    C22   9552 0.14548000  12.010000   ; qtot -0.035545
 9553         ho    213    ccc    H33   9553 0.40508000   1.008000   ; qtot 0.369535
 9554         hn    213    ccc    H34   9554 0.31758000   1.008000   ; qtot 0.687115
 9555         h1    213    ccc    H35   9555 0.06278000   1.008000   ; qtot 0.749895
 9556         h1    213    ccc    H36   9556 0.06278000   1.008000   ; qtot 0.812675
 9557         oh    213    ccc    O12   9557 -0.59472000  16.000000   ; qtot 0.217955
 9558         ho    213    ccc    H37   9558 0.41908000   1.008000   ; qtot 0.637035
 9559         os    213    ccc    O13   9559 -0.44552000  16.000000   ; qtot 0.191515
 9560         ho    213    ccc    H38   9560 0.41908000   1.008000   ; qtot 0.610595
 9561         h1    213    ccc    H39   9561 0.08578000   1.008000   ; qtot 0.696375
 9562         oh    213    ccc     O5   9562 -0.58672000  16.000000   ; qtot 0.109655
 9563         ho    213    ccc    H40   9563 0.41908000   1.008000   ; qtot 0.528735
 9564         n3    213    ccc     N4   9564 -0.54282000  14.010000   ; qtot -0.014085
; residue  214 ccc rtp ccc q -0.0
 9565          n    214    ccc     N1   9565 -0.46580000  14.010000   ; qtot -0.479885
 9566         hn    214    ccc     H4   9566 0.31480000   1.008000   ; qtot -0.165085
 9567         c3    214    ccc     C3   9567 -0.28250000  12.010000   ; qtot -0.447585
 9568         h1    214    ccc     H5   9568 0.15710000   1.008000   ; qtot -0.290485
 9569         c3    214    ccc     C4   9569 0.44180000  12.010000   ; qtot 0.151315
 9570         h1    214    ccc     H6   9570 0.15710000   1.008000   ; qtot 0.308415
 9571         h1    214    ccc     H7   9571 -0.03530000   1.008000   ; qtot 0.273115
 9572         h1    214    ccc     H8   9572 -0.03530000   1.008000   ; qtot 0.237815
 9573         n3    214    ccc     N2   9573 -0.74090000  14.010000   ; qtot -0.503085
 9574         c3    214    ccc     C5   9574 0.51680000  12.010000   ; qtot 0.013715
 9575         c3    214    ccc     C6   9575 0.51680000  12.010000   ; qtot 0.530515
 9576         h1    214    ccc     H9   9576 -0.05230000   1.008000   ; qtot 0.478215
 9577         c3    214    ccc     C7   9577 -0.60390000  12.010000   ; qtot -0.125685
 9578         h1    214    ccc    H10   9578 -0.05230000   1.008000   ; qtot -0.177985
 9579         hc    214    ccc    H11   9579 0.16730000   1.008000   ; qtot -0.010685
 9580         hc    214    ccc    H12   9580 0.16730000   1.008000   ; qtot 0.156615
 9581          c    214    ccc     C8   9581 0.72110000  12.010000   ; qtot 0.877715
 9582          o    214    ccc     O2   9582 -0.61950000  16.000000   ; qtot 0.258215
 9583         h1    214    ccc    H13   9583 -0.05230000   1.008000   ; qtot 0.205915
 9584         h1    214    ccc    H14   9584 -0.05230000   1.008000   ; qtot 0.153615
 9585         c3    214    ccc     C9   9585 -0.60390000  12.010000   ; qtot -0.450285
 9586         hc    214    ccc    H15   9586 0.16730000   1.008000   ; qtot -0.282985
 9587         hc    214    ccc    H16   9587 0.16730000   1.008000   ; qtot -0.115685
 9588          c    214    ccc    C10   9588 0.72110000  12.010000   ; qtot 0.605415
 9589          o    214    ccc     O4   9589 -0.61950000  16.000000   ; qtot -0.014085
 9590         c3    214    ccc    C11   9590 0.08518000  12.010000   ; qtot 0.071095
 9591         c3    214    ccc    C12   9591 0.07918000  12.010000   ; qtot 0.150275
 9592         h1    214    ccc    H17   9592 0.06978000   1.008000   ; qtot 0.220055
 9593         c3    214    ccc    C13   9593 0.07918000  12.010000   ; qtot 0.299235
 9594         c3    214    ccc    C14   9594 0.03578000  12.010000   ; qtot 0.335015
 9595         c3    214    ccc    C15   9595 0.33498000  12.010000   ; qtot 0.669995
 9596         h1    214    ccc    H18   9596 0.06178000   1.008000   ; qtot 0.731775
 9597         h1    214    ccc    H19   9597 0.11278000   1.008000   ; qtot 0.844555
 9598         h2    214    ccc    H20   9598 0.12178000   1.008000   ; qtot 0.966335
 9599         oh    214    ccc     O1   9599 -0.56972000  16.000000   ; qtot 0.396615
 9600         oh    214    ccc     O6   9600 -0.57772000  16.000000   ; qtot -0.181105
 9601         c3    214    ccc    C16   9601 0.14548000  12.010000   ; qtot -0.035625
 9602         ho    214    ccc    H21   9602 0.40508000   1.008000   ; qtot 0.369455
 9603         hn    214    ccc    H22   9603 0.31758000   1.008000   ; qtot 0.687035
 9604         h1    214    ccc    H23   9604 0.06278000   1.008000   ; qtot 0.749815
 9605         h1    214    ccc    H24   9605 0.06278000   1.008000   ; qtot 0.812595
 9606         oh    214    ccc     O7   9606 -0.59472000  16.000000   ; qtot 0.217875
 9607         ho    214    ccc    H25   9607 0.41908000   1.008000   ; qtot 0.636955
 9608         os    214    ccc     O8   9608 -0.44552000  16.000000   ; qtot 0.191435
 9609         ho    214    ccc    H26   9609 0.41908000   1.008000   ; qtot 0.610515
 9610         h1    214    ccc    H27   9610 0.08578000   1.008000   ; qtot 0.696295
 9611         oh    214    ccc     O9   9611 -0.58672000  16.000000   ; qtot 0.109575
 9612         ho    214    ccc    H28   9612 0.41908000   1.008000   ; qtot 0.528655
 9613         n3    214    ccc     N3   9613 -0.54282000  14.010000   ; qtot -0.014165
 9614         c3    214    ccc    C17   9614 0.08518000  12.010000   ; qtot 0.071015
 9615         c3    214    ccc    C18   9615 0.07918000  12.010000   ; qtot 0.150195
 9616         h1    214    ccc    H29   9616 0.06978000   1.008000   ; qtot 0.219975
 9617         c3    214    ccc    C19   9617 0.07918000  12.010000   ; qtot 0.299155
 9618         c3    214    ccc    C20   9618 0.03578000  12.010000   ; qtot 0.334935
 9619         c3    214    ccc    C21   9619 0.33498000  12.010000   ; qtot 0.669915
 9620         h1    214    ccc    H30   9620 0.06178000   1.008000   ; qtot 0.731695
 9621         h1    214    ccc    H31   9621 0.11278000   1.008000   ; qtot 0.844475
 9622         h2    214    ccc    H32   9622 0.12178000   1.008000   ; qtot 0.966255
 9623         oh    214    ccc    O10   9623 -0.56972000  16.000000   ; qtot 0.396535
 9624         oh    214    ccc    O11   9624 -0.57772000  16.000000   ; qtot -0.181185
 9625         c3    214    ccc    C22   9625 0.14548000  12.010000   ; qtot -0.035705
 9626         ho    214    ccc    H33   9626 0.40508000   1.008000   ; qtot 0.369375
 9627         hn    214    ccc    H34   9627 0.31758000   1.008000   ; qtot 0.686955
 9628         h1    214    ccc    H35   9628 0.06278000   1.008000   ; qtot 0.749735
 9629         h1    214    ccc    H36   9629 0.06278000   1.008000   ; qtot 0.812515
 9630         oh    214    ccc    O12   9630 -0.59472000  16.000000   ; qtot 0.217795
 9631         ho    214    ccc    H37   9631 0.41908000   1.008000   ; qtot 0.636875
 9632         os    214    ccc    O13   9632 -0.44552000  16.000000   ; qtot 0.191355
 9633         ho    214    ccc    H38   9633 0.41908000   1.008000   ; qtot 0.610435
 9634         h1    214    ccc    H39   9634 0.08578000   1.008000   ; qtot 0.696215
 9635         oh    214    ccc     O5   9635 -0.58672000  16.000000   ; qtot 0.109495
 9636         ho    214    ccc    H40   9636 0.41908000   1.008000   ; qtot 0.528575
 9637         n3    214    ccc     N4   9637 -0.54282000  14.010000   ; qtot -0.014245
; residue  215 ccc rtp ccc q -0.0
 9638          n    215    ccc     N1   9638 -0.46580000  14.010000   ; qtot -0.480045
 9639         hn    215    ccc     H4   9639 0.31480000   1.008000   ; qtot -0.165245
 9640         c3    215    ccc     C3   9640 -0.28250000  12.010000   ; qtot -0.447745
 9641         h1    215    ccc     H5   9641 0.15710000   1.008000   ; qtot -0.290645
 9642         c3    215    ccc     C4   9642 0.44180000  12.010000   ; qtot 0.151155
 9643         h1    215    ccc     H6   9643 0.15710000   1.008000   ; qtot 0.308255
 9644         h1    215    ccc     H7   9644 -0.03530000   1.008000   ; qtot 0.272955
 9645         h1    215    ccc     H8   9645 -0.03530000   1.008000   ; qtot 0.237655
 9646         n3    215    ccc     N2   9646 -0.74090000  14.010000   ; qtot -0.503245
 9647         c3    215    ccc     C5   9647 0.51680000  12.010000   ; qtot 0.013555
 9648         c3    215    ccc     C6   9648 0.51680000  12.010000   ; qtot 0.530355
 9649         h1    215    ccc     H9   9649 -0.05230000   1.008000   ; qtot 0.478055
 9650         c3    215    ccc     C7   9650 -0.60390000  12.010000   ; qtot -0.125845
 9651         h1    215    ccc    H10   9651 -0.05230000   1.008000   ; qtot -0.178145
 9652         hc    215    ccc    H11   9652 0.16730000   1.008000   ; qtot -0.010845
 9653         hc    215    ccc    H12   9653 0.16730000   1.008000   ; qtot 0.156455
 9654          c    215    ccc     C8   9654 0.72110000  12.010000   ; qtot 0.877555
 9655          o    215    ccc     O2   9655 -0.61950000  16.000000   ; qtot 0.258055
 9656         h1    215    ccc    H13   9656 -0.05230000   1.008000   ; qtot 0.205755
 9657         h1    215    ccc    H14   9657 -0.05230000   1.008000   ; qtot 0.153455
 9658         c3    215    ccc     C9   9658 -0.60390000  12.010000   ; qtot -0.450445
 9659         hc    215    ccc    H15   9659 0.16730000   1.008000   ; qtot -0.283145
 9660         hc    215    ccc    H16   9660 0.16730000   1.008000   ; qtot -0.115845
 9661          c    215    ccc    C10   9661 0.72110000  12.010000   ; qtot 0.605255
 9662          o    215    ccc     O4   9662 -0.61950000  16.000000   ; qtot -0.014245
 9663         c3    215    ccc    C11   9663 0.08518000  12.010000   ; qtot 0.070935
 9664         c3    215    ccc    C12   9664 0.07918000  12.010000   ; qtot 0.150115
 9665         h1    215    ccc    H17   9665 0.06978000   1.008000   ; qtot 0.219895
 9666         c3    215    ccc    C13   9666 0.07918000  12.010000   ; qtot 0.299075
 9667         c3    215    ccc    C14   9667 0.03578000  12.010000   ; qtot 0.334855
 9668         c3    215    ccc    C15   9668 0.33498000  12.010000   ; qtot 0.669835
 9669         h1    215    ccc    H18   9669 0.06178000   1.008000   ; qtot 0.731615
 9670         h1    215    ccc    H19   9670 0.11278000   1.008000   ; qtot 0.844395
 9671         h2    215    ccc    H20   9671 0.12178000   1.008000   ; qtot 0.966175
 9672         oh    215    ccc     O1   9672 -0.56972000  16.000000   ; qtot 0.396455
 9673         oh    215    ccc     O6   9673 -0.57772000  16.000000   ; qtot -0.181265
 9674         c3    215    ccc    C16   9674 0.14548000  12.010000   ; qtot -0.035785
 9675         ho    215    ccc    H21   9675 0.40508000   1.008000   ; qtot 0.369295
 9676         hn    215    ccc    H22   9676 0.31758000   1.008000   ; qtot 0.686875
 9677         h1    215    ccc    H23   9677 0.06278000   1.008000   ; qtot 0.749655
 9678         h1    215    ccc    H24   9678 0.06278000   1.008000   ; qtot 0.812435
 9679         oh    215    ccc     O7   9679 -0.59472000  16.000000   ; qtot 0.217715
 9680         ho    215    ccc    H25   9680 0.41908000   1.008000   ; qtot 0.636795
 9681         os    215    ccc     O8   9681 -0.44552000  16.000000   ; qtot 0.191275
 9682         ho    215    ccc    H26   9682 0.41908000   1.008000   ; qtot 0.610355
 9683         h1    215    ccc    H27   9683 0.08578000   1.008000   ; qtot 0.696135
 9684         oh    215    ccc     O9   9684 -0.58672000  16.000000   ; qtot 0.109415
 9685         ho    215    ccc    H28   9685 0.41908000   1.008000   ; qtot 0.528495
 9686         n3    215    ccc     N3   9686 -0.54282000  14.010000   ; qtot -0.014325
 9687         c3    215    ccc    C17   9687 0.08518000  12.010000   ; qtot 0.070855
 9688         c3    215    ccc    C18   9688 0.07918000  12.010000   ; qtot 0.150035
 9689         h1    215    ccc    H29   9689 0.06978000   1.008000   ; qtot 0.219815
 9690         c3    215    ccc    C19   9690 0.07918000  12.010000   ; qtot 0.298995
 9691         c3    215    ccc    C20   9691 0.03578000  12.010000   ; qtot 0.334775
 9692         c3    215    ccc    C21   9692 0.33498000  12.010000   ; qtot 0.669755
 9693         h1    215    ccc    H30   9693 0.06178000   1.008000   ; qtot 0.731535
 9694         h1    215    ccc    H31   9694 0.11278000   1.008000   ; qtot 0.844315
 9695         h2    215    ccc    H32   9695 0.12178000   1.008000   ; qtot 0.966095
 9696         oh    215    ccc    O10   9696 -0.56972000  16.000000   ; qtot 0.396375
 9697         oh    215    ccc    O11   9697 -0.57772000  16.000000   ; qtot -0.181345
 9698         c3    215    ccc    C22   9698 0.14548000  12.010000   ; qtot -0.035865
 9699         ho    215    ccc    H33   9699 0.40508000   1.008000   ; qtot 0.369215
 9700         hn    215    ccc    H34   9700 0.31758000   1.008000   ; qtot 0.686795
 9701         h1    215    ccc    H35   9701 0.06278000   1.008000   ; qtot 0.749575
 9702         h1    215    ccc    H36   9702 0.06278000   1.008000   ; qtot 0.812355
 9703         oh    215    ccc    O12   9703 -0.59472000  16.000000   ; qtot 0.217635
 9704         ho    215    ccc    H37   9704 0.41908000   1.008000   ; qtot 0.636715
 9705         os    215    ccc    O13   9705 -0.44552000  16.000000   ; qtot 0.191195
 9706         ho    215    ccc    H38   9706 0.41908000   1.008000   ; qtot 0.610275
 9707         h1    215    ccc    H39   9707 0.08578000   1.008000   ; qtot 0.696055
 9708         oh    215    ccc     O5   9708 -0.58672000  16.000000   ; qtot 0.109335
 9709         ho    215    ccc    H40   9709 0.41908000   1.008000   ; qtot 0.528415
 9710         n3    215    ccc     N4   9710 -0.54282000  14.010000   ; qtot -0.014405
; residue  216 ccc rtp ccc q -0.0
 9711          n    216    ccc     N1   9711 -0.46580000  14.010000   ; qtot -0.480205
 9712         hn    216    ccc     H4   9712 0.31480000   1.008000   ; qtot -0.165405
 9713         c3    216    ccc     C3   9713 -0.28250000  12.010000   ; qtot -0.447905
 9714         h1    216    ccc     H5   9714 0.15710000   1.008000   ; qtot -0.290805
 9715         c3    216    ccc     C4   9715 0.44180000  12.010000   ; qtot 0.150995
 9716         h1    216    ccc     H6   9716 0.15710000   1.008000   ; qtot 0.308095
 9717         h1    216    ccc     H7   9717 -0.03530000   1.008000   ; qtot 0.272795
 9718         h1    216    ccc     H8   9718 -0.03530000   1.008000   ; qtot 0.237495
 9719         n3    216    ccc     N2   9719 -0.74090000  14.010000   ; qtot -0.503405
 9720         c3    216    ccc     C5   9720 0.51680000  12.010000   ; qtot 0.013395
 9721         c3    216    ccc     C6   9721 0.51680000  12.010000   ; qtot 0.530195
 9722         h1    216    ccc     H9   9722 -0.05230000   1.008000   ; qtot 0.477895
 9723         c3    216    ccc     C7   9723 -0.60390000  12.010000   ; qtot -0.126005
 9724         h1    216    ccc    H10   9724 -0.05230000   1.008000   ; qtot -0.178305
 9725         hc    216    ccc    H11   9725 0.16730000   1.008000   ; qtot -0.011005
 9726         hc    216    ccc    H12   9726 0.16730000   1.008000   ; qtot 0.156295
 9727          c    216    ccc     C8   9727 0.72110000  12.010000   ; qtot 0.877395
 9728          o    216    ccc     O2   9728 -0.61950000  16.000000   ; qtot 0.257895
 9729         h1    216    ccc    H13   9729 -0.05230000   1.008000   ; qtot 0.205595
 9730         h1    216    ccc    H14   9730 -0.05230000   1.008000   ; qtot 0.153295
 9731         c3    216    ccc     C9   9731 -0.60390000  12.010000   ; qtot -0.450605
 9732         hc    216    ccc    H15   9732 0.16730000   1.008000   ; qtot -0.283305
 9733         hc    216    ccc    H16   9733 0.16730000   1.008000   ; qtot -0.116005
 9734          c    216    ccc    C10   9734 0.72110000  12.010000   ; qtot 0.605095
 9735          o    216    ccc     O4   9735 -0.61950000  16.000000   ; qtot -0.014405
 9736         c3    216    ccc    C11   9736 0.08518000  12.010000   ; qtot 0.070775
 9737         c3    216    ccc    C12   9737 0.07918000  12.010000   ; qtot 0.149955
 9738         h1    216    ccc    H17   9738 0.06978000   1.008000   ; qtot 0.219735
 9739         c3    216    ccc    C13   9739 0.07918000  12.010000   ; qtot 0.298915
 9740         c3    216    ccc    C14   9740 0.03578000  12.010000   ; qtot 0.334695
 9741         c3    216    ccc    C15   9741 0.33498000  12.010000   ; qtot 0.669675
 9742         h1    216    ccc    H18   9742 0.06178000   1.008000   ; qtot 0.731455
 9743         h1    216    ccc    H19   9743 0.11278000   1.008000   ; qtot 0.844235
 9744         h2    216    ccc    H20   9744 0.12178000   1.008000   ; qtot 0.966015
 9745         oh    216    ccc     O1   9745 -0.56972000  16.000000   ; qtot 0.396295
 9746         oh    216    ccc     O6   9746 -0.57772000  16.000000   ; qtot -0.181425
 9747         c3    216    ccc    C16   9747 0.14548000  12.010000   ; qtot -0.035945
 9748         ho    216    ccc    H21   9748 0.40508000   1.008000   ; qtot 0.369135
 9749         hn    216    ccc    H22   9749 0.31758000   1.008000   ; qtot 0.686715
 9750         h1    216    ccc    H23   9750 0.06278000   1.008000   ; qtot 0.749495
 9751         h1    216    ccc    H24   9751 0.06278000   1.008000   ; qtot 0.812275
 9752         oh    216    ccc     O7   9752 -0.59472000  16.000000   ; qtot 0.217555
 9753         ho    216    ccc    H25   9753 0.41908000   1.008000   ; qtot 0.636635
 9754         os    216    ccc     O8   9754 -0.44552000  16.000000   ; qtot 0.191115
 9755         ho    216    ccc    H26   9755 0.41908000   1.008000   ; qtot 0.610195
 9756         h1    216    ccc    H27   9756 0.08578000   1.008000   ; qtot 0.695975
 9757         oh    216    ccc     O9   9757 -0.58672000  16.000000   ; qtot 0.109255
 9758         ho    216    ccc    H28   9758 0.41908000   1.008000   ; qtot 0.528335
 9759         n3    216    ccc     N3   9759 -0.54282000  14.010000   ; qtot -0.014485
 9760         c3    216    ccc    C17   9760 0.08518000  12.010000   ; qtot 0.070695
 9761         c3    216    ccc    C18   9761 0.07918000  12.010000   ; qtot 0.149875
 9762         h1    216    ccc    H29   9762 0.06978000   1.008000   ; qtot 0.219655
 9763         c3    216    ccc    C19   9763 0.07918000  12.010000   ; qtot 0.298835
 9764         c3    216    ccc    C20   9764 0.03578000  12.010000   ; qtot 0.334615
 9765         c3    216    ccc    C21   9765 0.33498000  12.010000   ; qtot 0.669595
 9766         h1    216    ccc    H30   9766 0.06178000   1.008000   ; qtot 0.731375
 9767         h1    216    ccc    H31   9767 0.11278000   1.008000   ; qtot 0.844155
 9768         h2    216    ccc    H32   9768 0.12178000   1.008000   ; qtot 0.965935
 9769         oh    216    ccc    O10   9769 -0.56972000  16.000000   ; qtot 0.396215
 9770         oh    216    ccc    O11   9770 -0.57772000  16.000000   ; qtot -0.181505
 9771         c3    216    ccc    C22   9771 0.14548000  12.010000   ; qtot -0.036025
 9772         ho    216    ccc    H33   9772 0.40508000   1.008000   ; qtot 0.369055
 9773         hn    216    ccc    H34   9773 0.31758000   1.008000   ; qtot 0.686635
 9774         h1    216    ccc    H35   9774 0.06278000   1.008000   ; qtot 0.749415
 9775         h1    216    ccc    H36   9775 0.06278000   1.008000   ; qtot 0.812195
 9776         oh    216    ccc    O12   9776 -0.59472000  16.000000   ; qtot 0.217475
 9777         ho    216    ccc    H37   9777 0.41908000   1.008000   ; qtot 0.636555
 9778         os    216    ccc    O13   9778 -0.44552000  16.000000   ; qtot 0.191035
 9779         ho    216    ccc    H38   9779 0.41908000   1.008000   ; qtot 0.610115
 9780         h1    216    ccc    H39   9780 0.08578000   1.008000   ; qtot 0.695895
 9781         oh    216    ccc     O5   9781 -0.58672000  16.000000   ; qtot 0.109175
 9782         ho    216    ccc    H40   9782 0.41908000   1.008000   ; qtot 0.528255
 9783         n3    216    ccc     N4   9783 -0.54282000  14.010000   ; qtot -0.014565
; residue  217 ccc rtp ccc q -0.0
 9784          n    217    ccc     N1   9784 -0.46580000  14.010000   ; qtot -0.480365
 9785         hn    217    ccc     H4   9785 0.31480000   1.008000   ; qtot -0.165565
 9786         c3    217    ccc     C3   9786 -0.28250000  12.010000   ; qtot -0.448065
 9787         h1    217    ccc     H5   9787 0.15710000   1.008000   ; qtot -0.290965
 9788         c3    217    ccc     C4   9788 0.44180000  12.010000   ; qtot 0.150835
 9789         h1    217    ccc     H6   9789 0.15710000   1.008000   ; qtot 0.307935
 9790         h1    217    ccc     H7   9790 -0.03530000   1.008000   ; qtot 0.272635
 9791         h1    217    ccc     H8   9791 -0.03530000   1.008000   ; qtot 0.237335
 9792         n3    217    ccc     N2   9792 -0.74090000  14.010000   ; qtot -0.503565
 9793         c3    217    ccc     C5   9793 0.51680000  12.010000   ; qtot 0.013235
 9794         c3    217    ccc     C6   9794 0.51680000  12.010000   ; qtot 0.530035
 9795         h1    217    ccc     H9   9795 -0.05230000   1.008000   ; qtot 0.477735
 9796         c3    217    ccc     C7   9796 -0.60390000  12.010000   ; qtot -0.126165
 9797         h1    217    ccc    H10   9797 -0.05230000   1.008000   ; qtot -0.178465
 9798         hc    217    ccc    H11   9798 0.16730000   1.008000   ; qtot -0.011165
 9799         hc    217    ccc    H12   9799 0.16730000   1.008000   ; qtot 0.156135
 9800          c    217    ccc     C8   9800 0.72110000  12.010000   ; qtot 0.877235
 9801          o    217    ccc     O2   9801 -0.61950000  16.000000   ; qtot 0.257735
 9802         h1    217    ccc    H13   9802 -0.05230000   1.008000   ; qtot 0.205435
 9803         h1    217    ccc    H14   9803 -0.05230000   1.008000   ; qtot 0.153135
 9804         c3    217    ccc     C9   9804 -0.60390000  12.010000   ; qtot -0.450765
 9805         hc    217    ccc    H15   9805 0.16730000   1.008000   ; qtot -0.283465
 9806         hc    217    ccc    H16   9806 0.16730000   1.008000   ; qtot -0.116165
 9807          c    217    ccc    C10   9807 0.72110000  12.010000   ; qtot 0.604935
 9808          o    217    ccc     O4   9808 -0.61950000  16.000000   ; qtot -0.014565
 9809         c3    217    ccc    C11   9809 0.08518000  12.010000   ; qtot 0.070615
 9810         c3    217    ccc    C12   9810 0.07918000  12.010000   ; qtot 0.149795
 9811         h1    217    ccc    H17   9811 0.06978000   1.008000   ; qtot 0.219575
 9812         c3    217    ccc    C13   9812 0.07918000  12.010000   ; qtot 0.298755
 9813         c3    217    ccc    C14   9813 0.03578000  12.010000   ; qtot 0.334535
 9814         c3    217    ccc    C15   9814 0.33498000  12.010000   ; qtot 0.669515
 9815         h1    217    ccc    H18   9815 0.06178000   1.008000   ; qtot 0.731295
 9816         h1    217    ccc    H19   9816 0.11278000   1.008000   ; qtot 0.844075
 9817         h2    217    ccc    H20   9817 0.12178000   1.008000   ; qtot 0.965855
 9818         oh    217    ccc     O1   9818 -0.56972000  16.000000   ; qtot 0.396135
 9819         oh    217    ccc     O6   9819 -0.57772000  16.000000   ; qtot -0.181585
 9820         c3    217    ccc    C16   9820 0.14548000  12.010000   ; qtot -0.036105
 9821         ho    217    ccc    H21   9821 0.40508000   1.008000   ; qtot 0.368975
 9822         hn    217    ccc    H22   9822 0.31758000   1.008000   ; qtot 0.686555
 9823         h1    217    ccc    H23   9823 0.06278000   1.008000   ; qtot 0.749335
 9824         h1    217    ccc    H24   9824 0.06278000   1.008000   ; qtot 0.812115
 9825         oh    217    ccc     O7   9825 -0.59472000  16.000000   ; qtot 0.217395
 9826         ho    217    ccc    H25   9826 0.41908000   1.008000   ; qtot 0.636475
 9827         os    217    ccc     O8   9827 -0.44552000  16.000000   ; qtot 0.190955
 9828         ho    217    ccc    H26   9828 0.41908000   1.008000   ; qtot 0.610035
 9829         h1    217    ccc    H27   9829 0.08578000   1.008000   ; qtot 0.695815
 9830         oh    217    ccc     O9   9830 -0.58672000  16.000000   ; qtot 0.109095
 9831         ho    217    ccc    H28   9831 0.41908000   1.008000   ; qtot 0.528175
 9832         n3    217    ccc     N3   9832 -0.54282000  14.010000   ; qtot -0.014645
 9833         c3    217    ccc    C17   9833 0.08518000  12.010000   ; qtot 0.070535
 9834         c3    217    ccc    C18   9834 0.07918000  12.010000   ; qtot 0.149714
 9835         h1    217    ccc    H29   9835 0.06978000   1.008000   ; qtot 0.219494
 9836         c3    217    ccc    C19   9836 0.07918000  12.010000   ; qtot 0.298674
 9837         c3    217    ccc    C20   9837 0.03578000  12.010000   ; qtot 0.334454
 9838         c3    217    ccc    C21   9838 0.33498000  12.010000   ; qtot 0.669434
 9839         h1    217    ccc    H30   9839 0.06178000   1.008000   ; qtot 0.731214
 9840         h1    217    ccc    H31   9840 0.11278000   1.008000   ; qtot 0.843994
 9841         h2    217    ccc    H32   9841 0.12178000   1.008000   ; qtot 0.965774
 9842         oh    217    ccc    O10   9842 -0.56972000  16.000000   ; qtot 0.396054
 9843         oh    217    ccc    O11   9843 -0.57772000  16.000000   ; qtot -0.181666
 9844         c3    217    ccc    C22   9844 0.14548000  12.010000   ; qtot -0.036186
 9845         ho    217    ccc    H33   9845 0.40508000   1.008000   ; qtot 0.368894
 9846         hn    217    ccc    H34   9846 0.31758000   1.008000   ; qtot 0.686474
 9847         h1    217    ccc    H35   9847 0.06278000   1.008000   ; qtot 0.749254
 9848         h1    217    ccc    H36   9848 0.06278000   1.008000   ; qtot 0.812034
 9849         oh    217    ccc    O12   9849 -0.59472000  16.000000   ; qtot 0.217314
 9850         ho    217    ccc    H37   9850 0.41908000   1.008000   ; qtot 0.636394
 9851         os    217    ccc    O13   9851 -0.44552000  16.000000   ; qtot 0.190874
 9852         ho    217    ccc    H38   9852 0.41908000   1.008000   ; qtot 0.609954
 9853         h1    217    ccc    H39   9853 0.08578000   1.008000   ; qtot 0.695734
 9854         oh    217    ccc     O5   9854 -0.58672000  16.000000   ; qtot 0.109014
 9855         ho    217    ccc    H40   9855 0.41908000   1.008000   ; qtot 0.528094
 9856         n3    217    ccc     N4   9856 -0.54282000  14.010000   ; qtot -0.014726
; residue  218 ccc rtp ccc q -0.0
 9857          n    218    ccc     N1   9857 -0.46580000  14.010000   ; qtot -0.480526
 9858         hn    218    ccc     H4   9858 0.31480000   1.008000   ; qtot -0.165726
 9859         c3    218    ccc     C3   9859 -0.28250000  12.010000   ; qtot -0.448226
 9860         h1    218    ccc     H5   9860 0.15710000   1.008000   ; qtot -0.291126
 9861         c3    218    ccc     C4   9861 0.44180000  12.010000   ; qtot 0.150674
 9862         h1    218    ccc     H6   9862 0.15710000   1.008000   ; qtot 0.307774
 9863         h1    218    ccc     H7   9863 -0.03530000   1.008000   ; qtot 0.272474
 9864         h1    218    ccc     H8   9864 -0.03530000   1.008000   ; qtot 0.237174
 9865         n3    218    ccc     N2   9865 -0.74090000  14.010000   ; qtot -0.503726
 9866         c3    218    ccc     C5   9866 0.51680000  12.010000   ; qtot 0.013074
 9867         c3    218    ccc     C6   9867 0.51680000  12.010000   ; qtot 0.529874
 9868         h1    218    ccc     H9   9868 -0.05230000   1.008000   ; qtot 0.477574
 9869         c3    218    ccc     C7   9869 -0.60390000  12.010000   ; qtot -0.126326
 9870         h1    218    ccc    H10   9870 -0.05230000   1.008000   ; qtot -0.178626
 9871         hc    218    ccc    H11   9871 0.16730000   1.008000   ; qtot -0.011326
 9872         hc    218    ccc    H12   9872 0.16730000   1.008000   ; qtot 0.155974
 9873          c    218    ccc     C8   9873 0.72110000  12.010000   ; qtot 0.877074
 9874          o    218    ccc     O2   9874 -0.61950000  16.000000   ; qtot 0.257574
 9875         h1    218    ccc    H13   9875 -0.05230000   1.008000   ; qtot 0.205274
 9876         h1    218    ccc    H14   9876 -0.05230000   1.008000   ; qtot 0.152974
 9877         c3    218    ccc     C9   9877 -0.60390000  12.010000   ; qtot -0.450926
 9878         hc    218    ccc    H15   9878 0.16730000   1.008000   ; qtot -0.283626
 9879         hc    218    ccc    H16   9879 0.16730000   1.008000   ; qtot -0.116326
 9880          c    218    ccc    C10   9880 0.72110000  12.010000   ; qtot 0.604774
 9881          o    218    ccc     O4   9881 -0.61950000  16.000000   ; qtot -0.014726
 9882         c3    218    ccc    C11   9882 0.08518000  12.010000   ; qtot 0.070454
 9883         c3    218    ccc    C12   9883 0.07918000  12.010000   ; qtot 0.149634
 9884         h1    218    ccc    H17   9884 0.06978000   1.008000   ; qtot 0.219414
 9885         c3    218    ccc    C13   9885 0.07918000  12.010000   ; qtot 0.298594
 9886         c3    218    ccc    C14   9886 0.03578000  12.010000   ; qtot 0.334374
 9887         c3    218    ccc    C15   9887 0.33498000  12.010000   ; qtot 0.669354
 9888         h1    218    ccc    H18   9888 0.06178000   1.008000   ; qtot 0.731134
 9889         h1    218    ccc    H19   9889 0.11278000   1.008000   ; qtot 0.843914
 9890         h2    218    ccc    H20   9890 0.12178000   1.008000   ; qtot 0.965694
 9891         oh    218    ccc     O1   9891 -0.56972000  16.000000   ; qtot 0.395974
 9892         oh    218    ccc     O6   9892 -0.57772000  16.000000   ; qtot -0.181746
 9893         c3    218    ccc    C16   9893 0.14548000  12.010000   ; qtot -0.036266
 9894         ho    218    ccc    H21   9894 0.40508000   1.008000   ; qtot 0.368814
 9895         hn    218    ccc    H22   9895 0.31758000   1.008000   ; qtot 0.686394
 9896         h1    218    ccc    H23   9896 0.06278000   1.008000   ; qtot 0.749174
 9897         h1    218    ccc    H24   9897 0.06278000   1.008000   ; qtot 0.811954
 9898         oh    218    ccc     O7   9898 -0.59472000  16.000000   ; qtot 0.217234
 9899         ho    218    ccc    H25   9899 0.41908000   1.008000   ; qtot 0.636314
 9900         os    218    ccc     O8   9900 -0.44552000  16.000000   ; qtot 0.190794
 9901         ho    218    ccc    H26   9901 0.41908000   1.008000   ; qtot 0.609874
 9902         h1    218    ccc    H27   9902 0.08578000   1.008000   ; qtot 0.695654
 9903         oh    218    ccc     O9   9903 -0.58672000  16.000000   ; qtot 0.108934
 9904         ho    218    ccc    H28   9904 0.41908000   1.008000   ; qtot 0.528014
 9905         n3    218    ccc     N3   9905 -0.54282000  14.010000   ; qtot -0.014806
 9906         c3    218    ccc    C17   9906 0.08518000  12.010000   ; qtot 0.070374
 9907         c3    218    ccc    C18   9907 0.07918000  12.010000   ; qtot 0.149554
 9908         h1    218    ccc    H29   9908 0.06978000   1.008000   ; qtot 0.219334
 9909         c3    218    ccc    C19   9909 0.07918000  12.010000   ; qtot 0.298514
 9910         c3    218    ccc    C20   9910 0.03578000  12.010000   ; qtot 0.334294
 9911         c3    218    ccc    C21   9911 0.33498000  12.010000   ; qtot 0.669274
 9912         h1    218    ccc    H30   9912 0.06178000   1.008000   ; qtot 0.731054
 9913         h1    218    ccc    H31   9913 0.11278000   1.008000   ; qtot 0.843834
 9914         h2    218    ccc    H32   9914 0.12178000   1.008000   ; qtot 0.965614
 9915         oh    218    ccc    O10   9915 -0.56972000  16.000000   ; qtot 0.395894
 9916         oh    218    ccc    O11   9916 -0.57772000  16.000000   ; qtot -0.181826
 9917         c3    218    ccc    C22   9917 0.14548000  12.010000   ; qtot -0.036346
 9918         ho    218    ccc    H33   9918 0.40508000   1.008000   ; qtot 0.368734
 9919         hn    218    ccc    H34   9919 0.31758000   1.008000   ; qtot 0.686314
 9920         h1    218    ccc    H35   9920 0.06278000   1.008000   ; qtot 0.749094
 9921         h1    218    ccc    H36   9921 0.06278000   1.008000   ; qtot 0.811874
 9922         oh    218    ccc    O12   9922 -0.59472000  16.000000   ; qtot 0.217154
 9923         ho    218    ccc    H37   9923 0.41908000   1.008000   ; qtot 0.636234
 9924         os    218    ccc    O13   9924 -0.44552000  16.000000   ; qtot 0.190714
 9925         ho    218    ccc    H38   9925 0.41908000   1.008000   ; qtot 0.609794
 9926         h1    218    ccc    H39   9926 0.08578000   1.008000   ; qtot 0.695574
 9927         oh    218    ccc     O5   9927 -0.58672000  16.000000   ; qtot 0.108854
 9928         ho    218    ccc    H40   9928 0.41908000   1.008000   ; qtot 0.527934
 9929         n3    218    ccc     N4   9929 -0.54282000  14.010000   ; qtot -0.014886
; residue  219 ccc rtp ccc q -0.0
 9930          n    219    ccc     N1   9930 -0.46580000  14.010000   ; qtot -0.480686
 9931         hn    219    ccc     H4   9931 0.31480000   1.008000   ; qtot -0.165886
 9932         c3    219    ccc     C3   9932 -0.28250000  12.010000   ; qtot -0.448386
 9933         h1    219    ccc     H5   9933 0.15710000   1.008000   ; qtot -0.291286
 9934         c3    219    ccc     C4   9934 0.44180000  12.010000   ; qtot 0.150514
 9935         h1    219    ccc     H6   9935 0.15710000   1.008000   ; qtot 0.307614
 9936         h1    219    ccc     H7   9936 -0.03530000   1.008000   ; qtot 0.272314
 9937         h1    219    ccc     H8   9937 -0.03530000   1.008000   ; qtot 0.237014
 9938         n3    219    ccc     N2   9938 -0.74090000  14.010000   ; qtot -0.503886
 9939         c3    219    ccc     C5   9939 0.51680000  12.010000   ; qtot 0.012914
 9940         c3    219    ccc     C6   9940 0.51680000  12.010000   ; qtot 0.529714
 9941         h1    219    ccc     H9   9941 -0.05230000   1.008000   ; qtot 0.477414
 9942         c3    219    ccc     C7   9942 -0.60390000  12.010000   ; qtot -0.126486
 9943         h1    219    ccc    H10   9943 -0.05230000   1.008000   ; qtot -0.178786
 9944         hc    219    ccc    H11   9944 0.16730000   1.008000   ; qtot -0.011486
 9945         hc    219    ccc    H12   9945 0.16730000   1.008000   ; qtot 0.155814
 9946          c    219    ccc     C8   9946 0.72110000  12.010000   ; qtot 0.876914
 9947          o    219    ccc     O2   9947 -0.61950000  16.000000   ; qtot 0.257414
 9948         h1    219    ccc    H13   9948 -0.05230000   1.008000   ; qtot 0.205114
 9949         h1    219    ccc    H14   9949 -0.05230000   1.008000   ; qtot 0.152814
 9950         c3    219    ccc     C9   9950 -0.60390000  12.010000   ; qtot -0.451086
 9951         hc    219    ccc    H15   9951 0.16730000   1.008000   ; qtot -0.283786
 9952         hc    219    ccc    H16   9952 0.16730000   1.008000   ; qtot -0.116486
 9953          c    219    ccc    C10   9953 0.72110000  12.010000   ; qtot 0.604614
 9954          o    219    ccc     O4   9954 -0.61950000  16.000000   ; qtot -0.014886
 9955         c3    219    ccc    C11   9955 0.08518000  12.010000   ; qtot 0.070294
 9956         c3    219    ccc    C12   9956 0.07918000  12.010000   ; qtot 0.149474
 9957         h1    219    ccc    H17   9957 0.06978000   1.008000   ; qtot 0.219254
 9958         c3    219    ccc    C13   9958 0.07918000  12.010000   ; qtot 0.298434
 9959         c3    219    ccc    C14   9959 0.03578000  12.010000   ; qtot 0.334214
 9960         c3    219    ccc    C15   9960 0.33498000  12.010000   ; qtot 0.669194
 9961         h1    219    ccc    H18   9961 0.06178000   1.008000   ; qtot 0.730974
 9962         h1    219    ccc    H19   9962 0.11278000   1.008000   ; qtot 0.843754
 9963         h2    219    ccc    H20   9963 0.12178000   1.008000   ; qtot 0.965534
 9964         oh    219    ccc     O1   9964 -0.56972000  16.000000   ; qtot 0.395814
 9965         oh    219    ccc     O6   9965 -0.57772000  16.000000   ; qtot -0.181906
 9966         c3    219    ccc    C16   9966 0.14548000  12.010000   ; qtot -0.036426
 9967         ho    219    ccc    H21   9967 0.40508000   1.008000   ; qtot 0.368654
 9968         hn    219    ccc    H22   9968 0.31758000   1.008000   ; qtot 0.686234
 9969         h1    219    ccc    H23   9969 0.06278000   1.008000   ; qtot 0.749014
 9970         h1    219    ccc    H24   9970 0.06278000   1.008000   ; qtot 0.811794
 9971         oh    219    ccc     O7   9971 -0.59472000  16.000000   ; qtot 0.217074
 9972         ho    219    ccc    H25   9972 0.41908000   1.008000   ; qtot 0.636154
 9973         os    219    ccc     O8   9973 -0.44552000  16.000000   ; qtot 0.190634
 9974         ho    219    ccc    H26   9974 0.41908000   1.008000   ; qtot 0.609714
 9975         h1    219    ccc    H27   9975 0.08578000   1.008000   ; qtot 0.695494
 9976         oh    219    ccc     O9   9976 -0.58672000  16.000000   ; qtot 0.108774
 9977         ho    219    ccc    H28   9977 0.41908000   1.008000   ; qtot 0.527854
 9978         n3    219    ccc     N3   9978 -0.54282000  14.010000   ; qtot -0.014966
 9979         c3    219    ccc    C17   9979 0.08518000  12.010000   ; qtot 0.070214
 9980         c3    219    ccc    C18   9980 0.07918000  12.010000   ; qtot 0.149394
 9981         h1    219    ccc    H29   9981 0.06978000   1.008000   ; qtot 0.219174
 9982         c3    219    ccc    C19   9982 0.07918000  12.010000   ; qtot 0.298354
 9983         c3    219    ccc    C20   9983 0.03578000  12.010000   ; qtot 0.334134
 9984         c3    219    ccc    C21   9984 0.33498000  12.010000   ; qtot 0.669114
 9985         h1    219    ccc    H30   9985 0.06178000   1.008000   ; qtot 0.730894
 9986         h1    219    ccc    H31   9986 0.11278000   1.008000   ; qtot 0.843674
 9987         h2    219    ccc    H32   9987 0.12178000   1.008000   ; qtot 0.965454
 9988         oh    219    ccc    O10   9988 -0.56972000  16.000000   ; qtot 0.395734
 9989         oh    219    ccc    O11   9989 -0.57772000  16.000000   ; qtot -0.181986
 9990         c3    219    ccc    C22   9990 0.14548000  12.010000   ; qtot -0.036506
 9991         ho    219    ccc    H33   9991 0.40508000   1.008000   ; qtot 0.368574
 9992         hn    219    ccc    H34   9992 0.31758000   1.008000   ; qtot 0.686154
 9993         h1    219    ccc    H35   9993 0.06278000   1.008000   ; qtot 0.748934
 9994         h1    219    ccc    H36   9994 0.06278000   1.008000   ; qtot 0.811714
 9995         oh    219    ccc    O12   9995 -0.59472000  16.000000   ; qtot 0.216994
 9996         ho    219    ccc    H37   9996 0.41908000   1.008000   ; qtot 0.636074
 9997         os    219    ccc    O13   9997 -0.44552000  16.000000   ; qtot 0.190554
 9998         ho    219    ccc    H38   9998 0.41908000   1.008000   ; qtot 0.609634
 9999         h1    219    ccc    H39   9999 0.08578000   1.008000   ; qtot 0.695414
10000         oh    219    ccc     O5  10000 -0.58672000  16.000000   ; qtot 0.108694
10001         ho    219    ccc    H40  10001 0.41908000   1.008000   ; qtot 0.527774
10002         n3    219    ccc     N4  10002 -0.54282000  14.010000   ; qtot -0.015046
; residue  220 ccc rtp ccc q -0.0
10003          n    220    ccc     N1  10003 -0.46580000  14.010000   ; qtot -0.480846
10004         hn    220    ccc     H4  10004 0.31480000   1.008000   ; qtot -0.166046
10005         c3    220    ccc     C3  10005 -0.28250000  12.010000   ; qtot -0.448546
10006         h1    220    ccc     H5  10006 0.15710000   1.008000   ; qtot -0.291446
10007         c3    220    ccc     C4  10007 0.44180000  12.010000   ; qtot 0.150354
10008         h1    220    ccc     H6  10008 0.15710000   1.008000   ; qtot 0.307454
10009         h1    220    ccc     H7  10009 -0.03530000   1.008000   ; qtot 0.272154
10010         h1    220    ccc     H8  10010 -0.03530000   1.008000   ; qtot 0.236854
10011         n3    220    ccc     N2  10011 -0.74090000  14.010000   ; qtot -0.504046
10012         c3    220    ccc     C5  10012 0.51680000  12.010000   ; qtot 0.012754
10013         c3    220    ccc     C6  10013 0.51680000  12.010000   ; qtot 0.529554
10014         h1    220    ccc     H9  10014 -0.05230000   1.008000   ; qtot 0.477254
10015         c3    220    ccc     C7  10015 -0.60390000  12.010000   ; qtot -0.126646
10016         h1    220    ccc    H10  10016 -0.05230000   1.008000   ; qtot -0.178946
10017         hc    220    ccc    H11  10017 0.16730000   1.008000   ; qtot -0.011646
10018         hc    220    ccc    H12  10018 0.16730000   1.008000   ; qtot 0.155654
10019          c    220    ccc     C8  10019 0.72110000  12.010000   ; qtot 0.876754
10020          o    220    ccc     O2  10020 -0.61950000  16.000000   ; qtot 0.257254
10021         h1    220    ccc    H13  10021 -0.05230000   1.008000   ; qtot 0.204954
10022         h1    220    ccc    H14  10022 -0.05230000   1.008000   ; qtot 0.152654
10023         c3    220    ccc     C9  10023 -0.60390000  12.010000   ; qtot -0.451246
10024         hc    220    ccc    H15  10024 0.16730000   1.008000   ; qtot -0.283946
10025         hc    220    ccc    H16  10025 0.16730000   1.008000   ; qtot -0.116646
10026          c    220    ccc    C10  10026 0.72110000  12.010000   ; qtot 0.604454
10027          o    220    ccc     O4  10027 -0.61950000  16.000000   ; qtot -0.015046
10028         c3    220    ccc    C11  10028 0.08518000  12.010000   ; qtot 0.070134
10029         c3    220    ccc    C12  10029 0.07918000  12.010000   ; qtot 0.149314
10030         h1    220    ccc    H17  10030 0.06978000   1.008000   ; qtot 0.219094
10031         c3    220    ccc    C13  10031 0.07918000  12.010000   ; qtot 0.298274
10032         c3    220    ccc    C14  10032 0.03578000  12.010000   ; qtot 0.334054
10033         c3    220    ccc    C15  10033 0.33498000  12.010000   ; qtot 0.669034
10034         h1    220    ccc    H18  10034 0.06178000   1.008000   ; qtot 0.730814
10035         h1    220    ccc    H19  10035 0.11278000   1.008000   ; qtot 0.843594
10036         h2    220    ccc    H20  10036 0.12178000   1.008000   ; qtot 0.965374
10037         oh    220    ccc     O1  10037 -0.56972000  16.000000   ; qtot 0.395654
10038         oh    220    ccc     O6  10038 -0.57772000  16.000000   ; qtot -0.182066
10039         c3    220    ccc    C16  10039 0.14548000  12.010000   ; qtot -0.036586
10040         ho    220    ccc    H21  10040 0.40508000   1.008000   ; qtot 0.368494
10041         hn    220    ccc    H22  10041 0.31758000   1.008000   ; qtot 0.686074
10042         h1    220    ccc    H23  10042 0.06278000   1.008000   ; qtot 0.748854
10043         h1    220    ccc    H24  10043 0.06278000   1.008000   ; qtot 0.811634
10044         oh    220    ccc     O7  10044 -0.59472000  16.000000   ; qtot 0.216914
10045         ho    220    ccc    H25  10045 0.41908000   1.008000   ; qtot 0.635994
10046         os    220    ccc     O8  10046 -0.44552000  16.000000   ; qtot 0.190474
10047         ho    220    ccc    H26  10047 0.41908000   1.008000   ; qtot 0.609554
10048         h1    220    ccc    H27  10048 0.08578000   1.008000   ; qtot 0.695334
10049         oh    220    ccc     O9  10049 -0.58672000  16.000000   ; qtot 0.108614
10050         ho    220    ccc    H28  10050 0.41908000   1.008000   ; qtot 0.527694
10051         n3    220    ccc     N3  10051 -0.54282000  14.010000   ; qtot -0.015126
10052         c3    220    ccc    C17  10052 0.08518000  12.010000   ; qtot 0.070054
10053         c3    220    ccc    C18  10053 0.07918000  12.010000   ; qtot 0.149234
10054         h1    220    ccc    H29  10054 0.06978000   1.008000   ; qtot 0.219014
10055         c3    220    ccc    C19  10055 0.07918000  12.010000   ; qtot 0.298194
10056         c3    220    ccc    C20  10056 0.03578000  12.010000   ; qtot 0.333974
10057         c3    220    ccc    C21  10057 0.33498000  12.010000   ; qtot 0.668954
10058         h1    220    ccc    H30  10058 0.06178000   1.008000   ; qtot 0.730734
10059         h1    220    ccc    H31  10059 0.11278000   1.008000   ; qtot 0.843514
10060         h2    220    ccc    H32  10060 0.12178000   1.008000   ; qtot 0.965294
10061         oh    220    ccc    O10  10061 -0.56972000  16.000000   ; qtot 0.395574
10062         oh    220    ccc    O11  10062 -0.57772000  16.000000   ; qtot -0.182146
10063         c3    220    ccc    C22  10063 0.14548000  12.010000   ; qtot -0.036666
10064         ho    220    ccc    H33  10064 0.40508000   1.008000   ; qtot 0.368414
10065         hn    220    ccc    H34  10065 0.31758000   1.008000   ; qtot 0.685994
10066         h1    220    ccc    H35  10066 0.06278000   1.008000   ; qtot 0.748774
10067         h1    220    ccc    H36  10067 0.06278000   1.008000   ; qtot 0.811554
10068         oh    220    ccc    O12  10068 -0.59472000  16.000000   ; qtot 0.216834
10069         ho    220    ccc    H37  10069 0.41908000   1.008000   ; qtot 0.635914
10070         os    220    ccc    O13  10070 -0.44552000  16.000000   ; qtot 0.190394
10071         ho    220    ccc    H38  10071 0.41908000   1.008000   ; qtot 0.609474
10072         h1    220    ccc    H39  10072 0.08578000   1.008000   ; qtot 0.695254
10073         oh    220    ccc     O5  10073 -0.58672000  16.000000   ; qtot 0.108534
10074         ho    220    ccc    H40  10074 0.41908000   1.008000   ; qtot 0.527614
10075         n3    220    ccc     N4  10075 -0.54282000  14.010000   ; qtot -0.015206
; residue  221 ccc rtp ccc q -0.0
10076          n    221    ccc     N1  10076 -0.46580000  14.010000   ; qtot -0.481006
10077         hn    221    ccc     H4  10077 0.31480000   1.008000   ; qtot -0.166206
10078         c3    221    ccc     C3  10078 -0.28250000  12.010000   ; qtot -0.448706
10079         h1    221    ccc     H5  10079 0.15710000   1.008000   ; qtot -0.291606
10080         c3    221    ccc     C4  10080 0.44180000  12.010000   ; qtot 0.150194
10081         h1    221    ccc     H6  10081 0.15710000   1.008000   ; qtot 0.307294
10082         h1    221    ccc     H7  10082 -0.03530000   1.008000   ; qtot 0.271994
10083         h1    221    ccc     H8  10083 -0.03530000   1.008000   ; qtot 0.236694
10084         n3    221    ccc     N2  10084 -0.74090000  14.010000   ; qtot -0.504206
10085         c3    221    ccc     C5  10085 0.51680000  12.010000   ; qtot 0.012594
10086         c3    221    ccc     C6  10086 0.51680000  12.010000   ; qtot 0.529394
10087         h1    221    ccc     H9  10087 -0.05230000   1.008000   ; qtot 0.477094
10088         c3    221    ccc     C7  10088 -0.60390000  12.010000   ; qtot -0.126806
10089         h1    221    ccc    H10  10089 -0.05230000   1.008000   ; qtot -0.179106
10090         hc    221    ccc    H11  10090 0.16730000   1.008000   ; qtot -0.011806
10091         hc    221    ccc    H12  10091 0.16730000   1.008000   ; qtot 0.155494
10092          c    221    ccc     C8  10092 0.72110000  12.010000   ; qtot 0.876594
10093          o    221    ccc     O2  10093 -0.61950000  16.000000   ; qtot 0.257094
10094         h1    221    ccc    H13  10094 -0.05230000   1.008000   ; qtot 0.204794
10095         h1    221    ccc    H14  10095 -0.05230000   1.008000   ; qtot 0.152494
10096         c3    221    ccc     C9  10096 -0.60390000  12.010000   ; qtot -0.451406
10097         hc    221    ccc    H15  10097 0.16730000   1.008000   ; qtot -0.284106
10098         hc    221    ccc    H16  10098 0.16730000   1.008000   ; qtot -0.116806
10099          c    221    ccc    C10  10099 0.72110000  12.010000   ; qtot 0.604294
10100          o    221    ccc     O4  10100 -0.61950000  16.000000   ; qtot -0.015206
10101         c3    221    ccc    C11  10101 0.08518000  12.010000   ; qtot 0.069974
10102         c3    221    ccc    C12  10102 0.07918000  12.010000   ; qtot 0.149154
10103         h1    221    ccc    H17  10103 0.06978000   1.008000   ; qtot 0.218934
10104         c3    221    ccc    C13  10104 0.07918000  12.010000   ; qtot 0.298114
10105         c3    221    ccc    C14  10105 0.03578000  12.010000   ; qtot 0.333894
10106         c3    221    ccc    C15  10106 0.33498000  12.010000   ; qtot 0.668874
10107         h1    221    ccc    H18  10107 0.06178000   1.008000   ; qtot 0.730654
10108         h1    221    ccc    H19  10108 0.11278000   1.008000   ; qtot 0.843434
10109         h2    221    ccc    H20  10109 0.12178000   1.008000   ; qtot 0.965214
10110         oh    221    ccc     O1  10110 -0.56972000  16.000000   ; qtot 0.395494
10111         oh    221    ccc     O6  10111 -0.57772000  16.000000   ; qtot -0.182226
10112         c3    221    ccc    C16  10112 0.14548000  12.010000   ; qtot -0.036746
10113         ho    221    ccc    H21  10113 0.40508000   1.008000   ; qtot 0.368334
10114         hn    221    ccc    H22  10114 0.31758000   1.008000   ; qtot 0.685914
10115         h1    221    ccc    H23  10115 0.06278000   1.008000   ; qtot 0.748694
10116         h1    221    ccc    H24  10116 0.06278000   1.008000   ; qtot 0.811474
10117         oh    221    ccc     O7  10117 -0.59472000  16.000000   ; qtot 0.216754
10118         ho    221    ccc    H25  10118 0.41908000   1.008000   ; qtot 0.635834
10119         os    221    ccc     O8  10119 -0.44552000  16.000000   ; qtot 0.190314
10120         ho    221    ccc    H26  10120 0.41908000   1.008000   ; qtot 0.609394
10121         h1    221    ccc    H27  10121 0.08578000   1.008000   ; qtot 0.695174
10122         oh    221    ccc     O9  10122 -0.58672000  16.000000   ; qtot 0.108454
10123         ho    221    ccc    H28  10123 0.41908000   1.008000   ; qtot 0.527534
10124         n3    221    ccc     N3  10124 -0.54282000  14.010000   ; qtot -0.015286
10125         c3    221    ccc    C17  10125 0.08518000  12.010000   ; qtot 0.069894
10126         c3    221    ccc    C18  10126 0.07918000  12.010000   ; qtot 0.149074
10127         h1    221    ccc    H29  10127 0.06978000   1.008000   ; qtot 0.218854
10128         c3    221    ccc    C19  10128 0.07918000  12.010000   ; qtot 0.298034
10129         c3    221    ccc    C20  10129 0.03578000  12.010000   ; qtot 0.333814
10130         c3    221    ccc    C21  10130 0.33498000  12.010000   ; qtot 0.668794
10131         h1    221    ccc    H30  10131 0.06178000   1.008000   ; qtot 0.730574
10132         h1    221    ccc    H31  10132 0.11278000   1.008000   ; qtot 0.843354
10133         h2    221    ccc    H32  10133 0.12178000   1.008000   ; qtot 0.965134
10134         oh    221    ccc    O10  10134 -0.56972000  16.000000   ; qtot 0.395414
10135         oh    221    ccc    O11  10135 -0.57772000  16.000000   ; qtot -0.182306
10136         c3    221    ccc    C22  10136 0.14548000  12.010000   ; qtot -0.036826
10137         ho    221    ccc    H33  10137 0.40508000   1.008000   ; qtot 0.368254
10138         hn    221    ccc    H34  10138 0.31758000   1.008000   ; qtot 0.685834
10139         h1    221    ccc    H35  10139 0.06278000   1.008000   ; qtot 0.748614
10140         h1    221    ccc    H36  10140 0.06278000   1.008000   ; qtot 0.811394
10141         oh    221    ccc    O12  10141 -0.59472000  16.000000   ; qtot 0.216674
10142         ho    221    ccc    H37  10142 0.41908000   1.008000   ; qtot 0.635754
10143         os    221    ccc    O13  10143 -0.44552000  16.000000   ; qtot 0.190234
10144         ho    221    ccc    H38  10144 0.41908000   1.008000   ; qtot 0.609314
10145         h1    221    ccc    H39  10145 0.08578000   1.008000   ; qtot 0.695094
10146         oh    221    ccc     O5  10146 -0.58672000  16.000000   ; qtot 0.108374
10147         ho    221    ccc    H40  10147 0.41908000   1.008000   ; qtot 0.527454
10148         n3    221    ccc     N4  10148 -0.54282000  14.010000   ; qtot -0.015366
; residue  222 ccc rtp ccc q -0.0
10149          n    222    ccc     N1  10149 -0.46580000  14.010000   ; qtot -0.481166
10150         hn    222    ccc     H4  10150 0.31480000   1.008000   ; qtot -0.166366
10151         c3    222    ccc     C3  10151 -0.28250000  12.010000   ; qtot -0.448866
10152         h1    222    ccc     H5  10152 0.15710000   1.008000   ; qtot -0.291766
10153         c3    222    ccc     C4  10153 0.44180000  12.010000   ; qtot 0.150034
10154         h1    222    ccc     H6  10154 0.15710000   1.008000   ; qtot 0.307134
10155         h1    222    ccc     H7  10155 -0.03530000   1.008000   ; qtot 0.271834
10156         h1    222    ccc     H8  10156 -0.03530000   1.008000   ; qtot 0.236534
10157         n3    222    ccc     N2  10157 -0.74090000  14.010000   ; qtot -0.504366
10158         c3    222    ccc     C5  10158 0.51680000  12.010000   ; qtot 0.012434
10159         c3    222    ccc     C6  10159 0.51680000  12.010000   ; qtot 0.529234
10160         h1    222    ccc     H9  10160 -0.05230000   1.008000   ; qtot 0.476934
10161         c3    222    ccc     C7  10161 -0.60390000  12.010000   ; qtot -0.126966
10162         h1    222    ccc    H10  10162 -0.05230000   1.008000   ; qtot -0.179266
10163         hc    222    ccc    H11  10163 0.16730000   1.008000   ; qtot -0.011966
10164         hc    222    ccc    H12  10164 0.16730000   1.008000   ; qtot 0.155334
10165          c    222    ccc     C8  10165 0.72110000  12.010000   ; qtot 0.876434
10166          o    222    ccc     O2  10166 -0.61950000  16.000000   ; qtot 0.256934
10167         h1    222    ccc    H13  10167 -0.05230000   1.008000   ; qtot 0.204634
10168         h1    222    ccc    H14  10168 -0.05230000   1.008000   ; qtot 0.152334
10169         c3    222    ccc     C9  10169 -0.60390000  12.010000   ; qtot -0.451566
10170         hc    222    ccc    H15  10170 0.16730000   1.008000   ; qtot -0.284266
10171         hc    222    ccc    H16  10171 0.16730000   1.008000   ; qtot -0.116966
10172          c    222    ccc    C10  10172 0.72110000  12.010000   ; qtot 0.604134
10173          o    222    ccc     O4  10173 -0.61950000  16.000000   ; qtot -0.015366
10174         c3    222    ccc    C11  10174 0.08518000  12.010000   ; qtot 0.069814
10175         c3    222    ccc    C12  10175 0.07918000  12.010000   ; qtot 0.148994
10176         h1    222    ccc    H17  10176 0.06978000   1.008000   ; qtot 0.218774
10177         c3    222    ccc    C13  10177 0.07918000  12.010000   ; qtot 0.297954
10178         c3    222    ccc    C14  10178 0.03578000  12.010000   ; qtot 0.333734
10179         c3    222    ccc    C15  10179 0.33498000  12.010000   ; qtot 0.668714
10180         h1    222    ccc    H18  10180 0.06178000   1.008000   ; qtot 0.730494
10181         h1    222    ccc    H19  10181 0.11278000   1.008000   ; qtot 0.843274
10182         h2    222    ccc    H20  10182 0.12178000   1.008000   ; qtot 0.965054
10183         oh    222    ccc     O1  10183 -0.56972000  16.000000   ; qtot 0.395334
10184         oh    222    ccc     O6  10184 -0.57772000  16.000000   ; qtot -0.182386
10185         c3    222    ccc    C16  10185 0.14548000  12.010000   ; qtot -0.036906
10186         ho    222    ccc    H21  10186 0.40508000   1.008000   ; qtot 0.368174
10187         hn    222    ccc    H22  10187 0.31758000   1.008000   ; qtot 0.685754
10188         h1    222    ccc    H23  10188 0.06278000   1.008000   ; qtot 0.748534
10189         h1    222    ccc    H24  10189 0.06278000   1.008000   ; qtot 0.811314
10190         oh    222    ccc     O7  10190 -0.59472000  16.000000   ; qtot 0.216594
10191         ho    222    ccc    H25  10191 0.41908000   1.008000   ; qtot 0.635674
10192         os    222    ccc     O8  10192 -0.44552000  16.000000   ; qtot 0.190154
10193         ho    222    ccc    H26  10193 0.41908000   1.008000   ; qtot 0.609234
10194         h1    222    ccc    H27  10194 0.08578000   1.008000   ; qtot 0.695014
10195         oh    222    ccc     O9  10195 -0.58672000  16.000000   ; qtot 0.108294
10196         ho    222    ccc    H28  10196 0.41908000   1.008000   ; qtot 0.527374
10197         n3    222    ccc     N3  10197 -0.54282000  14.010000   ; qtot -0.015446
10198         c3    222    ccc    C17  10198 0.08518000  12.010000   ; qtot 0.069734
10199         c3    222    ccc    C18  10199 0.07918000  12.010000   ; qtot 0.148914
10200         h1    222    ccc    H29  10200 0.06978000   1.008000   ; qtot 0.218694
10201         c3    222    ccc    C19  10201 0.07918000  12.010000   ; qtot 0.297874
10202         c3    222    ccc    C20  10202 0.03578000  12.010000   ; qtot 0.333654
10203         c3    222    ccc    C21  10203 0.33498000  12.010000   ; qtot 0.668634
10204         h1    222    ccc    H30  10204 0.06178000   1.008000   ; qtot 0.730414
10205         h1    222    ccc    H31  10205 0.11278000   1.008000   ; qtot 0.843194
10206         h2    222    ccc    H32  10206 0.12178000   1.008000   ; qtot 0.964974
10207         oh    222    ccc    O10  10207 -0.56972000  16.000000   ; qtot 0.395254
10208         oh    222    ccc    O11  10208 -0.57772000  16.000000   ; qtot -0.182466
10209         c3    222    ccc    C22  10209 0.14548000  12.010000   ; qtot -0.036986
10210         ho    222    ccc    H33  10210 0.40508000   1.008000   ; qtot 0.368094
10211         hn    222    ccc    H34  10211 0.31758000   1.008000   ; qtot 0.685674
10212         h1    222    ccc    H35  10212 0.06278000   1.008000   ; qtot 0.748454
10213         h1    222    ccc    H36  10213 0.06278000   1.008000   ; qtot 0.811234
10214         oh    222    ccc    O12  10214 -0.59472000  16.000000   ; qtot 0.216514
10215         ho    222    ccc    H37  10215 0.41908000   1.008000   ; qtot 0.635594
10216         os    222    ccc    O13  10216 -0.44552000  16.000000   ; qtot 0.190074
10217         ho    222    ccc    H38  10217 0.41908000   1.008000   ; qtot 0.609154
10218         h1    222    ccc    H39  10218 0.08578000   1.008000   ; qtot 0.694934
10219         oh    222    ccc     O5  10219 -0.58672000  16.000000   ; qtot 0.108214
10220         ho    222    ccc    H40  10220 0.41908000   1.008000   ; qtot 0.527294
10221         n3    222    ccc     N4  10221 -0.54282000  14.010000   ; qtot -0.015526
; residue  223 ccc rtp ccc q -0.0
10222          n    223    ccc     N1  10222 -0.46580000  14.010000   ; qtot -0.481326
10223         hn    223    ccc     H4  10223 0.31480000   1.008000   ; qtot -0.166526
10224         c3    223    ccc     C3  10224 -0.28250000  12.010000   ; qtot -0.449026
10225         h1    223    ccc     H5  10225 0.15710000   1.008000   ; qtot -0.291926
10226         c3    223    ccc     C4  10226 0.44180000  12.010000   ; qtot 0.149874
10227         h1    223    ccc     H6  10227 0.15710000   1.008000   ; qtot 0.306974
10228         h1    223    ccc     H7  10228 -0.03530000   1.008000   ; qtot 0.271674
10229         h1    223    ccc     H8  10229 -0.03530000   1.008000   ; qtot 0.236374
10230         n3    223    ccc     N2  10230 -0.74090000  14.010000   ; qtot -0.504526
10231         c3    223    ccc     C5  10231 0.51680000  12.010000   ; qtot 0.012274
10232         c3    223    ccc     C6  10232 0.51680000  12.010000   ; qtot 0.529074
10233         h1    223    ccc     H9  10233 -0.05230000   1.008000   ; qtot 0.476774
10234         c3    223    ccc     C7  10234 -0.60390000  12.010000   ; qtot -0.127126
10235         h1    223    ccc    H10  10235 -0.05230000   1.008000   ; qtot -0.179426
10236         hc    223    ccc    H11  10236 0.16730000   1.008000   ; qtot -0.012126
10237         hc    223    ccc    H12  10237 0.16730000   1.008000   ; qtot 0.155174
10238          c    223    ccc     C8  10238 0.72110000  12.010000   ; qtot 0.876274
10239          o    223    ccc     O2  10239 -0.61950000  16.000000   ; qtot 0.256774
10240         h1    223    ccc    H13  10240 -0.05230000   1.008000   ; qtot 0.204474
10241         h1    223    ccc    H14  10241 -0.05230000   1.008000   ; qtot 0.152174
10242         c3    223    ccc     C9  10242 -0.60390000  12.010000   ; qtot -0.451726
10243         hc    223    ccc    H15  10243 0.16730000   1.008000   ; qtot -0.284426
10244         hc    223    ccc    H16  10244 0.16730000   1.008000   ; qtot -0.117126
10245          c    223    ccc    C10  10245 0.72110000  12.010000   ; qtot 0.603974
10246          o    223    ccc     O4  10246 -0.61950000  16.000000   ; qtot -0.015526
10247         c3    223    ccc    C11  10247 0.08518000  12.010000   ; qtot 0.069654
10248         c3    223    ccc    C12  10248 0.07918000  12.010000   ; qtot 0.148834
10249         h1    223    ccc    H17  10249 0.06978000   1.008000   ; qtot 0.218614
10250         c3    223    ccc    C13  10250 0.07918000  12.010000   ; qtot 0.297794
10251         c3    223    ccc    C14  10251 0.03578000  12.010000   ; qtot 0.333574
10252         c3    223    ccc    C15  10252 0.33498000  12.010000   ; qtot 0.668554
10253         h1    223    ccc    H18  10253 0.06178000   1.008000   ; qtot 0.730334
10254         h1    223    ccc    H19  10254 0.11278000   1.008000   ; qtot 0.843114
10255         h2    223    ccc    H20  10255 0.12178000   1.008000   ; qtot 0.964894
10256         oh    223    ccc     O1  10256 -0.56972000  16.000000   ; qtot 0.395174
10257         oh    223    ccc     O6  10257 -0.57772000  16.000000   ; qtot -0.182546
10258         c3    223    ccc    C16  10258 0.14548000  12.010000   ; qtot -0.037066
10259         ho    223    ccc    H21  10259 0.40508000   1.008000   ; qtot 0.368014
10260         hn    223    ccc    H22  10260 0.31758000   1.008000   ; qtot 0.685594
10261         h1    223    ccc    H23  10261 0.06278000   1.008000   ; qtot 0.748374
10262         h1    223    ccc    H24  10262 0.06278000   1.008000   ; qtot 0.811154
10263         oh    223    ccc     O7  10263 -0.59472000  16.000000   ; qtot 0.216434
10264         ho    223    ccc    H25  10264 0.41908000   1.008000   ; qtot 0.635514
10265         os    223    ccc     O8  10265 -0.44552000  16.000000   ; qtot 0.189994
10266         ho    223    ccc    H26  10266 0.41908000   1.008000   ; qtot 0.609074
10267         h1    223    ccc    H27  10267 0.08578000   1.008000   ; qtot 0.694854
10268         oh    223    ccc     O9  10268 -0.58672000  16.000000   ; qtot 0.108134
10269         ho    223    ccc    H28  10269 0.41908000   1.008000   ; qtot 0.527214
10270         n3    223    ccc     N3  10270 -0.54282000  14.010000   ; qtot -0.015606
10271         c3    223    ccc    C17  10271 0.08518000  12.010000   ; qtot 0.069574
10272         c3    223    ccc    C18  10272 0.07918000  12.010000   ; qtot 0.148754
10273         h1    223    ccc    H29  10273 0.06978000   1.008000   ; qtot 0.218534
10274         c3    223    ccc    C19  10274 0.07918000  12.010000   ; qtot 0.297714
10275         c3    223    ccc    C20  10275 0.03578000  12.010000   ; qtot 0.333494
10276         c3    223    ccc    C21  10276 0.33498000  12.010000   ; qtot 0.668474
10277         h1    223    ccc    H30  10277 0.06178000   1.008000   ; qtot 0.730254
10278         h1    223    ccc    H31  10278 0.11278000   1.008000   ; qtot 0.843034
10279         h2    223    ccc    H32  10279 0.12178000   1.008000   ; qtot 0.964814
10280         oh    223    ccc    O10  10280 -0.56972000  16.000000   ; qtot 0.395094
10281         oh    223    ccc    O11  10281 -0.57772000  16.000000   ; qtot -0.182626
10282         c3    223    ccc    C22  10282 0.14548000  12.010000   ; qtot -0.037146
10283         ho    223    ccc    H33  10283 0.40508000   1.008000   ; qtot 0.367934
10284         hn    223    ccc    H34  10284 0.31758000   1.008000   ; qtot 0.685514
10285         h1    223    ccc    H35  10285 0.06278000   1.008000   ; qtot 0.748294
10286         h1    223    ccc    H36  10286 0.06278000   1.008000   ; qtot 0.811074
10287         oh    223    ccc    O12  10287 -0.59472000  16.000000   ; qtot 0.216354
10288         ho    223    ccc    H37  10288 0.41908000   1.008000   ; qtot 0.635434
10289         os    223    ccc    O13  10289 -0.44552000  16.000000   ; qtot 0.189914
10290         ho    223    ccc    H38  10290 0.41908000   1.008000   ; qtot 0.608994
10291         h1    223    ccc    H39  10291 0.08578000   1.008000   ; qtot 0.694774
10292         oh    223    ccc     O5  10292 -0.58672000  16.000000   ; qtot 0.108054
10293         ho    223    ccc    H40  10293 0.41908000   1.008000   ; qtot 0.527134
10294         n3    223    ccc     N4  10294 -0.54282000  14.010000   ; qtot -0.015686
; residue  224 ccc rtp ccc q -0.0
10295          n    224    ccc     N1  10295 -0.46580000  14.010000   ; qtot -0.481486
10296         hn    224    ccc     H4  10296 0.31480000   1.008000   ; qtot -0.166686
10297         c3    224    ccc     C3  10297 -0.28250000  12.010000   ; qtot -0.449186
10298         h1    224    ccc     H5  10298 0.15710000   1.008000   ; qtot -0.292086
10299         c3    224    ccc     C4  10299 0.44180000  12.010000   ; qtot 0.149714
10300         h1    224    ccc     H6  10300 0.15710000   1.008000   ; qtot 0.306814
10301         h1    224    ccc     H7  10301 -0.03530000   1.008000   ; qtot 0.271514
10302         h1    224    ccc     H8  10302 -0.03530000   1.008000   ; qtot 0.236214
10303         n3    224    ccc     N2  10303 -0.74090000  14.010000   ; qtot -0.504686
10304         c3    224    ccc     C5  10304 0.51680000  12.010000   ; qtot 0.012114
10305         c3    224    ccc     C6  10305 0.51680000  12.010000   ; qtot 0.528914
10306         h1    224    ccc     H9  10306 -0.05230000   1.008000   ; qtot 0.476614
10307         c3    224    ccc     C7  10307 -0.60390000  12.010000   ; qtot -0.127286
10308         h1    224    ccc    H10  10308 -0.05230000   1.008000   ; qtot -0.179586
10309         hc    224    ccc    H11  10309 0.16730000   1.008000   ; qtot -0.012286
10310         hc    224    ccc    H12  10310 0.16730000   1.008000   ; qtot 0.155014
10311          c    224    ccc     C8  10311 0.72110000  12.010000   ; qtot 0.876114
10312          o    224    ccc     O2  10312 -0.61950000  16.000000   ; qtot 0.256614
10313         h1    224    ccc    H13  10313 -0.05230000   1.008000   ; qtot 0.204314
10314         h1    224    ccc    H14  10314 -0.05230000   1.008000   ; qtot 0.152014
10315         c3    224    ccc     C9  10315 -0.60390000  12.010000   ; qtot -0.451886
10316         hc    224    ccc    H15  10316 0.16730000   1.008000   ; qtot -0.284586
10317         hc    224    ccc    H16  10317 0.16730000   1.008000   ; qtot -0.117286
10318          c    224    ccc    C10  10318 0.72110000  12.010000   ; qtot 0.603814
10319          o    224    ccc     O4  10319 -0.61950000  16.000000   ; qtot -0.015686
10320         c3    224    ccc    C11  10320 0.08518000  12.010000   ; qtot 0.069494
10321         c3    224    ccc    C12  10321 0.07918000  12.010000   ; qtot 0.148674
10322         h1    224    ccc    H17  10322 0.06978000   1.008000   ; qtot 0.218454
10323         c3    224    ccc    C13  10323 0.07918000  12.010000   ; qtot 0.297634
10324         c3    224    ccc    C14  10324 0.03578000  12.010000   ; qtot 0.333414
10325         c3    224    ccc    C15  10325 0.33498000  12.010000   ; qtot 0.668394
10326         h1    224    ccc    H18  10326 0.06178000   1.008000   ; qtot 0.730174
10327         h1    224    ccc    H19  10327 0.11278000   1.008000   ; qtot 0.842954
10328         h2    224    ccc    H20  10328 0.12178000   1.008000   ; qtot 0.964734
10329         oh    224    ccc     O1  10329 -0.56972000  16.000000   ; qtot 0.395014
10330         oh    224    ccc     O6  10330 -0.57772000  16.000000   ; qtot -0.182706
10331         c3    224    ccc    C16  10331 0.14548000  12.010000   ; qtot -0.037226
10332         ho    224    ccc    H21  10332 0.40508000   1.008000   ; qtot 0.367854
10333         hn    224    ccc    H22  10333 0.31758000   1.008000   ; qtot 0.685434
10334         h1    224    ccc    H23  10334 0.06278000   1.008000   ; qtot 0.748214
10335         h1    224    ccc    H24  10335 0.06278000   1.008000   ; qtot 0.810994
10336         oh    224    ccc     O7  10336 -0.59472000  16.000000   ; qtot 0.216274
10337         ho    224    ccc    H25  10337 0.41908000   1.008000   ; qtot 0.635354
10338         os    224    ccc     O8  10338 -0.44552000  16.000000   ; qtot 0.189834
10339         ho    224    ccc    H26  10339 0.41908000   1.008000   ; qtot 0.608914
10340         h1    224    ccc    H27  10340 0.08578000   1.008000   ; qtot 0.694694
10341         oh    224    ccc     O9  10341 -0.58672000  16.000000   ; qtot 0.107974
10342         ho    224    ccc    H28  10342 0.41908000   1.008000   ; qtot 0.527054
10343         n3    224    ccc     N3  10343 -0.54282000  14.010000   ; qtot -0.015766
10344         c3    224    ccc    C17  10344 0.08518000  12.010000   ; qtot 0.069414
10345         c3    224    ccc    C18  10345 0.07918000  12.010000   ; qtot 0.148594
10346         h1    224    ccc    H29  10346 0.06978000   1.008000   ; qtot 0.218374
10347         c3    224    ccc    C19  10347 0.07918000  12.010000   ; qtot 0.297554
10348         c3    224    ccc    C20  10348 0.03578000  12.010000   ; qtot 0.333334
10349         c3    224    ccc    C21  10349 0.33498000  12.010000   ; qtot 0.668314
10350         h1    224    ccc    H30  10350 0.06178000   1.008000   ; qtot 0.730094
10351         h1    224    ccc    H31  10351 0.11278000   1.008000   ; qtot 0.842874
10352         h2    224    ccc    H32  10352 0.12178000   1.008000   ; qtot 0.964654
10353         oh    224    ccc    O10  10353 -0.56972000  16.000000   ; qtot 0.394934
10354         oh    224    ccc    O11  10354 -0.57772000  16.000000   ; qtot -0.182786
10355         c3    224    ccc    C22  10355 0.14548000  12.010000   ; qtot -0.037306
10356         ho    224    ccc    H33  10356 0.40508000   1.008000   ; qtot 0.367774
10357         hn    224    ccc    H34  10357 0.31758000   1.008000   ; qtot 0.685354
10358         h1    224    ccc    H35  10358 0.06278000   1.008000   ; qtot 0.748134
10359         h1    224    ccc    H36  10359 0.06278000   1.008000   ; qtot 0.810914
10360         oh    224    ccc    O12  10360 -0.59472000  16.000000   ; qtot 0.216194
10361         ho    224    ccc    H37  10361 0.41908000   1.008000   ; qtot 0.635274
10362         os    224    ccc    O13  10362 -0.44552000  16.000000   ; qtot 0.189754
10363         ho    224    ccc    H38  10363 0.41908000   1.008000   ; qtot 0.608834
10364         h1    224    ccc    H39  10364 0.08578000   1.008000   ; qtot 0.694614
10365         oh    224    ccc     O5  10365 -0.58672000  16.000000   ; qtot 0.107894
10366         ho    224    ccc    H40  10366 0.41908000   1.008000   ; qtot 0.526974
10367         n3    224    ccc     N4  10367 -0.54282000  14.010000   ; qtot -0.015846
; residue  225 ccc rtp ccc q -0.0
10368          n    225    ccc     N1  10368 -0.46580000  14.010000   ; qtot -0.481646
10369         hn    225    ccc     H4  10369 0.31480000   1.008000   ; qtot -0.166846
10370         c3    225    ccc     C3  10370 -0.28250000  12.010000   ; qtot -0.449346
10371         h1    225    ccc     H5  10371 0.15710000   1.008000   ; qtot -0.292246
10372         c3    225    ccc     C4  10372 0.44180000  12.010000   ; qtot 0.149554
10373         h1    225    ccc     H6  10373 0.15710000   1.008000   ; qtot 0.306654
10374         h1    225    ccc     H7  10374 -0.03530000   1.008000   ; qtot 0.271354
10375         h1    225    ccc     H8  10375 -0.03530000   1.008000   ; qtot 0.236054
10376         n3    225    ccc     N2  10376 -0.74090000  14.010000   ; qtot -0.504846
10377         c3    225    ccc     C5  10377 0.51680000  12.010000   ; qtot 0.011954
10378         c3    225    ccc     C6  10378 0.51680000  12.010000   ; qtot 0.528754
10379         h1    225    ccc     H9  10379 -0.05230000   1.008000   ; qtot 0.476454
10380         c3    225    ccc     C7  10380 -0.60390000  12.010000   ; qtot -0.127446
10381         h1    225    ccc    H10  10381 -0.05230000   1.008000   ; qtot -0.179746
10382         hc    225    ccc    H11  10382 0.16730000   1.008000   ; qtot -0.012446
10383         hc    225    ccc    H12  10383 0.16730000   1.008000   ; qtot 0.154854
10384          c    225    ccc     C8  10384 0.72110000  12.010000   ; qtot 0.875954
10385          o    225    ccc     O2  10385 -0.61950000  16.000000   ; qtot 0.256454
10386         h1    225    ccc    H13  10386 -0.05230000   1.008000   ; qtot 0.204154
10387         h1    225    ccc    H14  10387 -0.05230000   1.008000   ; qtot 0.151854
10388         c3    225    ccc     C9  10388 -0.60390000  12.010000   ; qtot -0.452046
10389         hc    225    ccc    H15  10389 0.16730000   1.008000   ; qtot -0.284746
10390         hc    225    ccc    H16  10390 0.16730000   1.008000   ; qtot -0.117446
10391          c    225    ccc    C10  10391 0.72110000  12.010000   ; qtot 0.603654
10392          o    225    ccc     O4  10392 -0.61950000  16.000000   ; qtot -0.015846
10393         c3    225    ccc    C11  10393 0.08518000  12.010000   ; qtot 0.069334
10394         c3    225    ccc    C12  10394 0.07918000  12.010000   ; qtot 0.148514
10395         h1    225    ccc    H17  10395 0.06978000   1.008000   ; qtot 0.218294
10396         c3    225    ccc    C13  10396 0.07918000  12.010000   ; qtot 0.297474
10397         c3    225    ccc    C14  10397 0.03578000  12.010000   ; qtot 0.333254
10398         c3    225    ccc    C15  10398 0.33498000  12.010000   ; qtot 0.668234
10399         h1    225    ccc    H18  10399 0.06178000   1.008000   ; qtot 0.730014
10400         h1    225    ccc    H19  10400 0.11278000   1.008000   ; qtot 0.842794
10401         h2    225    ccc    H20  10401 0.12178000   1.008000   ; qtot 0.964574
10402         oh    225    ccc     O1  10402 -0.56972000  16.000000   ; qtot 0.394854
10403         oh    225    ccc     O6  10403 -0.57772000  16.000000   ; qtot -0.182866
10404         c3    225    ccc    C16  10404 0.14548000  12.010000   ; qtot -0.037386
10405         ho    225    ccc    H21  10405 0.40508000   1.008000   ; qtot 0.367694
10406         hn    225    ccc    H22  10406 0.31758000   1.008000   ; qtot 0.685274
10407         h1    225    ccc    H23  10407 0.06278000   1.008000   ; qtot 0.748054
10408         h1    225    ccc    H24  10408 0.06278000   1.008000   ; qtot 0.810834
10409         oh    225    ccc     O7  10409 -0.59472000  16.000000   ; qtot 0.216114
10410         ho    225    ccc    H25  10410 0.41908000   1.008000   ; qtot 0.635194
10411         os    225    ccc     O8  10411 -0.44552000  16.000000   ; qtot 0.189674
10412         ho    225    ccc    H26  10412 0.41908000   1.008000   ; qtot 0.608754
10413         h1    225    ccc    H27  10413 0.08578000   1.008000   ; qtot 0.694534
10414         oh    225    ccc     O9  10414 -0.58672000  16.000000   ; qtot 0.107814
10415         ho    225    ccc    H28  10415 0.41908000   1.008000   ; qtot 0.526894
10416         n3    225    ccc     N3  10416 -0.54282000  14.010000   ; qtot -0.015926
10417         c3    225    ccc    C17  10417 0.08518000  12.010000   ; qtot 0.069254
10418         c3    225    ccc    C18  10418 0.07918000  12.010000   ; qtot 0.148434
10419         h1    225    ccc    H29  10419 0.06978000   1.008000   ; qtot 0.218214
10420         c3    225    ccc    C19  10420 0.07918000  12.010000   ; qtot 0.297394
10421         c3    225    ccc    C20  10421 0.03578000  12.010000   ; qtot 0.333174
10422         c3    225    ccc    C21  10422 0.33498000  12.010000   ; qtot 0.668154
10423         h1    225    ccc    H30  10423 0.06178000   1.008000   ; qtot 0.729934
10424         h1    225    ccc    H31  10424 0.11278000   1.008000   ; qtot 0.842714
10425         h2    225    ccc    H32  10425 0.12178000   1.008000   ; qtot 0.964494
10426         oh    225    ccc    O10  10426 -0.56972000  16.000000   ; qtot 0.394774
10427         oh    225    ccc    O11  10427 -0.57772000  16.000000   ; qtot -0.182946
10428         c3    225    ccc    C22  10428 0.14548000  12.010000   ; qtot -0.037466
10429         ho    225    ccc    H33  10429 0.40508000   1.008000   ; qtot 0.367614
10430         hn    225    ccc    H34  10430 0.31758000   1.008000   ; qtot 0.685194
10431         h1    225    ccc    H35  10431 0.06278000   1.008000   ; qtot 0.747974
10432         h1    225    ccc    H36  10432 0.06278000   1.008000   ; qtot 0.810754
10433         oh    225    ccc    O12  10433 -0.59472000  16.000000   ; qtot 0.216034
10434         ho    225    ccc    H37  10434 0.41908000   1.008000   ; qtot 0.635114
10435         os    225    ccc    O13  10435 -0.44552000  16.000000   ; qtot 0.189594
10436         ho    225    ccc    H38  10436 0.41908000   1.008000   ; qtot 0.608674
10437         h1    225    ccc    H39  10437 0.08578000   1.008000   ; qtot 0.694454
10438         oh    225    ccc     O5  10438 -0.58672000  16.000000   ; qtot 0.107734
10439         ho    225    ccc    H40  10439 0.41908000   1.008000   ; qtot 0.526814
10440         n3    225    ccc     N4  10440 -0.54282000  14.010000   ; qtot -0.016006
; residue  226 ccc rtp ccc q -0.0
10441          n    226    ccc     N1  10441 -0.46580000  14.010000   ; qtot -0.481806
10442         hn    226    ccc     H4  10442 0.31480000   1.008000   ; qtot -0.167006
10443         c3    226    ccc     C3  10443 -0.28250000  12.010000   ; qtot -0.449506
10444         h1    226    ccc     H5  10444 0.15710000   1.008000   ; qtot -0.292406
10445         c3    226    ccc     C4  10445 0.44180000  12.010000   ; qtot 0.149394
10446         h1    226    ccc     H6  10446 0.15710000   1.008000   ; qtot 0.306494
10447         h1    226    ccc     H7  10447 -0.03530000   1.008000   ; qtot 0.271194
10448         h1    226    ccc     H8  10448 -0.03530000   1.008000   ; qtot 0.235894
10449         n3    226    ccc     N2  10449 -0.74090000  14.010000   ; qtot -0.505006
10450         c3    226    ccc     C5  10450 0.51680000  12.010000   ; qtot 0.011794
10451         c3    226    ccc     C6  10451 0.51680000  12.010000   ; qtot 0.528594
10452         h1    226    ccc     H9  10452 -0.05230000   1.008000   ; qtot 0.476294
10453         c3    226    ccc     C7  10453 -0.60390000  12.010000   ; qtot -0.127606
10454         h1    226    ccc    H10  10454 -0.05230000   1.008000   ; qtot -0.179906
10455         hc    226    ccc    H11  10455 0.16730000   1.008000   ; qtot -0.012606
10456         hc    226    ccc    H12  10456 0.16730000   1.008000   ; qtot 0.154694
10457          c    226    ccc     C8  10457 0.72110000  12.010000   ; qtot 0.875794
10458          o    226    ccc     O2  10458 -0.61950000  16.000000   ; qtot 0.256294
10459         h1    226    ccc    H13  10459 -0.05230000   1.008000   ; qtot 0.203994
10460         h1    226    ccc    H14  10460 -0.05230000   1.008000   ; qtot 0.151694
10461         c3    226    ccc     C9  10461 -0.60390000  12.010000   ; qtot -0.452206
10462         hc    226    ccc    H15  10462 0.16730000   1.008000   ; qtot -0.284906
10463         hc    226    ccc    H16  10463 0.16730000   1.008000   ; qtot -0.117606
10464          c    226    ccc    C10  10464 0.72110000  12.010000   ; qtot 0.603494
10465          o    226    ccc     O4  10465 -0.61950000  16.000000   ; qtot -0.016006
10466         c3    226    ccc    C11  10466 0.08518000  12.010000   ; qtot 0.069174
10467         c3    226    ccc    C12  10467 0.07918000  12.010000   ; qtot 0.148354
10468         h1    226    ccc    H17  10468 0.06978000   1.008000   ; qtot 0.218134
10469         c3    226    ccc    C13  10469 0.07918000  12.010000   ; qtot 0.297314
10470         c3    226    ccc    C14  10470 0.03578000  12.010000   ; qtot 0.333094
10471         c3    226    ccc    C15  10471 0.33498000  12.010000   ; qtot 0.668074
10472         h1    226    ccc    H18  10472 0.06178000   1.008000   ; qtot 0.729854
10473         h1    226    ccc    H19  10473 0.11278000   1.008000   ; qtot 0.842634
10474         h2    226    ccc    H20  10474 0.12178000   1.008000   ; qtot 0.964414
10475         oh    226    ccc     O1  10475 -0.56972000  16.000000   ; qtot 0.394694
10476         oh    226    ccc     O6  10476 -0.57772000  16.000000   ; qtot -0.183026
10477         c3    226    ccc    C16  10477 0.14548000  12.010000   ; qtot -0.037546
10478         ho    226    ccc    H21  10478 0.40508000   1.008000   ; qtot 0.367534
10479         hn    226    ccc    H22  10479 0.31758000   1.008000   ; qtot 0.685114
10480         h1    226    ccc    H23  10480 0.06278000   1.008000   ; qtot 0.747894
10481         h1    226    ccc    H24  10481 0.06278000   1.008000   ; qtot 0.810674
10482         oh    226    ccc     O7  10482 -0.59472000  16.000000   ; qtot 0.215954
10483         ho    226    ccc    H25  10483 0.41908000   1.008000   ; qtot 0.635034
10484         os    226    ccc     O8  10484 -0.44552000  16.000000   ; qtot 0.189514
10485         ho    226    ccc    H26  10485 0.41908000   1.008000   ; qtot 0.608594
10486         h1    226    ccc    H27  10486 0.08578000   1.008000   ; qtot 0.694374
10487         oh    226    ccc     O9  10487 -0.58672000  16.000000   ; qtot 0.107654
10488         ho    226    ccc    H28  10488 0.41908000   1.008000   ; qtot 0.526734
10489         n3    226    ccc     N3  10489 -0.54282000  14.010000   ; qtot -0.016086
10490         c3    226    ccc    C17  10490 0.08518000  12.010000   ; qtot 0.069094
10491         c3    226    ccc    C18  10491 0.07918000  12.010000   ; qtot 0.148274
10492         h1    226    ccc    H29  10492 0.06978000   1.008000   ; qtot 0.218054
10493         c3    226    ccc    C19  10493 0.07918000  12.010000   ; qtot 0.297234
10494         c3    226    ccc    C20  10494 0.03578000  12.010000   ; qtot 0.333014
10495         c3    226    ccc    C21  10495 0.33498000  12.010000   ; qtot 0.667994
10496         h1    226    ccc    H30  10496 0.06178000   1.008000   ; qtot 0.729774
10497         h1    226    ccc    H31  10497 0.11278000   1.008000   ; qtot 0.842554
10498         h2    226    ccc    H32  10498 0.12178000   1.008000   ; qtot 0.964334
10499         oh    226    ccc    O10  10499 -0.56972000  16.000000   ; qtot 0.394614
10500         oh    226    ccc    O11  10500 -0.57772000  16.000000   ; qtot -0.183106
10501         c3    226    ccc    C22  10501 0.14548000  12.010000   ; qtot -0.037626
10502         ho    226    ccc    H33  10502 0.40508000   1.008000   ; qtot 0.367454
10503         hn    226    ccc    H34  10503 0.31758000   1.008000   ; qtot 0.685034
10504         h1    226    ccc    H35  10504 0.06278000   1.008000   ; qtot 0.747814
10505         h1    226    ccc    H36  10505 0.06278000   1.008000   ; qtot 0.810594
10506         oh    226    ccc    O12  10506 -0.59472000  16.000000   ; qtot 0.215874
10507         ho    226    ccc    H37  10507 0.41908000   1.008000   ; qtot 0.634954
10508         os    226    ccc    O13  10508 -0.44552000  16.000000   ; qtot 0.189434
10509         ho    226    ccc    H38  10509 0.41908000   1.008000   ; qtot 0.608514
10510         h1    226    ccc    H39  10510 0.08578000   1.008000   ; qtot 0.694294
10511         oh    226    ccc     O5  10511 -0.58672000  16.000000   ; qtot 0.107574
10512         ho    226    ccc    H40  10512 0.41908000   1.008000   ; qtot 0.526654
10513         n3    226    ccc     N4  10513 -0.54282000  14.010000   ; qtot -0.016166
; residue  227 ccc rtp ccc q -0.0
10514          n    227    ccc     N1  10514 -0.46580000  14.010000   ; qtot -0.481966
10515         hn    227    ccc     H4  10515 0.31480000   1.008000   ; qtot -0.167166
10516         c3    227    ccc     C3  10516 -0.28250000  12.010000   ; qtot -0.449666
10517         h1    227    ccc     H5  10517 0.15710000   1.008000   ; qtot -0.292566
10518         c3    227    ccc     C4  10518 0.44180000  12.010000   ; qtot 0.149234
10519         h1    227    ccc     H6  10519 0.15710000   1.008000   ; qtot 0.306334
10520         h1    227    ccc     H7  10520 -0.03530000   1.008000   ; qtot 0.271034
10521         h1    227    ccc     H8  10521 -0.03530000   1.008000   ; qtot 0.235734
10522         n3    227    ccc     N2  10522 -0.74090000  14.010000   ; qtot -0.505166
10523         c3    227    ccc     C5  10523 0.51680000  12.010000   ; qtot 0.011634
10524         c3    227    ccc     C6  10524 0.51680000  12.010000   ; qtot 0.528434
10525         h1    227    ccc     H9  10525 -0.05230000   1.008000   ; qtot 0.476134
10526         c3    227    ccc     C7  10526 -0.60390000  12.010000   ; qtot -0.127766
10527         h1    227    ccc    H10  10527 -0.05230000   1.008000   ; qtot -0.180066
10528         hc    227    ccc    H11  10528 0.16730000   1.008000   ; qtot -0.012766
10529         hc    227    ccc    H12  10529 0.16730000   1.008000   ; qtot 0.154534
10530          c    227    ccc     C8  10530 0.72110000  12.010000   ; qtot 0.875634
10531          o    227    ccc     O2  10531 -0.61950000  16.000000   ; qtot 0.256134
10532         h1    227    ccc    H13  10532 -0.05230000   1.008000   ; qtot 0.203834
10533         h1    227    ccc    H14  10533 -0.05230000   1.008000   ; qtot 0.151534
10534         c3    227    ccc     C9  10534 -0.60390000  12.010000   ; qtot -0.452366
10535         hc    227    ccc    H15  10535 0.16730000   1.008000   ; qtot -0.285066
10536         hc    227    ccc    H16  10536 0.16730000   1.008000   ; qtot -0.117766
10537          c    227    ccc    C10  10537 0.72110000  12.010000   ; qtot 0.603334
10538          o    227    ccc     O4  10538 -0.61950000  16.000000   ; qtot -0.016166
10539         c3    227    ccc    C11  10539 0.08518000  12.010000   ; qtot 0.069014
10540         c3    227    ccc    C12  10540 0.07918000  12.010000   ; qtot 0.148194
10541         h1    227    ccc    H17  10541 0.06978000   1.008000   ; qtot 0.217974
10542         c3    227    ccc    C13  10542 0.07918000  12.010000   ; qtot 0.297154
10543         c3    227    ccc    C14  10543 0.03578000  12.010000   ; qtot 0.332934
10544         c3    227    ccc    C15  10544 0.33498000  12.010000   ; qtot 0.667914
10545         h1    227    ccc    H18  10545 0.06178000   1.008000   ; qtot 0.729694
10546         h1    227    ccc    H19  10546 0.11278000   1.008000   ; qtot 0.842474
10547         h2    227    ccc    H20  10547 0.12178000   1.008000   ; qtot 0.964254
10548         oh    227    ccc     O1  10548 -0.56972000  16.000000   ; qtot 0.394534
10549         oh    227    ccc     O6  10549 -0.57772000  16.000000   ; qtot -0.183186
10550         c3    227    ccc    C16  10550 0.14548000  12.010000   ; qtot -0.037706
10551         ho    227    ccc    H21  10551 0.40508000   1.008000   ; qtot 0.367374
10552         hn    227    ccc    H22  10552 0.31758000   1.008000   ; qtot 0.684954
10553         h1    227    ccc    H23  10553 0.06278000   1.008000   ; qtot 0.747734
10554         h1    227    ccc    H24  10554 0.06278000   1.008000   ; qtot 0.810514
10555         oh    227    ccc     O7  10555 -0.59472000  16.000000   ; qtot 0.215794
10556         ho    227    ccc    H25  10556 0.41908000   1.008000   ; qtot 0.634874
10557         os    227    ccc     O8  10557 -0.44552000  16.000000   ; qtot 0.189354
10558         ho    227    ccc    H26  10558 0.41908000   1.008000   ; qtot 0.608434
10559         h1    227    ccc    H27  10559 0.08578000   1.008000   ; qtot 0.694214
10560         oh    227    ccc     O9  10560 -0.58672000  16.000000   ; qtot 0.107494
10561         ho    227    ccc    H28  10561 0.41908000   1.008000   ; qtot 0.526574
10562         n3    227    ccc     N3  10562 -0.54282000  14.010000   ; qtot -0.016246
10563         c3    227    ccc    C17  10563 0.08518000  12.010000   ; qtot 0.068934
10564         c3    227    ccc    C18  10564 0.07918000  12.010000   ; qtot 0.148114
10565         h1    227    ccc    H29  10565 0.06978000   1.008000   ; qtot 0.217894
10566         c3    227    ccc    C19  10566 0.07918000  12.010000   ; qtot 0.297074
10567         c3    227    ccc    C20  10567 0.03578000  12.010000   ; qtot 0.332854
10568         c3    227    ccc    C21  10568 0.33498000  12.010000   ; qtot 0.667834
10569         h1    227    ccc    H30  10569 0.06178000   1.008000   ; qtot 0.729614
10570         h1    227    ccc    H31  10570 0.11278000   1.008000   ; qtot 0.842394
10571         h2    227    ccc    H32  10571 0.12178000   1.008000   ; qtot 0.964174
10572         oh    227    ccc    O10  10572 -0.56972000  16.000000   ; qtot 0.394454
10573         oh    227    ccc    O11  10573 -0.57772000  16.000000   ; qtot -0.183266
10574         c3    227    ccc    C22  10574 0.14548000  12.010000   ; qtot -0.037786
10575         ho    227    ccc    H33  10575 0.40508000   1.008000   ; qtot 0.367294
10576         hn    227    ccc    H34  10576 0.31758000   1.008000   ; qtot 0.684874
10577         h1    227    ccc    H35  10577 0.06278000   1.008000   ; qtot 0.747654
10578         h1    227    ccc    H36  10578 0.06278000   1.008000   ; qtot 0.810434
10579         oh    227    ccc    O12  10579 -0.59472000  16.000000   ; qtot 0.215714
10580         ho    227    ccc    H37  10580 0.41908000   1.008000   ; qtot 0.634794
10581         os    227    ccc    O13  10581 -0.44552000  16.000000   ; qtot 0.189274
10582         ho    227    ccc    H38  10582 0.41908000   1.008000   ; qtot 0.608354
10583         h1    227    ccc    H39  10583 0.08578000   1.008000   ; qtot 0.694134
10584         oh    227    ccc     O5  10584 -0.58672000  16.000000   ; qtot 0.107414
10585         ho    227    ccc    H40  10585 0.41908000   1.008000   ; qtot 0.526494
10586         n3    227    ccc     N4  10586 -0.54282000  14.010000   ; qtot -0.016326
; residue  228 ccc rtp ccc q -0.0
10587          n    228    ccc     N1  10587 -0.46580000  14.010000   ; qtot -0.482126
10588         hn    228    ccc     H4  10588 0.31480000   1.008000   ; qtot -0.167326
10589         c3    228    ccc     C3  10589 -0.28250000  12.010000   ; qtot -0.449826
10590         h1    228    ccc     H5  10590 0.15710000   1.008000   ; qtot -0.292726
10591         c3    228    ccc     C4  10591 0.44180000  12.010000   ; qtot 0.149074
10592         h1    228    ccc     H6  10592 0.15710000   1.008000   ; qtot 0.306174
10593         h1    228    ccc     H7  10593 -0.03530000   1.008000   ; qtot 0.270874
10594         h1    228    ccc     H8  10594 -0.03530000   1.008000   ; qtot 0.235574
10595         n3    228    ccc     N2  10595 -0.74090000  14.010000   ; qtot -0.505326
10596         c3    228    ccc     C5  10596 0.51680000  12.010000   ; qtot 0.011474
10597         c3    228    ccc     C6  10597 0.51680000  12.010000   ; qtot 0.528274
10598         h1    228    ccc     H9  10598 -0.05230000   1.008000   ; qtot 0.475974
10599         c3    228    ccc     C7  10599 -0.60390000  12.010000   ; qtot -0.127926
10600         h1    228    ccc    H10  10600 -0.05230000   1.008000   ; qtot -0.180226
10601         hc    228    ccc    H11  10601 0.16730000   1.008000   ; qtot -0.012926
10602         hc    228    ccc    H12  10602 0.16730000   1.008000   ; qtot 0.154374
10603          c    228    ccc     C8  10603 0.72110000  12.010000   ; qtot 0.875474
10604          o    228    ccc     O2  10604 -0.61950000  16.000000   ; qtot 0.255974
10605         h1    228    ccc    H13  10605 -0.05230000   1.008000   ; qtot 0.203674
10606         h1    228    ccc    H14  10606 -0.05230000   1.008000   ; qtot 0.151374
10607         c3    228    ccc     C9  10607 -0.60390000  12.010000   ; qtot -0.452526
10608         hc    228    ccc    H15  10608 0.16730000   1.008000   ; qtot -0.285226
10609         hc    228    ccc    H16  10609 0.16730000   1.008000   ; qtot -0.117926
10610          c    228    ccc    C10  10610 0.72110000  12.010000   ; qtot 0.603174
10611          o    228    ccc     O4  10611 -0.61950000  16.000000   ; qtot -0.016326
10612         c3    228    ccc    C11  10612 0.08518000  12.010000   ; qtot 0.068854
10613         c3    228    ccc    C12  10613 0.07918000  12.010000   ; qtot 0.148034
10614         h1    228    ccc    H17  10614 0.06978000   1.008000   ; qtot 0.217814
10615         c3    228    ccc    C13  10615 0.07918000  12.010000   ; qtot 0.296994
10616         c3    228    ccc    C14  10616 0.03578000  12.010000   ; qtot 0.332774
10617         c3    228    ccc    C15  10617 0.33498000  12.010000   ; qtot 0.667754
10618         h1    228    ccc    H18  10618 0.06178000   1.008000   ; qtot 0.729534
10619         h1    228    ccc    H19  10619 0.11278000   1.008000   ; qtot 0.842314
10620         h2    228    ccc    H20  10620 0.12178000   1.008000   ; qtot 0.964094
10621         oh    228    ccc     O1  10621 -0.56972000  16.000000   ; qtot 0.394374
10622         oh    228    ccc     O6  10622 -0.57772000  16.000000   ; qtot -0.183346
10623         c3    228    ccc    C16  10623 0.14548000  12.010000   ; qtot -0.037866
10624         ho    228    ccc    H21  10624 0.40508000   1.008000   ; qtot 0.367214
10625         hn    228    ccc    H22  10625 0.31758000   1.008000   ; qtot 0.684794
10626         h1    228    ccc    H23  10626 0.06278000   1.008000   ; qtot 0.747574
10627         h1    228    ccc    H24  10627 0.06278000   1.008000   ; qtot 0.810354
10628         oh    228    ccc     O7  10628 -0.59472000  16.000000   ; qtot 0.215634
10629         ho    228    ccc    H25  10629 0.41908000   1.008000   ; qtot 0.634714
10630         os    228    ccc     O8  10630 -0.44552000  16.000000   ; qtot 0.189194
10631         ho    228    ccc    H26  10631 0.41908000   1.008000   ; qtot 0.608274
10632         h1    228    ccc    H27  10632 0.08578000   1.008000   ; qtot 0.694054
10633         oh    228    ccc     O9  10633 -0.58672000  16.000000   ; qtot 0.107334
10634         ho    228    ccc    H28  10634 0.41908000   1.008000   ; qtot 0.526414
10635         n3    228    ccc     N3  10635 -0.54282000  14.010000   ; qtot -0.016406
10636         c3    228    ccc    C17  10636 0.08518000  12.010000   ; qtot 0.068774
10637         c3    228    ccc    C18  10637 0.07918000  12.010000   ; qtot 0.147954
10638         h1    228    ccc    H29  10638 0.06978000   1.008000   ; qtot 0.217734
10639         c3    228    ccc    C19  10639 0.07918000  12.010000   ; qtot 0.296914
10640         c3    228    ccc    C20  10640 0.03578000  12.010000   ; qtot 0.332694
10641         c3    228    ccc    C21  10641 0.33498000  12.010000   ; qtot 0.667674
10642         h1    228    ccc    H30  10642 0.06178000   1.008000   ; qtot 0.729454
10643         h1    228    ccc    H31  10643 0.11278000   1.008000   ; qtot 0.842234
10644         h2    228    ccc    H32  10644 0.12178000   1.008000   ; qtot 0.964014
10645         oh    228    ccc    O10  10645 -0.56972000  16.000000   ; qtot 0.394294
10646         oh    228    ccc    O11  10646 -0.57772000  16.000000   ; qtot -0.183426
10647         c3    228    ccc    C22  10647 0.14548000  12.010000   ; qtot -0.037946
10648         ho    228    ccc    H33  10648 0.40508000   1.008000   ; qtot 0.367134
10649         hn    228    ccc    H34  10649 0.31758000   1.008000   ; qtot 0.684714
10650         h1    228    ccc    H35  10650 0.06278000   1.008000   ; qtot 0.747494
10651         h1    228    ccc    H36  10651 0.06278000   1.008000   ; qtot 0.810274
10652         oh    228    ccc    O12  10652 -0.59472000  16.000000   ; qtot 0.215554
10653         ho    228    ccc    H37  10653 0.41908000   1.008000   ; qtot 0.634634
10654         os    228    ccc    O13  10654 -0.44552000  16.000000   ; qtot 0.189114
10655         ho    228    ccc    H38  10655 0.41908000   1.008000   ; qtot 0.608194
10656         h1    228    ccc    H39  10656 0.08578000   1.008000   ; qtot 0.693974
10657         oh    228    ccc     O5  10657 -0.58672000  16.000000   ; qtot 0.107254
10658         ho    228    ccc    H40  10658 0.41908000   1.008000   ; qtot 0.526334
10659         n3    228    ccc     N4  10659 -0.54282000  14.010000   ; qtot -0.016486
; residue  229 ccc rtp ccc q -0.0
10660          n    229    ccc     N1  10660 -0.46580000  14.010000   ; qtot -0.482286
10661         hn    229    ccc     H4  10661 0.31480000   1.008000   ; qtot -0.167486
10662         c3    229    ccc     C3  10662 -0.28250000  12.010000   ; qtot -0.449986
10663         h1    229    ccc     H5  10663 0.15710000   1.008000   ; qtot -0.292886
10664         c3    229    ccc     C4  10664 0.44180000  12.010000   ; qtot 0.148914
10665         h1    229    ccc     H6  10665 0.15710000   1.008000   ; qtot 0.306014
10666         h1    229    ccc     H7  10666 -0.03530000   1.008000   ; qtot 0.270714
10667         h1    229    ccc     H8  10667 -0.03530000   1.008000   ; qtot 0.235414
10668         n3    229    ccc     N2  10668 -0.74090000  14.010000   ; qtot -0.505486
10669         c3    229    ccc     C5  10669 0.51680000  12.010000   ; qtot 0.011314
10670         c3    229    ccc     C6  10670 0.51680000  12.010000   ; qtot 0.528114
10671         h1    229    ccc     H9  10671 -0.05230000   1.008000   ; qtot 0.475814
10672         c3    229    ccc     C7  10672 -0.60390000  12.010000   ; qtot -0.128086
10673         h1    229    ccc    H10  10673 -0.05230000   1.008000   ; qtot -0.180386
10674         hc    229    ccc    H11  10674 0.16730000   1.008000   ; qtot -0.013086
10675         hc    229    ccc    H12  10675 0.16730000   1.008000   ; qtot 0.154214
10676          c    229    ccc     C8  10676 0.72110000  12.010000   ; qtot 0.875314
10677          o    229    ccc     O2  10677 -0.61950000  16.000000   ; qtot 0.255814
10678         h1    229    ccc    H13  10678 -0.05230000   1.008000   ; qtot 0.203514
10679         h1    229    ccc    H14  10679 -0.05230000   1.008000   ; qtot 0.151214
10680         c3    229    ccc     C9  10680 -0.60390000  12.010000   ; qtot -0.452686
10681         hc    229    ccc    H15  10681 0.16730000   1.008000   ; qtot -0.285386
10682         hc    229    ccc    H16  10682 0.16730000   1.008000   ; qtot -0.118086
10683          c    229    ccc    C10  10683 0.72110000  12.010000   ; qtot 0.603014
10684          o    229    ccc     O4  10684 -0.61950000  16.000000   ; qtot -0.016486
10685         c3    229    ccc    C11  10685 0.08518000  12.010000   ; qtot 0.068694
10686         c3    229    ccc    C12  10686 0.07918000  12.010000   ; qtot 0.147874
10687         h1    229    ccc    H17  10687 0.06978000   1.008000   ; qtot 0.217654
10688         c3    229    ccc    C13  10688 0.07918000  12.010000   ; qtot 0.296834
10689         c3    229    ccc    C14  10689 0.03578000  12.010000   ; qtot 0.332614
10690         c3    229    ccc    C15  10690 0.33498000  12.010000   ; qtot 0.667594
10691         h1    229    ccc    H18  10691 0.06178000   1.008000   ; qtot 0.729374
10692         h1    229    ccc    H19  10692 0.11278000   1.008000   ; qtot 0.842154
10693         h2    229    ccc    H20  10693 0.12178000   1.008000   ; qtot 0.963934
10694         oh    229    ccc     O1  10694 -0.56972000  16.000000   ; qtot 0.394214
10695         oh    229    ccc     O6  10695 -0.57772000  16.000000   ; qtot -0.183506
10696         c3    229    ccc    C16  10696 0.14548000  12.010000   ; qtot -0.038026
10697         ho    229    ccc    H21  10697 0.40508000   1.008000   ; qtot 0.367054
10698         hn    229    ccc    H22  10698 0.31758000   1.008000   ; qtot 0.684634
10699         h1    229    ccc    H23  10699 0.06278000   1.008000   ; qtot 0.747414
10700         h1    229    ccc    H24  10700 0.06278000   1.008000   ; qtot 0.810194
10701         oh    229    ccc     O7  10701 -0.59472000  16.000000   ; qtot 0.215474
10702         ho    229    ccc    H25  10702 0.41908000   1.008000   ; qtot 0.634554
10703         os    229    ccc     O8  10703 -0.44552000  16.000000   ; qtot 0.189034
10704         ho    229    ccc    H26  10704 0.41908000   1.008000   ; qtot 0.608114
10705         h1    229    ccc    H27  10705 0.08578000   1.008000   ; qtot 0.693894
10706         oh    229    ccc     O9  10706 -0.58672000  16.000000   ; qtot 0.107174
10707         ho    229    ccc    H28  10707 0.41908000   1.008000   ; qtot 0.526254
10708         n3    229    ccc     N3  10708 -0.54282000  14.010000   ; qtot -0.016566
10709         c3    229    ccc    C17  10709 0.08518000  12.010000   ; qtot 0.068614
10710         c3    229    ccc    C18  10710 0.07918000  12.010000   ; qtot 0.147794
10711         h1    229    ccc    H29  10711 0.06978000   1.008000   ; qtot 0.217574
10712         c3    229    ccc    C19  10712 0.07918000  12.010000   ; qtot 0.296754
10713         c3    229    ccc    C20  10713 0.03578000  12.010000   ; qtot 0.332534
10714         c3    229    ccc    C21  10714 0.33498000  12.010000   ; qtot 0.667514
10715         h1    229    ccc    H30  10715 0.06178000   1.008000   ; qtot 0.729294
10716         h1    229    ccc    H31  10716 0.11278000   1.008000   ; qtot 0.842074
10717         h2    229    ccc    H32  10717 0.12178000   1.008000   ; qtot 0.963854
10718         oh    229    ccc    O10  10718 -0.56972000  16.000000   ; qtot 0.394134
10719         oh    229    ccc    O11  10719 -0.57772000  16.000000   ; qtot -0.183586
10720         c3    229    ccc    C22  10720 0.14548000  12.010000   ; qtot -0.038106
10721         ho    229    ccc    H33  10721 0.40508000   1.008000   ; qtot 0.366974
10722         hn    229    ccc    H34  10722 0.31758000   1.008000   ; qtot 0.684554
10723         h1    229    ccc    H35  10723 0.06278000   1.008000   ; qtot 0.747334
10724         h1    229    ccc    H36  10724 0.06278000   1.008000   ; qtot 0.810114
10725         oh    229    ccc    O12  10725 -0.59472000  16.000000   ; qtot 0.215394
10726         ho    229    ccc    H37  10726 0.41908000   1.008000   ; qtot 0.634474
10727         os    229    ccc    O13  10727 -0.44552000  16.000000   ; qtot 0.188954
10728         ho    229    ccc    H38  10728 0.41908000   1.008000   ; qtot 0.608034
10729         h1    229    ccc    H39  10729 0.08578000   1.008000   ; qtot 0.693814
10730         oh    229    ccc     O5  10730 -0.58672000  16.000000   ; qtot 0.107094
10731         ho    229    ccc    H40  10731 0.41908000   1.008000   ; qtot 0.526174
10732         n3    229    ccc     N4  10732 -0.54282000  14.010000   ; qtot -0.016646
; residue  230 ccc rtp ccc q -0.0
10733          n    230    ccc     N1  10733 -0.46580000  14.010000   ; qtot -0.482446
10734         hn    230    ccc     H4  10734 0.31480000   1.008000   ; qtot -0.167646
10735         c3    230    ccc     C3  10735 -0.28250000  12.010000   ; qtot -0.450146
10736         h1    230    ccc     H5  10736 0.15710000   1.008000   ; qtot -0.293046
10737         c3    230    ccc     C4  10737 0.44180000  12.010000   ; qtot 0.148754
10738         h1    230    ccc     H6  10738 0.15710000   1.008000   ; qtot 0.305854
10739         h1    230    ccc     H7  10739 -0.03530000   1.008000   ; qtot 0.270554
10740         h1    230    ccc     H8  10740 -0.03530000   1.008000   ; qtot 0.235254
10741         n3    230    ccc     N2  10741 -0.74090000  14.010000   ; qtot -0.505646
10742         c3    230    ccc     C5  10742 0.51680000  12.010000   ; qtot 0.011154
10743         c3    230    ccc     C6  10743 0.51680000  12.010000   ; qtot 0.527954
10744         h1    230    ccc     H9  10744 -0.05230000   1.008000   ; qtot 0.475654
10745         c3    230    ccc     C7  10745 -0.60390000  12.010000   ; qtot -0.128246
10746         h1    230    ccc    H10  10746 -0.05230000   1.008000   ; qtot -0.180546
10747         hc    230    ccc    H11  10747 0.16730000   1.008000   ; qtot -0.013246
10748         hc    230    ccc    H12  10748 0.16730000   1.008000   ; qtot 0.154054
10749          c    230    ccc     C8  10749 0.72110000  12.010000   ; qtot 0.875154
10750          o    230    ccc     O2  10750 -0.61950000  16.000000   ; qtot 0.255654
10751         h1    230    ccc    H13  10751 -0.05230000   1.008000   ; qtot 0.203354
10752         h1    230    ccc    H14  10752 -0.05230000   1.008000   ; qtot 0.151054
10753         c3    230    ccc     C9  10753 -0.60390000  12.010000   ; qtot -0.452846
10754         hc    230    ccc    H15  10754 0.16730000   1.008000   ; qtot -0.285546
10755         hc    230    ccc    H16  10755 0.16730000   1.008000   ; qtot -0.118246
10756          c    230    ccc    C10  10756 0.72110000  12.010000   ; qtot 0.602854
10757          o    230    ccc     O4  10757 -0.61950000  16.000000   ; qtot -0.016646
10758         c3    230    ccc    C11  10758 0.08518000  12.010000   ; qtot 0.068534
10759         c3    230    ccc    C12  10759 0.07918000  12.010000   ; qtot 0.147714
10760         h1    230    ccc    H17  10760 0.06978000   1.008000   ; qtot 0.217494
10761         c3    230    ccc    C13  10761 0.07918000  12.010000   ; qtot 0.296674
10762         c3    230    ccc    C14  10762 0.03578000  12.010000   ; qtot 0.332454
10763         c3    230    ccc    C15  10763 0.33498000  12.010000   ; qtot 0.667434
10764         h1    230    ccc    H18  10764 0.06178000   1.008000   ; qtot 0.729214
10765         h1    230    ccc    H19  10765 0.11278000   1.008000   ; qtot 0.841994
10766         h2    230    ccc    H20  10766 0.12178000   1.008000   ; qtot 0.963774
10767         oh    230    ccc     O1  10767 -0.56972000  16.000000   ; qtot 0.394054
10768         oh    230    ccc     O6  10768 -0.57772000  16.000000   ; qtot -0.183666
10769         c3    230    ccc    C16  10769 0.14548000  12.010000   ; qtot -0.038186
10770         ho    230    ccc    H21  10770 0.40508000   1.008000   ; qtot 0.366894
10771         hn    230    ccc    H22  10771 0.31758000   1.008000   ; qtot 0.684474
10772         h1    230    ccc    H23  10772 0.06278000   1.008000   ; qtot 0.747254
10773         h1    230    ccc    H24  10773 0.06278000   1.008000   ; qtot 0.810034
10774         oh    230    ccc     O7  10774 -0.59472000  16.000000   ; qtot 0.215314
10775         ho    230    ccc    H25  10775 0.41908000   1.008000   ; qtot 0.634394
10776         os    230    ccc     O8  10776 -0.44552000  16.000000   ; qtot 0.188874
10777         ho    230    ccc    H26  10777 0.41908000   1.008000   ; qtot 0.607954
10778         h1    230    ccc    H27  10778 0.08578000   1.008000   ; qtot 0.693734
10779         oh    230    ccc     O9  10779 -0.58672000  16.000000   ; qtot 0.107014
10780         ho    230    ccc    H28  10780 0.41908000   1.008000   ; qtot 0.526094
10781         n3    230    ccc     N3  10781 -0.54282000  14.010000   ; qtot -0.016726
10782         c3    230    ccc    C17  10782 0.08518000  12.010000   ; qtot 0.068454
10783         c3    230    ccc    C18  10783 0.07918000  12.010000   ; qtot 0.147634
10784         h1    230    ccc    H29  10784 0.06978000   1.008000   ; qtot 0.217414
10785         c3    230    ccc    C19  10785 0.07918000  12.010000   ; qtot 0.296594
10786         c3    230    ccc    C20  10786 0.03578000  12.010000   ; qtot 0.332374
10787         c3    230    ccc    C21  10787 0.33498000  12.010000   ; qtot 0.667354
10788         h1    230    ccc    H30  10788 0.06178000   1.008000   ; qtot 0.729134
10789         h1    230    ccc    H31  10789 0.11278000   1.008000   ; qtot 0.841914
10790         h2    230    ccc    H32  10790 0.12178000   1.008000   ; qtot 0.963694
10791         oh    230    ccc    O10  10791 -0.56972000  16.000000   ; qtot 0.393974
10792         oh    230    ccc    O11  10792 -0.57772000  16.000000   ; qtot -0.183746
10793         c3    230    ccc    C22  10793 0.14548000  12.010000   ; qtot -0.038266
10794         ho    230    ccc    H33  10794 0.40508000   1.008000   ; qtot 0.366814
10795         hn    230    ccc    H34  10795 0.31758000   1.008000   ; qtot 0.684394
10796         h1    230    ccc    H35  10796 0.06278000   1.008000   ; qtot 0.747174
10797         h1    230    ccc    H36  10797 0.06278000   1.008000   ; qtot 0.809954
10798         oh    230    ccc    O12  10798 -0.59472000  16.000000   ; qtot 0.215234
10799         ho    230    ccc    H37  10799 0.41908000   1.008000   ; qtot 0.634314
10800         os    230    ccc    O13  10800 -0.44552000  16.000000   ; qtot 0.188794
10801         ho    230    ccc    H38  10801 0.41908000   1.008000   ; qtot 0.607874
10802         h1    230    ccc    H39  10802 0.08578000   1.008000   ; qtot 0.693654
10803         oh    230    ccc     O5  10803 -0.58672000  16.000000   ; qtot 0.106934
10804         ho    230    ccc    H40  10804 0.41908000   1.008000   ; qtot 0.526014
10805         n3    230    ccc     N4  10805 -0.54282000  14.010000   ; qtot -0.016806
; residue  231 ccc rtp ccc q -0.0
10806          n    231    ccc     N1  10806 -0.46580000  14.010000   ; qtot -0.482606
10807         hn    231    ccc     H4  10807 0.31480000   1.008000   ; qtot -0.167806
10808         c3    231    ccc     C3  10808 -0.28250000  12.010000   ; qtot -0.450306
10809         h1    231    ccc     H5  10809 0.15710000   1.008000   ; qtot -0.293206
10810         c3    231    ccc     C4  10810 0.44180000  12.010000   ; qtot 0.148594
10811         h1    231    ccc     H6  10811 0.15710000   1.008000   ; qtot 0.305694
10812         h1    231    ccc     H7  10812 -0.03530000   1.008000   ; qtot 0.270394
10813         h1    231    ccc     H8  10813 -0.03530000   1.008000   ; qtot 0.235094
10814         n3    231    ccc     N2  10814 -0.74090000  14.010000   ; qtot -0.505806
10815         c3    231    ccc     C5  10815 0.51680000  12.010000   ; qtot 0.010994
10816         c3    231    ccc     C6  10816 0.51680000  12.010000   ; qtot 0.527794
10817         h1    231    ccc     H9  10817 -0.05230000   1.008000   ; qtot 0.475494
10818         c3    231    ccc     C7  10818 -0.60390000  12.010000   ; qtot -0.128406
10819         h1    231    ccc    H10  10819 -0.05230000   1.008000   ; qtot -0.180706
10820         hc    231    ccc    H11  10820 0.16730000   1.008000   ; qtot -0.013406
10821         hc    231    ccc    H12  10821 0.16730000   1.008000   ; qtot 0.153894
10822          c    231    ccc     C8  10822 0.72110000  12.010000   ; qtot 0.874994
10823          o    231    ccc     O2  10823 -0.61950000  16.000000   ; qtot 0.255494
10824         h1    231    ccc    H13  10824 -0.05230000   1.008000   ; qtot 0.203194
10825         h1    231    ccc    H14  10825 -0.05230000   1.008000   ; qtot 0.150894
10826         c3    231    ccc     C9  10826 -0.60390000  12.010000   ; qtot -0.453006
10827         hc    231    ccc    H15  10827 0.16730000   1.008000   ; qtot -0.285706
10828         hc    231    ccc    H16  10828 0.16730000   1.008000   ; qtot -0.118406
10829          c    231    ccc    C10  10829 0.72110000  12.010000   ; qtot 0.602694
10830          o    231    ccc     O4  10830 -0.61950000  16.000000   ; qtot -0.016806
10831         c3    231    ccc    C11  10831 0.08518000  12.010000   ; qtot 0.068374
10832         c3    231    ccc    C12  10832 0.07918000  12.010000   ; qtot 0.147554
10833         h1    231    ccc    H17  10833 0.06978000   1.008000   ; qtot 0.217334
10834         c3    231    ccc    C13  10834 0.07918000  12.010000   ; qtot 0.296514
10835         c3    231    ccc    C14  10835 0.03578000  12.010000   ; qtot 0.332294
10836         c3    231    ccc    C15  10836 0.33498000  12.010000   ; qtot 0.667274
10837         h1    231    ccc    H18  10837 0.06178000   1.008000   ; qtot 0.729054
10838         h1    231    ccc    H19  10838 0.11278000   1.008000   ; qtot 0.841834
10839         h2    231    ccc    H20  10839 0.12178000   1.008000   ; qtot 0.963614
10840         oh    231    ccc     O1  10840 -0.56972000  16.000000   ; qtot 0.393894
10841         oh    231    ccc     O6  10841 -0.57772000  16.000000   ; qtot -0.183826
10842         c3    231    ccc    C16  10842 0.14548000  12.010000   ; qtot -0.038346
10843         ho    231    ccc    H21  10843 0.40508000   1.008000   ; qtot 0.366734
10844         hn    231    ccc    H22  10844 0.31758000   1.008000   ; qtot 0.684314
10845         h1    231    ccc    H23  10845 0.06278000   1.008000   ; qtot 0.747094
10846         h1    231    ccc    H24  10846 0.06278000   1.008000   ; qtot 0.809874
10847         oh    231    ccc     O7  10847 -0.59472000  16.000000   ; qtot 0.215154
10848         ho    231    ccc    H25  10848 0.41908000   1.008000   ; qtot 0.634234
10849         os    231    ccc     O8  10849 -0.44552000  16.000000   ; qtot 0.188714
10850         ho    231    ccc    H26  10850 0.41908000   1.008000   ; qtot 0.607794
10851         h1    231    ccc    H27  10851 0.08578000   1.008000   ; qtot 0.693574
10852         oh    231    ccc     O9  10852 -0.58672000  16.000000   ; qtot 0.106854
10853         ho    231    ccc    H28  10853 0.41908000   1.008000   ; qtot 0.525934
10854         n3    231    ccc     N3  10854 -0.54282000  14.010000   ; qtot -0.016886
10855         c3    231    ccc    C17  10855 0.08518000  12.010000   ; qtot 0.068294
10856         c3    231    ccc    C18  10856 0.07918000  12.010000   ; qtot 0.147474
10857         h1    231    ccc    H29  10857 0.06978000   1.008000   ; qtot 0.217254
10858         c3    231    ccc    C19  10858 0.07918000  12.010000   ; qtot 0.296434
10859         c3    231    ccc    C20  10859 0.03578000  12.010000   ; qtot 0.332214
10860         c3    231    ccc    C21  10860 0.33498000  12.010000   ; qtot 0.667194
10861         h1    231    ccc    H30  10861 0.06178000   1.008000   ; qtot 0.728974
10862         h1    231    ccc    H31  10862 0.11278000   1.008000   ; qtot 0.841754
10863         h2    231    ccc    H32  10863 0.12178000   1.008000   ; qtot 0.963534
10864         oh    231    ccc    O10  10864 -0.56972000  16.000000   ; qtot 0.393814
10865         oh    231    ccc    O11  10865 -0.57772000  16.000000   ; qtot -0.183906
10866         c3    231    ccc    C22  10866 0.14548000  12.010000   ; qtot -0.038426
10867         ho    231    ccc    H33  10867 0.40508000   1.008000   ; qtot 0.366654
10868         hn    231    ccc    H34  10868 0.31758000   1.008000   ; qtot 0.684234
10869         h1    231    ccc    H35  10869 0.06278000   1.008000   ; qtot 0.747014
10870         h1    231    ccc    H36  10870 0.06278000   1.008000   ; qtot 0.809794
10871         oh    231    ccc    O12  10871 -0.59472000  16.000000   ; qtot 0.215074
10872         ho    231    ccc    H37  10872 0.41908000   1.008000   ; qtot 0.634154
10873         os    231    ccc    O13  10873 -0.44552000  16.000000   ; qtot 0.188634
10874         ho    231    ccc    H38  10874 0.41908000   1.008000   ; qtot 0.607714
10875         h1    231    ccc    H39  10875 0.08578000   1.008000   ; qtot 0.693494
10876         oh    231    ccc     O5  10876 -0.58672000  16.000000   ; qtot 0.106774
10877         ho    231    ccc    H40  10877 0.41908000   1.008000   ; qtot 0.525854
10878         n3    231    ccc     N4  10878 -0.54282000  14.010000   ; qtot -0.016966
; residue  232 ccc rtp ccc q -0.0
10879          n    232    ccc     N1  10879 -0.46580000  14.010000   ; qtot -0.482766
10880         hn    232    ccc     H4  10880 0.31480000   1.008000   ; qtot -0.167966
10881         c3    232    ccc     C3  10881 -0.28250000  12.010000   ; qtot -0.450466
10882         h1    232    ccc     H5  10882 0.15710000   1.008000   ; qtot -0.293366
10883         c3    232    ccc     C4  10883 0.44180000  12.010000   ; qtot 0.148434
10884         h1    232    ccc     H6  10884 0.15710000   1.008000   ; qtot 0.305534
10885         h1    232    ccc     H7  10885 -0.03530000   1.008000   ; qtot 0.270234
10886         h1    232    ccc     H8  10886 -0.03530000   1.008000   ; qtot 0.234934
10887         n3    232    ccc     N2  10887 -0.74090000  14.010000   ; qtot -0.505966
10888         c3    232    ccc     C5  10888 0.51680000  12.010000   ; qtot 0.010834
10889         c3    232    ccc     C6  10889 0.51680000  12.010000   ; qtot 0.527634
10890         h1    232    ccc     H9  10890 -0.05230000   1.008000   ; qtot 0.475334
10891         c3    232    ccc     C7  10891 -0.60390000  12.010000   ; qtot -0.128566
10892         h1    232    ccc    H10  10892 -0.05230000   1.008000   ; qtot -0.180866
10893         hc    232    ccc    H11  10893 0.16730000   1.008000   ; qtot -0.013566
10894         hc    232    ccc    H12  10894 0.16730000   1.008000   ; qtot 0.153734
10895          c    232    ccc     C8  10895 0.72110000  12.010000   ; qtot 0.874834
10896          o    232    ccc     O2  10896 -0.61950000  16.000000   ; qtot 0.255334
10897         h1    232    ccc    H13  10897 -0.05230000   1.008000   ; qtot 0.203034
10898         h1    232    ccc    H14  10898 -0.05230000   1.008000   ; qtot 0.150734
10899         c3    232    ccc     C9  10899 -0.60390000  12.010000   ; qtot -0.453166
10900         hc    232    ccc    H15  10900 0.16730000   1.008000   ; qtot -0.285866
10901         hc    232    ccc    H16  10901 0.16730000   1.008000   ; qtot -0.118566
10902          c    232    ccc    C10  10902 0.72110000  12.010000   ; qtot 0.602534
10903          o    232    ccc     O4  10903 -0.61950000  16.000000   ; qtot -0.016966
10904         c3    232    ccc    C11  10904 0.08518000  12.010000   ; qtot 0.068214
10905         c3    232    ccc    C12  10905 0.07918000  12.010000   ; qtot 0.147394
10906         h1    232    ccc    H17  10906 0.06978000   1.008000   ; qtot 0.217174
10907         c3    232    ccc    C13  10907 0.07918000  12.010000   ; qtot 0.296354
10908         c3    232    ccc    C14  10908 0.03578000  12.010000   ; qtot 0.332134
10909         c3    232    ccc    C15  10909 0.33498000  12.010000   ; qtot 0.667114
10910         h1    232    ccc    H18  10910 0.06178000   1.008000   ; qtot 0.728894
10911         h1    232    ccc    H19  10911 0.11278000   1.008000   ; qtot 0.841674
10912         h2    232    ccc    H20  10912 0.12178000   1.008000   ; qtot 0.963454
10913         oh    232    ccc     O1  10913 -0.56972000  16.000000   ; qtot 0.393734
10914         oh    232    ccc     O6  10914 -0.57772000  16.000000   ; qtot -0.183986
10915         c3    232    ccc    C16  10915 0.14548000  12.010000   ; qtot -0.038506
10916         ho    232    ccc    H21  10916 0.40508000   1.008000   ; qtot 0.366574
10917         hn    232    ccc    H22  10917 0.31758000   1.008000   ; qtot 0.684154
10918         h1    232    ccc    H23  10918 0.06278000   1.008000   ; qtot 0.746934
10919         h1    232    ccc    H24  10919 0.06278000   1.008000   ; qtot 0.809714
10920         oh    232    ccc     O7  10920 -0.59472000  16.000000   ; qtot 0.214994
10921         ho    232    ccc    H25  10921 0.41908000   1.008000   ; qtot 0.634074
10922         os    232    ccc     O8  10922 -0.44552000  16.000000   ; qtot 0.188554
10923         ho    232    ccc    H26  10923 0.41908000   1.008000   ; qtot 0.607634
10924         h1    232    ccc    H27  10924 0.08578000   1.008000   ; qtot 0.693414
10925         oh    232    ccc     O9  10925 -0.58672000  16.000000   ; qtot 0.106694
10926         ho    232    ccc    H28  10926 0.41908000   1.008000   ; qtot 0.525774
10927         n3    232    ccc     N3  10927 -0.54282000  14.010000   ; qtot -0.017046
10928         c3    232    ccc    C17  10928 0.08518000  12.010000   ; qtot 0.068134
10929         c3    232    ccc    C18  10929 0.07918000  12.010000   ; qtot 0.147314
10930         h1    232    ccc    H29  10930 0.06978000   1.008000   ; qtot 0.217094
10931         c3    232    ccc    C19  10931 0.07918000  12.010000   ; qtot 0.296274
10932         c3    232    ccc    C20  10932 0.03578000  12.010000   ; qtot 0.332054
10933         c3    232    ccc    C21  10933 0.33498000  12.010000   ; qtot 0.667034
10934         h1    232    ccc    H30  10934 0.06178000   1.008000   ; qtot 0.728814
10935         h1    232    ccc    H31  10935 0.11278000   1.008000   ; qtot 0.841594
10936         h2    232    ccc    H32  10936 0.12178000   1.008000   ; qtot 0.963374
10937         oh    232    ccc    O10  10937 -0.56972000  16.000000   ; qtot 0.393654
10938         oh    232    ccc    O11  10938 -0.57772000  16.000000   ; qtot -0.184066
10939         c3    232    ccc    C22  10939 0.14548000  12.010000   ; qtot -0.038586
10940         ho    232    ccc    H33  10940 0.40508000   1.008000   ; qtot 0.366494
10941         hn    232    ccc    H34  10941 0.31758000   1.008000   ; qtot 0.684074
10942         h1    232    ccc    H35  10942 0.06278000   1.008000   ; qtot 0.746854
10943         h1    232    ccc    H36  10943 0.06278000   1.008000   ; qtot 0.809634
10944         oh    232    ccc    O12  10944 -0.59472000  16.000000   ; qtot 0.214914
10945         ho    232    ccc    H37  10945 0.41908000   1.008000   ; qtot 0.633994
10946         os    232    ccc    O13  10946 -0.44552000  16.000000   ; qtot 0.188474
10947         ho    232    ccc    H38  10947 0.41908000   1.008000   ; qtot 0.607554
10948         h1    232    ccc    H39  10948 0.08578000   1.008000   ; qtot 0.693334
10949         oh    232    ccc     O5  10949 -0.58672000  16.000000   ; qtot 0.106614
10950         ho    232    ccc    H40  10950 0.41908000   1.008000   ; qtot 0.525694
10951         n3    232    ccc     N4  10951 -0.54282000  14.010000   ; qtot -0.017126
; residue  233 ccc rtp ccc q -0.0
10952          n    233    ccc     N1  10952 -0.46580000  14.010000   ; qtot -0.482926
10953         hn    233    ccc     H4  10953 0.31480000   1.008000   ; qtot -0.168126
10954         c3    233    ccc     C3  10954 -0.28250000  12.010000   ; qtot -0.450626
10955         h1    233    ccc     H5  10955 0.15710000   1.008000   ; qtot -0.293526
10956         c3    233    ccc     C4  10956 0.44180000  12.010000   ; qtot 0.148274
10957         h1    233    ccc     H6  10957 0.15710000   1.008000   ; qtot 0.305374
10958         h1    233    ccc     H7  10958 -0.03530000   1.008000   ; qtot 0.270074
10959         h1    233    ccc     H8  10959 -0.03530000   1.008000   ; qtot 0.234774
10960         n3    233    ccc     N2  10960 -0.74090000  14.010000   ; qtot -0.506126
10961         c3    233    ccc     C5  10961 0.51680000  12.010000   ; qtot 0.010674
10962         c3    233    ccc     C6  10962 0.51680000  12.010000   ; qtot 0.527474
10963         h1    233    ccc     H9  10963 -0.05230000   1.008000   ; qtot 0.475174
10964         c3    233    ccc     C7  10964 -0.60390000  12.010000   ; qtot -0.128726
10965         h1    233    ccc    H10  10965 -0.05230000   1.008000   ; qtot -0.181026
10966         hc    233    ccc    H11  10966 0.16730000   1.008000   ; qtot -0.013726
10967         hc    233    ccc    H12  10967 0.16730000   1.008000   ; qtot 0.153574
10968          c    233    ccc     C8  10968 0.72110000  12.010000   ; qtot 0.874674
10969          o    233    ccc     O2  10969 -0.61950000  16.000000   ; qtot 0.255174
10970         h1    233    ccc    H13  10970 -0.05230000   1.008000   ; qtot 0.202874
10971         h1    233    ccc    H14  10971 -0.05230000   1.008000   ; qtot 0.150574
10972         c3    233    ccc     C9  10972 -0.60390000  12.010000   ; qtot -0.453326
10973         hc    233    ccc    H15  10973 0.16730000   1.008000   ; qtot -0.286026
10974         hc    233    ccc    H16  10974 0.16730000   1.008000   ; qtot -0.118726
10975          c    233    ccc    C10  10975 0.72110000  12.010000   ; qtot 0.602374
10976          o    233    ccc     O4  10976 -0.61950000  16.000000   ; qtot -0.017126
10977         c3    233    ccc    C11  10977 0.08518000  12.010000   ; qtot 0.068054
10978         c3    233    ccc    C12  10978 0.07918000  12.010000   ; qtot 0.147234
10979         h1    233    ccc    H17  10979 0.06978000   1.008000   ; qtot 0.217014
10980         c3    233    ccc    C13  10980 0.07918000  12.010000   ; qtot 0.296194
10981         c3    233    ccc    C14  10981 0.03578000  12.010000   ; qtot 0.331974
10982         c3    233    ccc    C15  10982 0.33498000  12.010000   ; qtot 0.666954
10983         h1    233    ccc    H18  10983 0.06178000   1.008000   ; qtot 0.728734
10984         h1    233    ccc    H19  10984 0.11278000   1.008000   ; qtot 0.841514
10985         h2    233    ccc    H20  10985 0.12178000   1.008000   ; qtot 0.963294
10986         oh    233    ccc     O1  10986 -0.56972000  16.000000   ; qtot 0.393574
10987         oh    233    ccc     O6  10987 -0.57772000  16.000000   ; qtot -0.184146
10988         c3    233    ccc    C16  10988 0.14548000  12.010000   ; qtot -0.038666
10989         ho    233    ccc    H21  10989 0.40508000   1.008000   ; qtot 0.366414
10990         hn    233    ccc    H22  10990 0.31758000   1.008000   ; qtot 0.683994
10991         h1    233    ccc    H23  10991 0.06278000   1.008000   ; qtot 0.746774
10992         h1    233    ccc    H24  10992 0.06278000   1.008000   ; qtot 0.809554
10993         oh    233    ccc     O7  10993 -0.59472000  16.000000   ; qtot 0.214834
10994         ho    233    ccc    H25  10994 0.41908000   1.008000   ; qtot 0.633914
10995         os    233    ccc     O8  10995 -0.44552000  16.000000   ; qtot 0.188394
10996         ho    233    ccc    H26  10996 0.41908000   1.008000   ; qtot 0.607474
10997         h1    233    ccc    H27  10997 0.08578000   1.008000   ; qtot 0.693254
10998         oh    233    ccc     O9  10998 -0.58672000  16.000000   ; qtot 0.106534
10999         ho    233    ccc    H28  10999 0.41908000   1.008000   ; qtot 0.525614
11000         n3    233    ccc     N3  11000 -0.54282000  14.010000   ; qtot -0.017206
11001         c3    233    ccc    C17  11001 0.08518000  12.010000   ; qtot 0.067974
11002         c3    233    ccc    C18  11002 0.07918000  12.010000   ; qtot 0.147154
11003         h1    233    ccc    H29  11003 0.06978000   1.008000   ; qtot 0.216934
11004         c3    233    ccc    C19  11004 0.07918000  12.010000   ; qtot 0.296114
11005         c3    233    ccc    C20  11005 0.03578000  12.010000   ; qtot 0.331894
11006         c3    233    ccc    C21  11006 0.33498000  12.010000   ; qtot 0.666874
11007         h1    233    ccc    H30  11007 0.06178000   1.008000   ; qtot 0.728654
11008         h1    233    ccc    H31  11008 0.11278000   1.008000   ; qtot 0.841434
11009         h2    233    ccc    H32  11009 0.12178000   1.008000   ; qtot 0.963214
11010         oh    233    ccc    O10  11010 -0.56972000  16.000000   ; qtot 0.393494
11011         oh    233    ccc    O11  11011 -0.57772000  16.000000   ; qtot -0.184226
11012         c3    233    ccc    C22  11012 0.14548000  12.010000   ; qtot -0.038746
11013         ho    233    ccc    H33  11013 0.40508000   1.008000   ; qtot 0.366334
11014         hn    233    ccc    H34  11014 0.31758000   1.008000   ; qtot 0.683914
11015         h1    233    ccc    H35  11015 0.06278000   1.008000   ; qtot 0.746694
11016         h1    233    ccc    H36  11016 0.06278000   1.008000   ; qtot 0.809474
11017         oh    233    ccc    O12  11017 -0.59472000  16.000000   ; qtot 0.214754
11018         ho    233    ccc    H37  11018 0.41908000   1.008000   ; qtot 0.633834
11019         os    233    ccc    O13  11019 -0.44552000  16.000000   ; qtot 0.188314
11020         ho    233    ccc    H38  11020 0.41908000   1.008000   ; qtot 0.607394
11021         h1    233    ccc    H39  11021 0.08578000   1.008000   ; qtot 0.693174
11022         oh    233    ccc     O5  11022 -0.58672000  16.000000   ; qtot 0.106454
11023         ho    233    ccc    H40  11023 0.41908000   1.008000   ; qtot 0.525534
11024         n3    233    ccc     N4  11024 -0.54282000  14.010000   ; qtot -0.017286
; residue  234 ccc rtp ccc q -0.0
11025          n    234    ccc     N1  11025 -0.46580000  14.010000   ; qtot -0.483086
11026         hn    234    ccc     H4  11026 0.31480000   1.008000   ; qtot -0.168286
11027         c3    234    ccc     C3  11027 -0.28250000  12.010000   ; qtot -0.450786
11028         h1    234    ccc     H5  11028 0.15710000   1.008000   ; qtot -0.293686
11029         c3    234    ccc     C4  11029 0.44180000  12.010000   ; qtot 0.148114
11030         h1    234    ccc     H6  11030 0.15710000   1.008000   ; qtot 0.305214
11031         h1    234    ccc     H7  11031 -0.03530000   1.008000   ; qtot 0.269914
11032         h1    234    ccc     H8  11032 -0.03530000   1.008000   ; qtot 0.234614
11033         n3    234    ccc     N2  11033 -0.74090000  14.010000   ; qtot -0.506286
11034         c3    234    ccc     C5  11034 0.51680000  12.010000   ; qtot 0.010514
11035         c3    234    ccc     C6  11035 0.51680000  12.010000   ; qtot 0.527314
11036         h1    234    ccc     H9  11036 -0.05230000   1.008000   ; qtot 0.475014
11037         c3    234    ccc     C7  11037 -0.60390000  12.010000   ; qtot -0.128886
11038         h1    234    ccc    H10  11038 -0.05230000   1.008000   ; qtot -0.181186
11039         hc    234    ccc    H11  11039 0.16730000   1.008000   ; qtot -0.013886
11040         hc    234    ccc    H12  11040 0.16730000   1.008000   ; qtot 0.153414
11041          c    234    ccc     C8  11041 0.72110000  12.010000   ; qtot 0.874514
11042          o    234    ccc     O2  11042 -0.61950000  16.000000   ; qtot 0.255014
11043         h1    234    ccc    H13  11043 -0.05230000   1.008000   ; qtot 0.202714
11044         h1    234    ccc    H14  11044 -0.05230000   1.008000   ; qtot 0.150414
11045         c3    234    ccc     C9  11045 -0.60390000  12.010000   ; qtot -0.453486
11046         hc    234    ccc    H15  11046 0.16730000   1.008000   ; qtot -0.286186
11047         hc    234    ccc    H16  11047 0.16730000   1.008000   ; qtot -0.118886
11048          c    234    ccc    C10  11048 0.72110000  12.010000   ; qtot 0.602214
11049          o    234    ccc     O4  11049 -0.61950000  16.000000   ; qtot -0.017286
11050         c3    234    ccc    C11  11050 0.08518000  12.010000   ; qtot 0.067894
11051         c3    234    ccc    C12  11051 0.07918000  12.010000   ; qtot 0.147074
11052         h1    234    ccc    H17  11052 0.06978000   1.008000   ; qtot 0.216854
11053         c3    234    ccc    C13  11053 0.07918000  12.010000   ; qtot 0.296034
11054         c3    234    ccc    C14  11054 0.03578000  12.010000   ; qtot 0.331814
11055         c3    234    ccc    C15  11055 0.33498000  12.010000   ; qtot 0.666794
11056         h1    234    ccc    H18  11056 0.06178000   1.008000   ; qtot 0.728574
11057         h1    234    ccc    H19  11057 0.11278000   1.008000   ; qtot 0.841354
11058         h2    234    ccc    H20  11058 0.12178000   1.008000   ; qtot 0.963134
11059         oh    234    ccc     O1  11059 -0.56972000  16.000000   ; qtot 0.393414
11060         oh    234    ccc     O6  11060 -0.57772000  16.000000   ; qtot -0.184306
11061         c3    234    ccc    C16  11061 0.14548000  12.010000   ; qtot -0.038826
11062         ho    234    ccc    H21  11062 0.40508000   1.008000   ; qtot 0.366254
11063         hn    234    ccc    H22  11063 0.31758000   1.008000   ; qtot 0.683834
11064         h1    234    ccc    H23  11064 0.06278000   1.008000   ; qtot 0.746614
11065         h1    234    ccc    H24  11065 0.06278000   1.008000   ; qtot 0.809394
11066         oh    234    ccc     O7  11066 -0.59472000  16.000000   ; qtot 0.214674
11067         ho    234    ccc    H25  11067 0.41908000   1.008000   ; qtot 0.633754
11068         os    234    ccc     O8  11068 -0.44552000  16.000000   ; qtot 0.188234
11069         ho    234    ccc    H26  11069 0.41908000   1.008000   ; qtot 0.607314
11070         h1    234    ccc    H27  11070 0.08578000   1.008000   ; qtot 0.693094
11071         oh    234    ccc     O9  11071 -0.58672000  16.000000   ; qtot 0.106374
11072         ho    234    ccc    H28  11072 0.41908000   1.008000   ; qtot 0.525454
11073         n3    234    ccc     N3  11073 -0.54282000  14.010000   ; qtot -0.017366
11074         c3    234    ccc    C17  11074 0.08518000  12.010000   ; qtot 0.067814
11075         c3    234    ccc    C18  11075 0.07918000  12.010000   ; qtot 0.146994
11076         h1    234    ccc    H29  11076 0.06978000   1.008000   ; qtot 0.216774
11077         c3    234    ccc    C19  11077 0.07918000  12.010000   ; qtot 0.295954
11078         c3    234    ccc    C20  11078 0.03578000  12.010000   ; qtot 0.331734
11079         c3    234    ccc    C21  11079 0.33498000  12.010000   ; qtot 0.666714
11080         h1    234    ccc    H30  11080 0.06178000   1.008000   ; qtot 0.728494
11081         h1    234    ccc    H31  11081 0.11278000   1.008000   ; qtot 0.841274
11082         h2    234    ccc    H32  11082 0.12178000   1.008000   ; qtot 0.963054
11083         oh    234    ccc    O10  11083 -0.56972000  16.000000   ; qtot 0.393334
11084         oh    234    ccc    O11  11084 -0.57772000  16.000000   ; qtot -0.184386
11085         c3    234    ccc    C22  11085 0.14548000  12.010000   ; qtot -0.038906
11086         ho    234    ccc    H33  11086 0.40508000   1.008000   ; qtot 0.366174
11087         hn    234    ccc    H34  11087 0.31758000   1.008000   ; qtot 0.683754
11088         h1    234    ccc    H35  11088 0.06278000   1.008000   ; qtot 0.746534
11089         h1    234    ccc    H36  11089 0.06278000   1.008000   ; qtot 0.809314
11090         oh    234    ccc    O12  11090 -0.59472000  16.000000   ; qtot 0.214594
11091         ho    234    ccc    H37  11091 0.41908000   1.008000   ; qtot 0.633674
11092         os    234    ccc    O13  11092 -0.44552000  16.000000   ; qtot 0.188154
11093         ho    234    ccc    H38  11093 0.41908000   1.008000   ; qtot 0.607234
11094         h1    234    ccc    H39  11094 0.08578000   1.008000   ; qtot 0.693014
11095         oh    234    ccc     O5  11095 -0.58672000  16.000000   ; qtot 0.106294
11096         ho    234    ccc    H40  11096 0.41908000   1.008000   ; qtot 0.525374
11097         n3    234    ccc     N4  11097 -0.54282000  14.010000   ; qtot -0.017446
; residue  235 ccc rtp ccc q -0.0
11098          n    235    ccc     N1  11098 -0.46580000  14.010000   ; qtot -0.483246
11099         hn    235    ccc     H4  11099 0.31480000   1.008000   ; qtot -0.168446
11100         c3    235    ccc     C3  11100 -0.28250000  12.010000   ; qtot -0.450946
11101         h1    235    ccc     H5  11101 0.15710000   1.008000   ; qtot -0.293846
11102         c3    235    ccc     C4  11102 0.44180000  12.010000   ; qtot 0.147954
11103         h1    235    ccc     H6  11103 0.15710000   1.008000   ; qtot 0.305054
11104         h1    235    ccc     H7  11104 -0.03530000   1.008000   ; qtot 0.269754
11105         h1    235    ccc     H8  11105 -0.03530000   1.008000   ; qtot 0.234454
11106         n3    235    ccc     N2  11106 -0.74090000  14.010000   ; qtot -0.506446
11107         c3    235    ccc     C5  11107 0.51680000  12.010000   ; qtot 0.010354
11108         c3    235    ccc     C6  11108 0.51680000  12.010000   ; qtot 0.527154
11109         h1    235    ccc     H9  11109 -0.05230000   1.008000   ; qtot 0.474854
11110         c3    235    ccc     C7  11110 -0.60390000  12.010000   ; qtot -0.129046
11111         h1    235    ccc    H10  11111 -0.05230000   1.008000   ; qtot -0.181346
11112         hc    235    ccc    H11  11112 0.16730000   1.008000   ; qtot -0.014046
11113         hc    235    ccc    H12  11113 0.16730000   1.008000   ; qtot 0.153254
11114          c    235    ccc     C8  11114 0.72110000  12.010000   ; qtot 0.874354
11115          o    235    ccc     O2  11115 -0.61950000  16.000000   ; qtot 0.254854
11116         h1    235    ccc    H13  11116 -0.05230000   1.008000   ; qtot 0.202554
11117         h1    235    ccc    H14  11117 -0.05230000   1.008000   ; qtot 0.150254
11118         c3    235    ccc     C9  11118 -0.60390000  12.010000   ; qtot -0.453646
11119         hc    235    ccc    H15  11119 0.16730000   1.008000   ; qtot -0.286346
11120         hc    235    ccc    H16  11120 0.16730000   1.008000   ; qtot -0.119046
11121          c    235    ccc    C10  11121 0.72110000  12.010000   ; qtot 0.602054
11122          o    235    ccc     O4  11122 -0.61950000  16.000000   ; qtot -0.017446
11123         c3    235    ccc    C11  11123 0.08518000  12.010000   ; qtot 0.067734
11124         c3    235    ccc    C12  11124 0.07918000  12.010000   ; qtot 0.146914
11125         h1    235    ccc    H17  11125 0.06978000   1.008000   ; qtot 0.216694
11126         c3    235    ccc    C13  11126 0.07918000  12.010000   ; qtot 0.295874
11127         c3    235    ccc    C14  11127 0.03578000  12.010000   ; qtot 0.331654
11128         c3    235    ccc    C15  11128 0.33498000  12.010000   ; qtot 0.666634
11129         h1    235    ccc    H18  11129 0.06178000   1.008000   ; qtot 0.728414
11130         h1    235    ccc    H19  11130 0.11278000   1.008000   ; qtot 0.841194
11131         h2    235    ccc    H20  11131 0.12178000   1.008000   ; qtot 0.962974
11132         oh    235    ccc     O1  11132 -0.56972000  16.000000   ; qtot 0.393254
11133         oh    235    ccc     O6  11133 -0.57772000  16.000000   ; qtot -0.184466
11134         c3    235    ccc    C16  11134 0.14548000  12.010000   ; qtot -0.038986
11135         ho    235    ccc    H21  11135 0.40508000   1.008000   ; qtot 0.366094
11136         hn    235    ccc    H22  11136 0.31758000   1.008000   ; qtot 0.683674
11137         h1    235    ccc    H23  11137 0.06278000   1.008000   ; qtot 0.746454
11138         h1    235    ccc    H24  11138 0.06278000   1.008000   ; qtot 0.809234
11139         oh    235    ccc     O7  11139 -0.59472000  16.000000   ; qtot 0.214514
11140         ho    235    ccc    H25  11140 0.41908000   1.008000   ; qtot 0.633594
11141         os    235    ccc     O8  11141 -0.44552000  16.000000   ; qtot 0.188074
11142         ho    235    ccc    H26  11142 0.41908000   1.008000   ; qtot 0.607154
11143         h1    235    ccc    H27  11143 0.08578000   1.008000   ; qtot 0.692934
11144         oh    235    ccc     O9  11144 -0.58672000  16.000000   ; qtot 0.106214
11145         ho    235    ccc    H28  11145 0.41908000   1.008000   ; qtot 0.525294
11146         n3    235    ccc     N3  11146 -0.54282000  14.010000   ; qtot -0.017526
11147         c3    235    ccc    C17  11147 0.08518000  12.010000   ; qtot 0.067654
11148         c3    235    ccc    C18  11148 0.07918000  12.010000   ; qtot 0.146834
11149         h1    235    ccc    H29  11149 0.06978000   1.008000   ; qtot 0.216614
11150         c3    235    ccc    C19  11150 0.07918000  12.010000   ; qtot 0.295794
11151         c3    235    ccc    C20  11151 0.03578000  12.010000   ; qtot 0.331574
11152         c3    235    ccc    C21  11152 0.33498000  12.010000   ; qtot 0.666554
11153         h1    235    ccc    H30  11153 0.06178000   1.008000   ; qtot 0.728334
11154         h1    235    ccc    H31  11154 0.11278000   1.008000   ; qtot 0.841114
11155         h2    235    ccc    H32  11155 0.12178000   1.008000   ; qtot 0.962894
11156         oh    235    ccc    O10  11156 -0.56972000  16.000000   ; qtot 0.393174
11157         oh    235    ccc    O11  11157 -0.57772000  16.000000   ; qtot -0.184546
11158         c3    235    ccc    C22  11158 0.14548000  12.010000   ; qtot -0.039066
11159         ho    235    ccc    H33  11159 0.40508000   1.008000   ; qtot 0.366014
11160         hn    235    ccc    H34  11160 0.31758000   1.008000   ; qtot 0.683594
11161         h1    235    ccc    H35  11161 0.06278000   1.008000   ; qtot 0.746374
11162         h1    235    ccc    H36  11162 0.06278000   1.008000   ; qtot 0.809154
11163         oh    235    ccc    O12  11163 -0.59472000  16.000000   ; qtot 0.214434
11164         ho    235    ccc    H37  11164 0.41908000   1.008000   ; qtot 0.633514
11165         os    235    ccc    O13  11165 -0.44552000  16.000000   ; qtot 0.187994
11166         ho    235    ccc    H38  11166 0.41908000   1.008000   ; qtot 0.607074
11167         h1    235    ccc    H39  11167 0.08578000   1.008000   ; qtot 0.692854
11168         oh    235    ccc     O5  11168 -0.58672000  16.000000   ; qtot 0.106134
11169         ho    235    ccc    H40  11169 0.41908000   1.008000   ; qtot 0.525214
11170         n3    235    ccc     N4  11170 -0.54282000  14.010000   ; qtot -0.017606
; residue  236 ccc rtp ccc q -0.0
11171          n    236    ccc     N1  11171 -0.46580000  14.010000   ; qtot -0.483406
11172         hn    236    ccc     H4  11172 0.31480000   1.008000   ; qtot -0.168606
11173         c3    236    ccc     C3  11173 -0.28250000  12.010000   ; qtot -0.451106
11174         h1    236    ccc     H5  11174 0.15710000   1.008000   ; qtot -0.294006
11175         c3    236    ccc     C4  11175 0.44180000  12.010000   ; qtot 0.147794
11176         h1    236    ccc     H6  11176 0.15710000   1.008000   ; qtot 0.304894
11177         h1    236    ccc     H7  11177 -0.03530000   1.008000   ; qtot 0.269594
11178         h1    236    ccc     H8  11178 -0.03530000   1.008000   ; qtot 0.234294
11179         n3    236    ccc     N2  11179 -0.74090000  14.010000   ; qtot -0.506606
11180         c3    236    ccc     C5  11180 0.51680000  12.010000   ; qtot 0.010194
11181         c3    236    ccc     C6  11181 0.51680000  12.010000   ; qtot 0.526994
11182         h1    236    ccc     H9  11182 -0.05230000   1.008000   ; qtot 0.474694
11183         c3    236    ccc     C7  11183 -0.60390000  12.010000   ; qtot -0.129206
11184         h1    236    ccc    H10  11184 -0.05230000   1.008000   ; qtot -0.181506
11185         hc    236    ccc    H11  11185 0.16730000   1.008000   ; qtot -0.014206
11186         hc    236    ccc    H12  11186 0.16730000   1.008000   ; qtot 0.153094
11187          c    236    ccc     C8  11187 0.72110000  12.010000   ; qtot 0.874194
11188          o    236    ccc     O2  11188 -0.61950000  16.000000   ; qtot 0.254694
11189         h1    236    ccc    H13  11189 -0.05230000   1.008000   ; qtot 0.202394
11190         h1    236    ccc    H14  11190 -0.05230000   1.008000   ; qtot 0.150094
11191         c3    236    ccc     C9  11191 -0.60390000  12.010000   ; qtot -0.453806
11192         hc    236    ccc    H15  11192 0.16730000   1.008000   ; qtot -0.286506
11193         hc    236    ccc    H16  11193 0.16730000   1.008000   ; qtot -0.119206
11194          c    236    ccc    C10  11194 0.72110000  12.010000   ; qtot 0.601894
11195          o    236    ccc     O4  11195 -0.61950000  16.000000   ; qtot -0.017606
11196         c3    236    ccc    C11  11196 0.08518000  12.010000   ; qtot 0.067574
11197         c3    236    ccc    C12  11197 0.07918000  12.010000   ; qtot 0.146754
11198         h1    236    ccc    H17  11198 0.06978000   1.008000   ; qtot 0.216534
11199         c3    236    ccc    C13  11199 0.07918000  12.010000   ; qtot 0.295714
11200         c3    236    ccc    C14  11200 0.03578000  12.010000   ; qtot 0.331494
11201         c3    236    ccc    C15  11201 0.33498000  12.010000   ; qtot 0.666474
11202         h1    236    ccc    H18  11202 0.06178000   1.008000   ; qtot 0.728254
11203         h1    236    ccc    H19  11203 0.11278000   1.008000   ; qtot 0.841034
11204         h2    236    ccc    H20  11204 0.12178000   1.008000   ; qtot 0.962814
11205         oh    236    ccc     O1  11205 -0.56972000  16.000000   ; qtot 0.393094
11206         oh    236    ccc     O6  11206 -0.57772000  16.000000   ; qtot -0.184626
11207         c3    236    ccc    C16  11207 0.14548000  12.010000   ; qtot -0.039146
11208         ho    236    ccc    H21  11208 0.40508000   1.008000   ; qtot 0.365934
11209         hn    236    ccc    H22  11209 0.31758000   1.008000   ; qtot 0.683514
11210         h1    236    ccc    H23  11210 0.06278000   1.008000   ; qtot 0.746294
11211         h1    236    ccc    H24  11211 0.06278000   1.008000   ; qtot 0.809074
11212         oh    236    ccc     O7  11212 -0.59472000  16.000000   ; qtot 0.214354
11213         ho    236    ccc    H25  11213 0.41908000   1.008000   ; qtot 0.633434
11214         os    236    ccc     O8  11214 -0.44552000  16.000000   ; qtot 0.187914
11215         ho    236    ccc    H26  11215 0.41908000   1.008000   ; qtot 0.606994
11216         h1    236    ccc    H27  11216 0.08578000   1.008000   ; qtot 0.692774
11217         oh    236    ccc     O9  11217 -0.58672000  16.000000   ; qtot 0.106054
11218         ho    236    ccc    H28  11218 0.41908000   1.008000   ; qtot 0.525134
11219         n3    236    ccc     N3  11219 -0.54282000  14.010000   ; qtot -0.017686
11220         c3    236    ccc    C17  11220 0.08518000  12.010000   ; qtot 0.067494
11221         c3    236    ccc    C18  11221 0.07918000  12.010000   ; qtot 0.146674
11222         h1    236    ccc    H29  11222 0.06978000   1.008000   ; qtot 0.216454
11223         c3    236    ccc    C19  11223 0.07918000  12.010000   ; qtot 0.295634
11224         c3    236    ccc    C20  11224 0.03578000  12.010000   ; qtot 0.331414
11225         c3    236    ccc    C21  11225 0.33498000  12.010000   ; qtot 0.666394
11226         h1    236    ccc    H30  11226 0.06178000   1.008000   ; qtot 0.728174
11227         h1    236    ccc    H31  11227 0.11278000   1.008000   ; qtot 0.840954
11228         h2    236    ccc    H32  11228 0.12178000   1.008000   ; qtot 0.962734
11229         oh    236    ccc    O10  11229 -0.56972000  16.000000   ; qtot 0.393014
11230         oh    236    ccc    O11  11230 -0.57772000  16.000000   ; qtot -0.184706
11231         c3    236    ccc    C22  11231 0.14548000  12.010000   ; qtot -0.039226
11232         ho    236    ccc    H33  11232 0.40508000   1.008000   ; qtot 0.365854
11233         hn    236    ccc    H34  11233 0.31758000   1.008000   ; qtot 0.683434
11234         h1    236    ccc    H35  11234 0.06278000   1.008000   ; qtot 0.746214
11235         h1    236    ccc    H36  11235 0.06278000   1.008000   ; qtot 0.808994
11236         oh    236    ccc    O12  11236 -0.59472000  16.000000   ; qtot 0.214274
11237         ho    236    ccc    H37  11237 0.41908000   1.008000   ; qtot 0.633354
11238         os    236    ccc    O13  11238 -0.44552000  16.000000   ; qtot 0.187834
11239         ho    236    ccc    H38  11239 0.41908000   1.008000   ; qtot 0.606914
11240         h1    236    ccc    H39  11240 0.08578000   1.008000   ; qtot 0.692694
11241         oh    236    ccc     O5  11241 -0.58672000  16.000000   ; qtot 0.105974
11242         ho    236    ccc    H40  11242 0.41908000   1.008000   ; qtot 0.525054
11243         n3    236    ccc     N4  11243 -0.54282000  14.010000   ; qtot -0.017766
; residue  237 ccc rtp ccc q -0.0
11244          n    237    ccc     N1  11244 -0.46580000  14.010000   ; qtot -0.483566
11245         hn    237    ccc     H4  11245 0.31480000   1.008000   ; qtot -0.168766
11246         c3    237    ccc     C3  11246 -0.28250000  12.010000   ; qtot -0.451266
11247         h1    237    ccc     H5  11247 0.15710000   1.008000   ; qtot -0.294166
11248         c3    237    ccc     C4  11248 0.44180000  12.010000   ; qtot 0.147634
11249         h1    237    ccc     H6  11249 0.15710000   1.008000   ; qtot 0.304734
11250         h1    237    ccc     H7  11250 -0.03530000   1.008000   ; qtot 0.269434
11251         h1    237    ccc     H8  11251 -0.03530000   1.008000   ; qtot 0.234134
11252         n3    237    ccc     N2  11252 -0.74090000  14.010000   ; qtot -0.506766
11253         c3    237    ccc     C5  11253 0.51680000  12.010000   ; qtot 0.010034
11254         c3    237    ccc     C6  11254 0.51680000  12.010000   ; qtot 0.526834
11255         h1    237    ccc     H9  11255 -0.05230000   1.008000   ; qtot 0.474534
11256         c3    237    ccc     C7  11256 -0.60390000  12.010000   ; qtot -0.129366
11257         h1    237    ccc    H10  11257 -0.05230000   1.008000   ; qtot -0.181666
11258         hc    237    ccc    H11  11258 0.16730000   1.008000   ; qtot -0.014366
11259         hc    237    ccc    H12  11259 0.16730000   1.008000   ; qtot 0.152934
11260          c    237    ccc     C8  11260 0.72110000  12.010000   ; qtot 0.874034
11261          o    237    ccc     O2  11261 -0.61950000  16.000000   ; qtot 0.254534
11262         h1    237    ccc    H13  11262 -0.05230000   1.008000   ; qtot 0.202234
11263         h1    237    ccc    H14  11263 -0.05230000   1.008000   ; qtot 0.149934
11264         c3    237    ccc     C9  11264 -0.60390000  12.010000   ; qtot -0.453966
11265         hc    237    ccc    H15  11265 0.16730000   1.008000   ; qtot -0.286666
11266         hc    237    ccc    H16  11266 0.16730000   1.008000   ; qtot -0.119366
11267          c    237    ccc    C10  11267 0.72110000  12.010000   ; qtot 0.601734
11268          o    237    ccc     O4  11268 -0.61950000  16.000000   ; qtot -0.017766
11269         c3    237    ccc    C11  11269 0.08518000  12.010000   ; qtot 0.067414
11270         c3    237    ccc    C12  11270 0.07918000  12.010000   ; qtot 0.146594
11271         h1    237    ccc    H17  11271 0.06978000   1.008000   ; qtot 0.216374
11272         c3    237    ccc    C13  11272 0.07918000  12.010000   ; qtot 0.295554
11273         c3    237    ccc    C14  11273 0.03578000  12.010000   ; qtot 0.331334
11274         c3    237    ccc    C15  11274 0.33498000  12.010000   ; qtot 0.666314
11275         h1    237    ccc    H18  11275 0.06178000   1.008000   ; qtot 0.728094
11276         h1    237    ccc    H19  11276 0.11278000   1.008000   ; qtot 0.840874
11277         h2    237    ccc    H20  11277 0.12178000   1.008000   ; qtot 0.962654
11278         oh    237    ccc     O1  11278 -0.56972000  16.000000   ; qtot 0.392934
11279         oh    237    ccc     O6  11279 -0.57772000  16.000000   ; qtot -0.184786
11280         c3    237    ccc    C16  11280 0.14548000  12.010000   ; qtot -0.039306
11281         ho    237    ccc    H21  11281 0.40508000   1.008000   ; qtot 0.365774
11282         hn    237    ccc    H22  11282 0.31758000   1.008000   ; qtot 0.683354
11283         h1    237    ccc    H23  11283 0.06278000   1.008000   ; qtot 0.746134
11284         h1    237    ccc    H24  11284 0.06278000   1.008000   ; qtot 0.808914
11285         oh    237    ccc     O7  11285 -0.59472000  16.000000   ; qtot 0.214194
11286         ho    237    ccc    H25  11286 0.41908000   1.008000   ; qtot 0.633274
11287         os    237    ccc     O8  11287 -0.44552000  16.000000   ; qtot 0.187754
11288         ho    237    ccc    H26  11288 0.41908000   1.008000   ; qtot 0.606834
11289         h1    237    ccc    H27  11289 0.08578000   1.008000   ; qtot 0.692614
11290         oh    237    ccc     O9  11290 -0.58672000  16.000000   ; qtot 0.105894
11291         ho    237    ccc    H28  11291 0.41908000   1.008000   ; qtot 0.524974
11292         n3    237    ccc     N3  11292 -0.54282000  14.010000   ; qtot -0.017846
11293         c3    237    ccc    C17  11293 0.08518000  12.010000   ; qtot 0.067334
11294         c3    237    ccc    C18  11294 0.07918000  12.010000   ; qtot 0.146514
11295         h1    237    ccc    H29  11295 0.06978000   1.008000   ; qtot 0.216294
11296         c3    237    ccc    C19  11296 0.07918000  12.010000   ; qtot 0.295474
11297         c3    237    ccc    C20  11297 0.03578000  12.010000   ; qtot 0.331254
11298         c3    237    ccc    C21  11298 0.33498000  12.010000   ; qtot 0.666234
11299         h1    237    ccc    H30  11299 0.06178000   1.008000   ; qtot 0.728014
11300         h1    237    ccc    H31  11300 0.11278000   1.008000   ; qtot 0.840794
11301         h2    237    ccc    H32  11301 0.12178000   1.008000   ; qtot 0.962574
11302         oh    237    ccc    O10  11302 -0.56972000  16.000000   ; qtot 0.392854
11303         oh    237    ccc    O11  11303 -0.57772000  16.000000   ; qtot -0.184866
11304         c3    237    ccc    C22  11304 0.14548000  12.010000   ; qtot -0.039386
11305         ho    237    ccc    H33  11305 0.40508000   1.008000   ; qtot 0.365694
11306         hn    237    ccc    H34  11306 0.31758000   1.008000   ; qtot 0.683274
11307         h1    237    ccc    H35  11307 0.06278000   1.008000   ; qtot 0.746054
11308         h1    237    ccc    H36  11308 0.06278000   1.008000   ; qtot 0.808834
11309         oh    237    ccc    O12  11309 -0.59472000  16.000000   ; qtot 0.214114
11310         ho    237    ccc    H37  11310 0.41908000   1.008000   ; qtot 0.633194
11311         os    237    ccc    O13  11311 -0.44552000  16.000000   ; qtot 0.187674
11312         ho    237    ccc    H38  11312 0.41908000   1.008000   ; qtot 0.606754
11313         h1    237    ccc    H39  11313 0.08578000   1.008000   ; qtot 0.692534
11314         oh    237    ccc     O5  11314 -0.58672000  16.000000   ; qtot 0.105814
11315         ho    237    ccc    H40  11315 0.41908000   1.008000   ; qtot 0.524894
11316         n3    237    ccc     N4  11316 -0.54282000  14.010000   ; qtot -0.017926
; residue  238 ccc rtp ccc q -0.0
11317          n    238    ccc     N1  11317 -0.46580000  14.010000   ; qtot -0.483726
11318         hn    238    ccc     H4  11318 0.31480000   1.008000   ; qtot -0.168926
11319         c3    238    ccc     C3  11319 -0.28250000  12.010000   ; qtot -0.451426
11320         h1    238    ccc     H5  11320 0.15710000   1.008000   ; qtot -0.294326
11321         c3    238    ccc     C4  11321 0.44180000  12.010000   ; qtot 0.147474
11322         h1    238    ccc     H6  11322 0.15710000   1.008000   ; qtot 0.304574
11323         h1    238    ccc     H7  11323 -0.03530000   1.008000   ; qtot 0.269274
11324         h1    238    ccc     H8  11324 -0.03530000   1.008000   ; qtot 0.233974
11325         n3    238    ccc     N2  11325 -0.74090000  14.010000   ; qtot -0.506926
11326         c3    238    ccc     C5  11326 0.51680000  12.010000   ; qtot 0.009874
11327         c3    238    ccc     C6  11327 0.51680000  12.010000   ; qtot 0.526674
11328         h1    238    ccc     H9  11328 -0.05230000   1.008000   ; qtot 0.474374
11329         c3    238    ccc     C7  11329 -0.60390000  12.010000   ; qtot -0.129526
11330         h1    238    ccc    H10  11330 -0.05230000   1.008000   ; qtot -0.181826
11331         hc    238    ccc    H11  11331 0.16730000   1.008000   ; qtot -0.014526
11332         hc    238    ccc    H12  11332 0.16730000   1.008000   ; qtot 0.152774
11333          c    238    ccc     C8  11333 0.72110000  12.010000   ; qtot 0.873874
11334          o    238    ccc     O2  11334 -0.61950000  16.000000   ; qtot 0.254374
11335         h1    238    ccc    H13  11335 -0.05230000   1.008000   ; qtot 0.202074
11336         h1    238    ccc    H14  11336 -0.05230000   1.008000   ; qtot 0.149774
11337         c3    238    ccc     C9  11337 -0.60390000  12.010000   ; qtot -0.454126
11338         hc    238    ccc    H15  11338 0.16730000   1.008000   ; qtot -0.286826
11339         hc    238    ccc    H16  11339 0.16730000   1.008000   ; qtot -0.119526
11340          c    238    ccc    C10  11340 0.72110000  12.010000   ; qtot 0.601574
11341          o    238    ccc     O4  11341 -0.61950000  16.000000   ; qtot -0.017926
11342         c3    238    ccc    C11  11342 0.08518000  12.010000   ; qtot 0.067254
11343         c3    238    ccc    C12  11343 0.07918000  12.010000   ; qtot 0.146434
11344         h1    238    ccc    H17  11344 0.06978000   1.008000   ; qtot 0.216214
11345         c3    238    ccc    C13  11345 0.07918000  12.010000   ; qtot 0.295394
11346         c3    238    ccc    C14  11346 0.03578000  12.010000   ; qtot 0.331174
11347         c3    238    ccc    C15  11347 0.33498000  12.010000   ; qtot 0.666154
11348         h1    238    ccc    H18  11348 0.06178000   1.008000   ; qtot 0.727934
11349         h1    238    ccc    H19  11349 0.11278000   1.008000   ; qtot 0.840714
11350         h2    238    ccc    H20  11350 0.12178000   1.008000   ; qtot 0.962494
11351         oh    238    ccc     O1  11351 -0.56972000  16.000000   ; qtot 0.392774
11352         oh    238    ccc     O6  11352 -0.57772000  16.000000   ; qtot -0.184946
11353         c3    238    ccc    C16  11353 0.14548000  12.010000   ; qtot -0.039466
11354         ho    238    ccc    H21  11354 0.40508000   1.008000   ; qtot 0.365614
11355         hn    238    ccc    H22  11355 0.31758000   1.008000   ; qtot 0.683194
11356         h1    238    ccc    H23  11356 0.06278000   1.008000   ; qtot 0.745974
11357         h1    238    ccc    H24  11357 0.06278000   1.008000   ; qtot 0.808754
11358         oh    238    ccc     O7  11358 -0.59472000  16.000000   ; qtot 0.214034
11359         ho    238    ccc    H25  11359 0.41908000   1.008000   ; qtot 0.633114
11360         os    238    ccc     O8  11360 -0.44552000  16.000000   ; qtot 0.187594
11361         ho    238    ccc    H26  11361 0.41908000   1.008000   ; qtot 0.606674
11362         h1    238    ccc    H27  11362 0.08578000   1.008000   ; qtot 0.692454
11363         oh    238    ccc     O9  11363 -0.58672000  16.000000   ; qtot 0.105734
11364         ho    238    ccc    H28  11364 0.41908000   1.008000   ; qtot 0.524814
11365         n3    238    ccc     N3  11365 -0.54282000  14.010000   ; qtot -0.018006
11366         c3    238    ccc    C17  11366 0.08518000  12.010000   ; qtot 0.067174
11367         c3    238    ccc    C18  11367 0.07918000  12.010000   ; qtot 0.146354
11368         h1    238    ccc    H29  11368 0.06978000   1.008000   ; qtot 0.216134
11369         c3    238    ccc    C19  11369 0.07918000  12.010000   ; qtot 0.295314
11370         c3    238    ccc    C20  11370 0.03578000  12.010000   ; qtot 0.331094
11371         c3    238    ccc    C21  11371 0.33498000  12.010000   ; qtot 0.666074
11372         h1    238    ccc    H30  11372 0.06178000   1.008000   ; qtot 0.727854
11373         h1    238    ccc    H31  11373 0.11278000   1.008000   ; qtot 0.840634
11374         h2    238    ccc    H32  11374 0.12178000   1.008000   ; qtot 0.962414
11375         oh    238    ccc    O10  11375 -0.56972000  16.000000   ; qtot 0.392694
11376         oh    238    ccc    O11  11376 -0.57772000  16.000000   ; qtot -0.185026
11377         c3    238    ccc    C22  11377 0.14548000  12.010000   ; qtot -0.039546
11378         ho    238    ccc    H33  11378 0.40508000   1.008000   ; qtot 0.365534
11379         hn    238    ccc    H34  11379 0.31758000   1.008000   ; qtot 0.683114
11380         h1    238    ccc    H35  11380 0.06278000   1.008000   ; qtot 0.745894
11381         h1    238    ccc    H36  11381 0.06278000   1.008000   ; qtot 0.808674
11382         oh    238    ccc    O12  11382 -0.59472000  16.000000   ; qtot 0.213954
11383         ho    238    ccc    H37  11383 0.41908000   1.008000   ; qtot 0.633034
11384         os    238    ccc    O13  11384 -0.44552000  16.000000   ; qtot 0.187514
11385         ho    238    ccc    H38  11385 0.41908000   1.008000   ; qtot 0.606594
11386         h1    238    ccc    H39  11386 0.08578000   1.008000   ; qtot 0.692374
11387         oh    238    ccc     O5  11387 -0.58672000  16.000000   ; qtot 0.105654
11388         ho    238    ccc    H40  11388 0.41908000   1.008000   ; qtot 0.524734
11389         n3    238    ccc     N4  11389 -0.54282000  14.010000   ; qtot -0.018086
; residue  239 ccc rtp ccc q -0.0
11390          n    239    ccc     N1  11390 -0.46580000  14.010000   ; qtot -0.483886
11391         hn    239    ccc     H4  11391 0.31480000   1.008000   ; qtot -0.169086
11392         c3    239    ccc     C3  11392 -0.28250000  12.010000   ; qtot -0.451586
11393         h1    239    ccc     H5  11393 0.15710000   1.008000   ; qtot -0.294486
11394         c3    239    ccc     C4  11394 0.44180000  12.010000   ; qtot 0.147314
11395         h1    239    ccc     H6  11395 0.15710000   1.008000   ; qtot 0.304414
11396         h1    239    ccc     H7  11396 -0.03530000   1.008000   ; qtot 0.269114
11397         h1    239    ccc     H8  11397 -0.03530000   1.008000   ; qtot 0.233814
11398         n3    239    ccc     N2  11398 -0.74090000  14.010000   ; qtot -0.507086
11399         c3    239    ccc     C5  11399 0.51680000  12.010000   ; qtot 0.009714
11400         c3    239    ccc     C6  11400 0.51680000  12.010000   ; qtot 0.526514
11401         h1    239    ccc     H9  11401 -0.05230000   1.008000   ; qtot 0.474214
11402         c3    239    ccc     C7  11402 -0.60390000  12.010000   ; qtot -0.129686
11403         h1    239    ccc    H10  11403 -0.05230000   1.008000   ; qtot -0.181986
11404         hc    239    ccc    H11  11404 0.16730000   1.008000   ; qtot -0.014686
11405         hc    239    ccc    H12  11405 0.16730000   1.008000   ; qtot 0.152614
11406          c    239    ccc     C8  11406 0.72110000  12.010000   ; qtot 0.873714
11407          o    239    ccc     O2  11407 -0.61950000  16.000000   ; qtot 0.254214
11408         h1    239    ccc    H13  11408 -0.05230000   1.008000   ; qtot 0.201914
11409         h1    239    ccc    H14  11409 -0.05230000   1.008000   ; qtot 0.149614
11410         c3    239    ccc     C9  11410 -0.60390000  12.010000   ; qtot -0.454286
11411         hc    239    ccc    H15  11411 0.16730000   1.008000   ; qtot -0.286986
11412         hc    239    ccc    H16  11412 0.16730000   1.008000   ; qtot -0.119686
11413          c    239    ccc    C10  11413 0.72110000  12.010000   ; qtot 0.601414
11414          o    239    ccc     O4  11414 -0.61950000  16.000000   ; qtot -0.018086
11415         c3    239    ccc    C11  11415 0.08518000  12.010000   ; qtot 0.067094
11416         c3    239    ccc    C12  11416 0.07918000  12.010000   ; qtot 0.146274
11417         h1    239    ccc    H17  11417 0.06978000   1.008000   ; qtot 0.216054
11418         c3    239    ccc    C13  11418 0.07918000  12.010000   ; qtot 0.295234
11419         c3    239    ccc    C14  11419 0.03578000  12.010000   ; qtot 0.331014
11420         c3    239    ccc    C15  11420 0.33498000  12.010000   ; qtot 0.665994
11421         h1    239    ccc    H18  11421 0.06178000   1.008000   ; qtot 0.727774
11422         h1    239    ccc    H19  11422 0.11278000   1.008000   ; qtot 0.840554
11423         h2    239    ccc    H20  11423 0.12178000   1.008000   ; qtot 0.962334
11424         oh    239    ccc     O1  11424 -0.56972000  16.000000   ; qtot 0.392614
11425         oh    239    ccc     O6  11425 -0.57772000  16.000000   ; qtot -0.185106
11426         c3    239    ccc    C16  11426 0.14548000  12.010000   ; qtot -0.039626
11427         ho    239    ccc    H21  11427 0.40508000   1.008000   ; qtot 0.365454
11428         hn    239    ccc    H22  11428 0.31758000   1.008000   ; qtot 0.683034
11429         h1    239    ccc    H23  11429 0.06278000   1.008000   ; qtot 0.745814
11430         h1    239    ccc    H24  11430 0.06278000   1.008000   ; qtot 0.808594
11431         oh    239    ccc     O7  11431 -0.59472000  16.000000   ; qtot 0.213874
11432         ho    239    ccc    H25  11432 0.41908000   1.008000   ; qtot 0.632954
11433         os    239    ccc     O8  11433 -0.44552000  16.000000   ; qtot 0.187434
11434         ho    239    ccc    H26  11434 0.41908000   1.008000   ; qtot 0.606514
11435         h1    239    ccc    H27  11435 0.08578000   1.008000   ; qtot 0.692294
11436         oh    239    ccc     O9  11436 -0.58672000  16.000000   ; qtot 0.105574
11437         ho    239    ccc    H28  11437 0.41908000   1.008000   ; qtot 0.524654
11438         n3    239    ccc     N3  11438 -0.54282000  14.010000   ; qtot -0.018166
11439         c3    239    ccc    C17  11439 0.08518000  12.010000   ; qtot 0.067014
11440         c3    239    ccc    C18  11440 0.07918000  12.010000   ; qtot 0.146194
11441         h1    239    ccc    H29  11441 0.06978000   1.008000   ; qtot 0.215974
11442         c3    239    ccc    C19  11442 0.07918000  12.010000   ; qtot 0.295154
11443         c3    239    ccc    C20  11443 0.03578000  12.010000   ; qtot 0.330934
11444         c3    239    ccc    C21  11444 0.33498000  12.010000   ; qtot 0.665914
11445         h1    239    ccc    H30  11445 0.06178000   1.008000   ; qtot 0.727694
11446         h1    239    ccc    H31  11446 0.11278000   1.008000   ; qtot 0.840474
11447         h2    239    ccc    H32  11447 0.12178000   1.008000   ; qtot 0.962254
11448         oh    239    ccc    O10  11448 -0.56972000  16.000000   ; qtot 0.392534
11449         oh    239    ccc    O11  11449 -0.57772000  16.000000   ; qtot -0.185186
11450         c3    239    ccc    C22  11450 0.14548000  12.010000   ; qtot -0.039706
11451         ho    239    ccc    H33  11451 0.40508000   1.008000   ; qtot 0.365374
11452         hn    239    ccc    H34  11452 0.31758000   1.008000   ; qtot 0.682954
11453         h1    239    ccc    H35  11453 0.06278000   1.008000   ; qtot 0.745734
11454         h1    239    ccc    H36  11454 0.06278000   1.008000   ; qtot 0.808514
11455         oh    239    ccc    O12  11455 -0.59472000  16.000000   ; qtot 0.213794
11456         ho    239    ccc    H37  11456 0.41908000   1.008000   ; qtot 0.632874
11457         os    239    ccc    O13  11457 -0.44552000  16.000000   ; qtot 0.187354
11458         ho    239    ccc    H38  11458 0.41908000   1.008000   ; qtot 0.606434
11459         h1    239    ccc    H39  11459 0.08578000   1.008000   ; qtot 0.692214
11460         oh    239    ccc     O5  11460 -0.58672000  16.000000   ; qtot 0.105494
11461         ho    239    ccc    H40  11461 0.41908000   1.008000   ; qtot 0.524574
11462         n3    239    ccc     N4  11462 -0.54282000  14.010000   ; qtot -0.018246
; residue  240 ccc rtp ccc q -0.0
11463          n    240    ccc     N1  11463 -0.46580000  14.010000   ; qtot -0.484046
11464         hn    240    ccc     H4  11464 0.31480000   1.008000   ; qtot -0.169246
11465         c3    240    ccc     C3  11465 -0.28250000  12.010000   ; qtot -0.451746
11466         h1    240    ccc     H5  11466 0.15710000   1.008000   ; qtot -0.294646
11467         c3    240    ccc     C4  11467 0.44180000  12.010000   ; qtot 0.147154
11468         h1    240    ccc     H6  11468 0.15710000   1.008000   ; qtot 0.304254
11469         h1    240    ccc     H7  11469 -0.03530000   1.008000   ; qtot 0.268954
11470         h1    240    ccc     H8  11470 -0.03530000   1.008000   ; qtot 0.233654
11471         n3    240    ccc     N2  11471 -0.74090000  14.010000   ; qtot -0.507246
11472         c3    240    ccc     C5  11472 0.51680000  12.010000   ; qtot 0.009554
11473         c3    240    ccc     C6  11473 0.51680000  12.010000   ; qtot 0.526354
11474         h1    240    ccc     H9  11474 -0.05230000   1.008000   ; qtot 0.474054
11475         c3    240    ccc     C7  11475 -0.60390000  12.010000   ; qtot -0.129846
11476         h1    240    ccc    H10  11476 -0.05230000   1.008000   ; qtot -0.182146
11477         hc    240    ccc    H11  11477 0.16730000   1.008000   ; qtot -0.014846
11478         hc    240    ccc    H12  11478 0.16730000   1.008000   ; qtot 0.152454
11479          c    240    ccc     C8  11479 0.72110000  12.010000   ; qtot 0.873554
11480          o    240    ccc     O2  11480 -0.61950000  16.000000   ; qtot 0.254054
11481         h1    240    ccc    H13  11481 -0.05230000   1.008000   ; qtot 0.201754
11482         h1    240    ccc    H14  11482 -0.05230000   1.008000   ; qtot 0.149454
11483         c3    240    ccc     C9  11483 -0.60390000  12.010000   ; qtot -0.454446
11484         hc    240    ccc    H15  11484 0.16730000   1.008000   ; qtot -0.287146
11485         hc    240    ccc    H16  11485 0.16730000   1.008000   ; qtot -0.119846
11486          c    240    ccc    C10  11486 0.72110000  12.010000   ; qtot 0.601254
11487          o    240    ccc     O4  11487 -0.61950000  16.000000   ; qtot -0.018246
11488         c3    240    ccc    C11  11488 0.08518000  12.010000   ; qtot 0.066934
11489         c3    240    ccc    C12  11489 0.07918000  12.010000   ; qtot 0.146114
11490         h1    240    ccc    H17  11490 0.06978000   1.008000   ; qtot 0.215894
11491         c3    240    ccc    C13  11491 0.07918000  12.010000   ; qtot 0.295074
11492         c3    240    ccc    C14  11492 0.03578000  12.010000   ; qtot 0.330854
11493         c3    240    ccc    C15  11493 0.33498000  12.010000   ; qtot 0.665834
11494         h1    240    ccc    H18  11494 0.06178000   1.008000   ; qtot 0.727614
11495         h1    240    ccc    H19  11495 0.11278000   1.008000   ; qtot 0.840394
11496         h2    240    ccc    H20  11496 0.12178000   1.008000   ; qtot 0.962174
11497         oh    240    ccc     O1  11497 -0.56972000  16.000000   ; qtot 0.392454
11498         oh    240    ccc     O6  11498 -0.57772000  16.000000   ; qtot -0.185266
11499         c3    240    ccc    C16  11499 0.14548000  12.010000   ; qtot -0.039786
11500         ho    240    ccc    H21  11500 0.40508000   1.008000   ; qtot 0.365294
11501         hn    240    ccc    H22  11501 0.31758000   1.008000   ; qtot 0.682874
11502         h1    240    ccc    H23  11502 0.06278000   1.008000   ; qtot 0.745654
11503         h1    240    ccc    H24  11503 0.06278000   1.008000   ; qtot 0.808434
11504         oh    240    ccc     O7  11504 -0.59472000  16.000000   ; qtot 0.213714
11505         ho    240    ccc    H25  11505 0.41908000   1.008000   ; qtot 0.632794
11506         os    240    ccc     O8  11506 -0.44552000  16.000000   ; qtot 0.187274
11507         ho    240    ccc    H26  11507 0.41908000   1.008000   ; qtot 0.606354
11508         h1    240    ccc    H27  11508 0.08578000   1.008000   ; qtot 0.692134
11509         oh    240    ccc     O9  11509 -0.58672000  16.000000   ; qtot 0.105414
11510         ho    240    ccc    H28  11510 0.41908000   1.008000   ; qtot 0.524494
11511         n3    240    ccc     N3  11511 -0.54282000  14.010000   ; qtot -0.018326
11512         c3    240    ccc    C17  11512 0.08518000  12.010000   ; qtot 0.066854
11513         c3    240    ccc    C18  11513 0.07918000  12.010000   ; qtot 0.146034
11514         h1    240    ccc    H29  11514 0.06978000   1.008000   ; qtot 0.215814
11515         c3    240    ccc    C19  11515 0.07918000  12.010000   ; qtot 0.294994
11516         c3    240    ccc    C20  11516 0.03578000  12.010000   ; qtot 0.330774
11517         c3    240    ccc    C21  11517 0.33498000  12.010000   ; qtot 0.665754
11518         h1    240    ccc    H30  11518 0.06178000   1.008000   ; qtot 0.727534
11519         h1    240    ccc    H31  11519 0.11278000   1.008000   ; qtot 0.840314
11520         h2    240    ccc    H32  11520 0.12178000   1.008000   ; qtot 0.962094
11521         oh    240    ccc    O10  11521 -0.56972000  16.000000   ; qtot 0.392374
11522         oh    240    ccc    O11  11522 -0.57772000  16.000000   ; qtot -0.185346
11523         c3    240    ccc    C22  11523 0.14548000  12.010000   ; qtot -0.039866
11524         ho    240    ccc    H33  11524 0.40508000   1.008000   ; qtot 0.365214
11525         hn    240    ccc    H34  11525 0.31758000   1.008000   ; qtot 0.682794
11526         h1    240    ccc    H35  11526 0.06278000   1.008000   ; qtot 0.745574
11527         h1    240    ccc    H36  11527 0.06278000   1.008000   ; qtot 0.808354
11528         oh    240    ccc    O12  11528 -0.59472000  16.000000   ; qtot 0.213634
11529         ho    240    ccc    H37  11529 0.41908000   1.008000   ; qtot 0.632714
11530         os    240    ccc    O13  11530 -0.44552000  16.000000   ; qtot 0.187194
11531         ho    240    ccc    H38  11531 0.41908000   1.008000   ; qtot 0.606274
11532         h1    240    ccc    H39  11532 0.08578000   1.008000   ; qtot 0.692054
11533         oh    240    ccc     O5  11533 -0.58672000  16.000000   ; qtot 0.105334
11534         ho    240    ccc    H40  11534 0.41908000   1.008000   ; qtot 0.524414
11535         n3    240    ccc     N4  11535 -0.54282000  14.010000   ; qtot -0.018406
; residue  241 ccc rtp ccc q -0.0
11536          n    241    ccc     N1  11536 -0.46580000  14.010000   ; qtot -0.484206
11537         hn    241    ccc     H4  11537 0.31480000   1.008000   ; qtot -0.169406
11538         c3    241    ccc     C3  11538 -0.28250000  12.010000   ; qtot -0.451906
11539         h1    241    ccc     H5  11539 0.15710000   1.008000   ; qtot -0.294806
11540         c3    241    ccc     C4  11540 0.44180000  12.010000   ; qtot 0.146994
11541         h1    241    ccc     H6  11541 0.15710000   1.008000   ; qtot 0.304094
11542         h1    241    ccc     H7  11542 -0.03530000   1.008000   ; qtot 0.268794
11543         h1    241    ccc     H8  11543 -0.03530000   1.008000   ; qtot 0.233494
11544         n3    241    ccc     N2  11544 -0.74090000  14.010000   ; qtot -0.507406
11545         c3    241    ccc     C5  11545 0.51680000  12.010000   ; qtot 0.009394
11546         c3    241    ccc     C6  11546 0.51680000  12.010000   ; qtot 0.526194
11547         h1    241    ccc     H9  11547 -0.05230000   1.008000   ; qtot 0.473894
11548         c3    241    ccc     C7  11548 -0.60390000  12.010000   ; qtot -0.130006
11549         h1    241    ccc    H10  11549 -0.05230000   1.008000   ; qtot -0.182306
11550         hc    241    ccc    H11  11550 0.16730000   1.008000   ; qtot -0.015006
11551         hc    241    ccc    H12  11551 0.16730000   1.008000   ; qtot 0.152294
11552          c    241    ccc     C8  11552 0.72110000  12.010000   ; qtot 0.873394
11553          o    241    ccc     O2  11553 -0.61950000  16.000000   ; qtot 0.253894
11554         h1    241    ccc    H13  11554 -0.05230000   1.008000   ; qtot 0.201594
11555         h1    241    ccc    H14  11555 -0.05230000   1.008000   ; qtot 0.149294
11556         c3    241    ccc     C9  11556 -0.60390000  12.010000   ; qtot -0.454606
11557         hc    241    ccc    H15  11557 0.16730000   1.008000   ; qtot -0.287306
11558         hc    241    ccc    H16  11558 0.16730000   1.008000   ; qtot -0.120006
11559          c    241    ccc    C10  11559 0.72110000  12.010000   ; qtot 0.601094
11560          o    241    ccc     O4  11560 -0.61950000  16.000000   ; qtot -0.018406
11561         c3    241    ccc    C11  11561 0.08518000  12.010000   ; qtot 0.066774
11562         c3    241    ccc    C12  11562 0.07918000  12.010000   ; qtot 0.145954
11563         h1    241    ccc    H17  11563 0.06978000   1.008000   ; qtot 0.215734
11564         c3    241    ccc    C13  11564 0.07918000  12.010000   ; qtot 0.294914
11565         c3    241    ccc    C14  11565 0.03578000  12.010000   ; qtot 0.330694
11566         c3    241    ccc    C15  11566 0.33498000  12.010000   ; qtot 0.665674
11567         h1    241    ccc    H18  11567 0.06178000   1.008000   ; qtot 0.727454
11568         h1    241    ccc    H19  11568 0.11278000   1.008000   ; qtot 0.840234
11569         h2    241    ccc    H20  11569 0.12178000   1.008000   ; qtot 0.962014
11570         oh    241    ccc     O1  11570 -0.56972000  16.000000   ; qtot 0.392294
11571         oh    241    ccc     O6  11571 -0.57772000  16.000000   ; qtot -0.185426
11572         c3    241    ccc    C16  11572 0.14548000  12.010000   ; qtot -0.039946
11573         ho    241    ccc    H21  11573 0.40508000   1.008000   ; qtot 0.365134
11574         hn    241    ccc    H22  11574 0.31758000   1.008000   ; qtot 0.682714
11575         h1    241    ccc    H23  11575 0.06278000   1.008000   ; qtot 0.745494
11576         h1    241    ccc    H24  11576 0.06278000   1.008000   ; qtot 0.808274
11577         oh    241    ccc     O7  11577 -0.59472000  16.000000   ; qtot 0.213554
11578         ho    241    ccc    H25  11578 0.41908000   1.008000   ; qtot 0.632634
11579         os    241    ccc     O8  11579 -0.44552000  16.000000   ; qtot 0.187114
11580         ho    241    ccc    H26  11580 0.41908000   1.008000   ; qtot 0.606194
11581         h1    241    ccc    H27  11581 0.08578000   1.008000   ; qtot 0.691974
11582         oh    241    ccc     O9  11582 -0.58672000  16.000000   ; qtot 0.105254
11583         ho    241    ccc    H28  11583 0.41908000   1.008000   ; qtot 0.524334
11584         n3    241    ccc     N3  11584 -0.54282000  14.010000   ; qtot -0.018486
11585         c3    241    ccc    C17  11585 0.08518000  12.010000   ; qtot 0.066694
11586         c3    241    ccc    C18  11586 0.07918000  12.010000   ; qtot 0.145874
11587         h1    241    ccc    H29  11587 0.06978000   1.008000   ; qtot 0.215654
11588         c3    241    ccc    C19  11588 0.07918000  12.010000   ; qtot 0.294834
11589         c3    241    ccc    C20  11589 0.03578000  12.010000   ; qtot 0.330614
11590         c3    241    ccc    C21  11590 0.33498000  12.010000   ; qtot 0.665594
11591         h1    241    ccc    H30  11591 0.06178000   1.008000   ; qtot 0.727374
11592         h1    241    ccc    H31  11592 0.11278000   1.008000   ; qtot 0.840154
11593         h2    241    ccc    H32  11593 0.12178000   1.008000   ; qtot 0.961934
11594         oh    241    ccc    O10  11594 -0.56972000  16.000000   ; qtot 0.392214
11595         oh    241    ccc    O11  11595 -0.57772000  16.000000   ; qtot -0.185506
11596         c3    241    ccc    C22  11596 0.14548000  12.010000   ; qtot -0.040026
11597         ho    241    ccc    H33  11597 0.40508000   1.008000   ; qtot 0.365054
11598         hn    241    ccc    H34  11598 0.31758000   1.008000   ; qtot 0.682634
11599         h1    241    ccc    H35  11599 0.06278000   1.008000   ; qtot 0.745413
11600         h1    241    ccc    H36  11600 0.06278000   1.008000   ; qtot 0.808193
11601         oh    241    ccc    O12  11601 -0.59472000  16.000000   ; qtot 0.213473
11602         ho    241    ccc    H37  11602 0.41908000   1.008000   ; qtot 0.632553
11603         os    241    ccc    O13  11603 -0.44552000  16.000000   ; qtot 0.187033
11604         ho    241    ccc    H38  11604 0.41908000   1.008000   ; qtot 0.606113
11605         h1    241    ccc    H39  11605 0.08578000   1.008000   ; qtot 0.691893
11606         oh    241    ccc     O5  11606 -0.58672000  16.000000   ; qtot 0.105173
11607         ho    241    ccc    H40  11607 0.41908000   1.008000   ; qtot 0.524253
11608         n3    241    ccc     N4  11608 -0.54282000  14.010000   ; qtot -0.018567
; residue  242 ccc rtp ccc q -0.0
11609          n    242    ccc     N1  11609 -0.46580000  14.010000   ; qtot -0.484367
11610         hn    242    ccc     H4  11610 0.31480000   1.008000   ; qtot -0.169567
11611         c3    242    ccc     C3  11611 -0.28250000  12.010000   ; qtot -0.452067
11612         h1    242    ccc     H5  11612 0.15710000   1.008000   ; qtot -0.294967
11613         c3    242    ccc     C4  11613 0.44180000  12.010000   ; qtot 0.146833
11614         h1    242    ccc     H6  11614 0.15710000   1.008000   ; qtot 0.303933
11615         h1    242    ccc     H7  11615 -0.03530000   1.008000   ; qtot 0.268633
11616         h1    242    ccc     H8  11616 -0.03530000   1.008000   ; qtot 0.233333
11617         n3    242    ccc     N2  11617 -0.74090000  14.010000   ; qtot -0.507567
11618         c3    242    ccc     C5  11618 0.51680000  12.010000   ; qtot 0.009233
11619         c3    242    ccc     C6  11619 0.51680000  12.010000   ; qtot 0.526033
11620         h1    242    ccc     H9  11620 -0.05230000   1.008000   ; qtot 0.473733
11621         c3    242    ccc     C7  11621 -0.60390000  12.010000   ; qtot -0.130167
11622         h1    242    ccc    H10  11622 -0.05230000   1.008000   ; qtot -0.182467
11623         hc    242    ccc    H11  11623 0.16730000   1.008000   ; qtot -0.015167
11624         hc    242    ccc    H12  11624 0.16730000   1.008000   ; qtot 0.152133
11625          c    242    ccc     C8  11625 0.72110000  12.010000   ; qtot 0.873233
11626          o    242    ccc     O2  11626 -0.61950000  16.000000   ; qtot 0.253733
11627         h1    242    ccc    H13  11627 -0.05230000   1.008000   ; qtot 0.201433
11628         h1    242    ccc    H14  11628 -0.05230000   1.008000   ; qtot 0.149133
11629         c3    242    ccc     C9  11629 -0.60390000  12.010000   ; qtot -0.454767
11630         hc    242    ccc    H15  11630 0.16730000   1.008000   ; qtot -0.287467
11631         hc    242    ccc    H16  11631 0.16730000   1.008000   ; qtot -0.120167
11632          c    242    ccc    C10  11632 0.72110000  12.010000   ; qtot 0.600933
11633          o    242    ccc     O4  11633 -0.61950000  16.000000   ; qtot -0.018567
11634         c3    242    ccc    C11  11634 0.08518000  12.010000   ; qtot 0.066613
11635         c3    242    ccc    C12  11635 0.07918000  12.010000   ; qtot 0.145793
11636         h1    242    ccc    H17  11636 0.06978000   1.008000   ; qtot 0.215573
11637         c3    242    ccc    C13  11637 0.07918000  12.010000   ; qtot 0.294753
11638         c3    242    ccc    C14  11638 0.03578000  12.010000   ; qtot 0.330533
11639         c3    242    ccc    C15  11639 0.33498000  12.010000   ; qtot 0.665513
11640         h1    242    ccc    H18  11640 0.06178000   1.008000   ; qtot 0.727293
11641         h1    242    ccc    H19  11641 0.11278000   1.008000   ; qtot 0.840073
11642         h2    242    ccc    H20  11642 0.12178000   1.008000   ; qtot 0.961853
11643         oh    242    ccc     O1  11643 -0.56972000  16.000000   ; qtot 0.392133
11644         oh    242    ccc     O6  11644 -0.57772000  16.000000   ; qtot -0.185587
11645         c3    242    ccc    C16  11645 0.14548000  12.010000   ; qtot -0.040107
11646         ho    242    ccc    H21  11646 0.40508000   1.008000   ; qtot 0.364973
11647         hn    242    ccc    H22  11647 0.31758000   1.008000   ; qtot 0.682553
11648         h1    242    ccc    H23  11648 0.06278000   1.008000   ; qtot 0.745333
11649         h1    242    ccc    H24  11649 0.06278000   1.008000   ; qtot 0.808113
11650         oh    242    ccc     O7  11650 -0.59472000  16.000000   ; qtot 0.213393
11651         ho    242    ccc    H25  11651 0.41908000   1.008000   ; qtot 0.632473
11652         os    242    ccc     O8  11652 -0.44552000  16.000000   ; qtot 0.186953
11653         ho    242    ccc    H26  11653 0.41908000   1.008000   ; qtot 0.606033
11654         h1    242    ccc    H27  11654 0.08578000   1.008000   ; qtot 0.691813
11655         oh    242    ccc     O9  11655 -0.58672000  16.000000   ; qtot 0.105093
11656         ho    242    ccc    H28  11656 0.41908000   1.008000   ; qtot 0.524173
11657         n3    242    ccc     N3  11657 -0.54282000  14.010000   ; qtot -0.018647
11658         c3    242    ccc    C17  11658 0.08518000  12.010000   ; qtot 0.066533
11659         c3    242    ccc    C18  11659 0.07918000  12.010000   ; qtot 0.145713
11660         h1    242    ccc    H29  11660 0.06978000   1.008000   ; qtot 0.215493
11661         c3    242    ccc    C19  11661 0.07918000  12.010000   ; qtot 0.294673
11662         c3    242    ccc    C20  11662 0.03578000  12.010000   ; qtot 0.330453
11663         c3    242    ccc    C21  11663 0.33498000  12.010000   ; qtot 0.665433
11664         h1    242    ccc    H30  11664 0.06178000   1.008000   ; qtot 0.727213
11665         h1    242    ccc    H31  11665 0.11278000   1.008000   ; qtot 0.839993
11666         h2    242    ccc    H32  11666 0.12178000   1.008000   ; qtot 0.961773
11667         oh    242    ccc    O10  11667 -0.56972000  16.000000   ; qtot 0.392053
11668         oh    242    ccc    O11  11668 -0.57772000  16.000000   ; qtot -0.185667
11669         c3    242    ccc    C22  11669 0.14548000  12.010000   ; qtot -0.040187
11670         ho    242    ccc    H33  11670 0.40508000   1.008000   ; qtot 0.364893
11671         hn    242    ccc    H34  11671 0.31758000   1.008000   ; qtot 0.682473
11672         h1    242    ccc    H35  11672 0.06278000   1.008000   ; qtot 0.745253
11673         h1    242    ccc    H36  11673 0.06278000   1.008000   ; qtot 0.808033
11674         oh    242    ccc    O12  11674 -0.59472000  16.000000   ; qtot 0.213313
11675         ho    242    ccc    H37  11675 0.41908000   1.008000   ; qtot 0.632393
11676         os    242    ccc    O13  11676 -0.44552000  16.000000   ; qtot 0.186873
11677         ho    242    ccc    H38  11677 0.41908000   1.008000   ; qtot 0.605953
11678         h1    242    ccc    H39  11678 0.08578000   1.008000   ; qtot 0.691733
11679         oh    242    ccc     O5  11679 -0.58672000  16.000000   ; qtot 0.105013
11680         ho    242    ccc    H40  11680 0.41908000   1.008000   ; qtot 0.524093
11681         n3    242    ccc     N4  11681 -0.54282000  14.010000   ; qtot -0.018727
; residue  243 ccc rtp ccc q -0.0
11682          n    243    ccc     N1  11682 -0.46580000  14.010000   ; qtot -0.484527
11683         hn    243    ccc     H4  11683 0.31480000   1.008000   ; qtot -0.169727
11684         c3    243    ccc     C3  11684 -0.28250000  12.010000   ; qtot -0.452227
11685         h1    243    ccc     H5  11685 0.15710000   1.008000   ; qtot -0.295127
11686         c3    243    ccc     C4  11686 0.44180000  12.010000   ; qtot 0.146673
11687         h1    243    ccc     H6  11687 0.15710000   1.008000   ; qtot 0.303773
11688         h1    243    ccc     H7  11688 -0.03530000   1.008000   ; qtot 0.268473
11689         h1    243    ccc     H8  11689 -0.03530000   1.008000   ; qtot 0.233173
11690         n3    243    ccc     N2  11690 -0.74090000  14.010000   ; qtot -0.507727
11691         c3    243    ccc     C5  11691 0.51680000  12.010000   ; qtot 0.009073
11692         c3    243    ccc     C6  11692 0.51680000  12.010000   ; qtot 0.525873
11693         h1    243    ccc     H9  11693 -0.05230000   1.008000   ; qtot 0.473573
11694         c3    243    ccc     C7  11694 -0.60390000  12.010000   ; qtot -0.130327
11695         h1    243    ccc    H10  11695 -0.05230000   1.008000   ; qtot -0.182627
11696         hc    243    ccc    H11  11696 0.16730000   1.008000   ; qtot -0.015327
11697         hc    243    ccc    H12  11697 0.16730000   1.008000   ; qtot 0.151973
11698          c    243    ccc     C8  11698 0.72110000  12.010000   ; qtot 0.873073
11699          o    243    ccc     O2  11699 -0.61950000  16.000000   ; qtot 0.253573
11700         h1    243    ccc    H13  11700 -0.05230000   1.008000   ; qtot 0.201273
11701         h1    243    ccc    H14  11701 -0.05230000   1.008000   ; qtot 0.148973
11702         c3    243    ccc     C9  11702 -0.60390000  12.010000   ; qtot -0.454927
11703         hc    243    ccc    H15  11703 0.16730000   1.008000   ; qtot -0.287627
11704         hc    243    ccc    H16  11704 0.16730000   1.008000   ; qtot -0.120327
11705          c    243    ccc    C10  11705 0.72110000  12.010000   ; qtot 0.600773
11706          o    243    ccc     O4  11706 -0.61950000  16.000000   ; qtot -0.018727
11707         c3    243    ccc    C11  11707 0.08518000  12.010000   ; qtot 0.066453
11708         c3    243    ccc    C12  11708 0.07918000  12.010000   ; qtot 0.145633
11709         h1    243    ccc    H17  11709 0.06978000   1.008000   ; qtot 0.215413
11710         c3    243    ccc    C13  11710 0.07918000  12.010000   ; qtot 0.294593
11711         c3    243    ccc    C14  11711 0.03578000  12.010000   ; qtot 0.330373
11712         c3    243    ccc    C15  11712 0.33498000  12.010000   ; qtot 0.665353
11713         h1    243    ccc    H18  11713 0.06178000   1.008000   ; qtot 0.727133
11714         h1    243    ccc    H19  11714 0.11278000   1.008000   ; qtot 0.839913
11715         h2    243    ccc    H20  11715 0.12178000   1.008000   ; qtot 0.961693
11716         oh    243    ccc     O1  11716 -0.56972000  16.000000   ; qtot 0.391973
11717         oh    243    ccc     O6  11717 -0.57772000  16.000000   ; qtot -0.185747
11718         c3    243    ccc    C16  11718 0.14548000  12.010000   ; qtot -0.040267
11719         ho    243    ccc    H21  11719 0.40508000   1.008000   ; qtot 0.364813
11720         hn    243    ccc    H22  11720 0.31758000   1.008000   ; qtot 0.682393
11721         h1    243    ccc    H23  11721 0.06278000   1.008000   ; qtot 0.745173
11722         h1    243    ccc    H24  11722 0.06278000   1.008000   ; qtot 0.807953
11723         oh    243    ccc     O7  11723 -0.59472000  16.000000   ; qtot 0.213233
11724         ho    243    ccc    H25  11724 0.41908000   1.008000   ; qtot 0.632313
11725         os    243    ccc     O8  11725 -0.44552000  16.000000   ; qtot 0.186793
11726         ho    243    ccc    H26  11726 0.41908000   1.008000   ; qtot 0.605873
11727         h1    243    ccc    H27  11727 0.08578000   1.008000   ; qtot 0.691653
11728         oh    243    ccc     O9  11728 -0.58672000  16.000000   ; qtot 0.104933
11729         ho    243    ccc    H28  11729 0.41908000   1.008000   ; qtot 0.524013
11730         n3    243    ccc     N3  11730 -0.54282000  14.010000   ; qtot -0.018807
11731         c3    243    ccc    C17  11731 0.08518000  12.010000   ; qtot 0.066373
11732         c3    243    ccc    C18  11732 0.07918000  12.010000   ; qtot 0.145553
11733         h1    243    ccc    H29  11733 0.06978000   1.008000   ; qtot 0.215333
11734         c3    243    ccc    C19  11734 0.07918000  12.010000   ; qtot 0.294513
11735         c3    243    ccc    C20  11735 0.03578000  12.010000   ; qtot 0.330293
11736         c3    243    ccc    C21  11736 0.33498000  12.010000   ; qtot 0.665273
11737         h1    243    ccc    H30  11737 0.06178000   1.008000   ; qtot 0.727053
11738         h1    243    ccc    H31  11738 0.11278000   1.008000   ; qtot 0.839833
11739         h2    243    ccc    H32  11739 0.12178000   1.008000   ; qtot 0.961613
11740         oh    243    ccc    O10  11740 -0.56972000  16.000000   ; qtot 0.391893
11741         oh    243    ccc    O11  11741 -0.57772000  16.000000   ; qtot -0.185827
11742         c3    243    ccc    C22  11742 0.14548000  12.010000   ; qtot -0.040347
11743         ho    243    ccc    H33  11743 0.40508000   1.008000   ; qtot 0.364733
11744         hn    243    ccc    H34  11744 0.31758000   1.008000   ; qtot 0.682313
11745         h1    243    ccc    H35  11745 0.06278000   1.008000   ; qtot 0.745093
11746         h1    243    ccc    H36  11746 0.06278000   1.008000   ; qtot 0.807873
11747         oh    243    ccc    O12  11747 -0.59472000  16.000000   ; qtot 0.213153
11748         ho    243    ccc    H37  11748 0.41908000   1.008000   ; qtot 0.632233
11749         os    243    ccc    O13  11749 -0.44552000  16.000000   ; qtot 0.186713
11750         ho    243    ccc    H38  11750 0.41908000   1.008000   ; qtot 0.605793
11751         h1    243    ccc    H39  11751 0.08578000   1.008000   ; qtot 0.691573
11752         oh    243    ccc     O5  11752 -0.58672000  16.000000   ; qtot 0.104853
11753         ho    243    ccc    H40  11753 0.41908000   1.008000   ; qtot 0.523933
11754         n3    243    ccc     N4  11754 -0.54282000  14.010000   ; qtot -0.018887
; residue  244 ccc rtp ccc q -0.0
11755          n    244    ccc     N1  11755 -0.46580000  14.010000   ; qtot -0.484687
11756         hn    244    ccc     H4  11756 0.31480000   1.008000   ; qtot -0.169887
11757         c3    244    ccc     C3  11757 -0.28250000  12.010000   ; qtot -0.452387
11758         h1    244    ccc     H5  11758 0.15710000   1.008000   ; qtot -0.295287
11759         c3    244    ccc     C4  11759 0.44180000  12.010000   ; qtot 0.146513
11760         h1    244    ccc     H6  11760 0.15710000   1.008000   ; qtot 0.303613
11761         h1    244    ccc     H7  11761 -0.03530000   1.008000   ; qtot 0.268313
11762         h1    244    ccc     H8  11762 -0.03530000   1.008000   ; qtot 0.233013
11763         n3    244    ccc     N2  11763 -0.74090000  14.010000   ; qtot -0.507887
11764         c3    244    ccc     C5  11764 0.51680000  12.010000   ; qtot 0.008913
11765         c3    244    ccc     C6  11765 0.51680000  12.010000   ; qtot 0.525713
11766         h1    244    ccc     H9  11766 -0.05230000   1.008000   ; qtot 0.473413
11767         c3    244    ccc     C7  11767 -0.60390000  12.010000   ; qtot -0.130487
11768         h1    244    ccc    H10  11768 -0.05230000   1.008000   ; qtot -0.182787
11769         hc    244    ccc    H11  11769 0.16730000   1.008000   ; qtot -0.015487
11770         hc    244    ccc    H12  11770 0.16730000   1.008000   ; qtot 0.151813
11771          c    244    ccc     C8  11771 0.72110000  12.010000   ; qtot 0.872913
11772          o    244    ccc     O2  11772 -0.61950000  16.000000   ; qtot 0.253413
11773         h1    244    ccc    H13  11773 -0.05230000   1.008000   ; qtot 0.201113
11774         h1    244    ccc    H14  11774 -0.05230000   1.008000   ; qtot 0.148813
11775         c3    244    ccc     C9  11775 -0.60390000  12.010000   ; qtot -0.455087
11776         hc    244    ccc    H15  11776 0.16730000   1.008000   ; qtot -0.287787
11777         hc    244    ccc    H16  11777 0.16730000   1.008000   ; qtot -0.120487
11778          c    244    ccc    C10  11778 0.72110000  12.010000   ; qtot 0.600613
11779          o    244    ccc     O4  11779 -0.61950000  16.000000   ; qtot -0.018887
11780         c3    244    ccc    C11  11780 0.08518000  12.010000   ; qtot 0.066293
11781         c3    244    ccc    C12  11781 0.07918000  12.010000   ; qtot 0.145473
11782         h1    244    ccc    H17  11782 0.06978000   1.008000   ; qtot 0.215253
11783         c3    244    ccc    C13  11783 0.07918000  12.010000   ; qtot 0.294433
11784         c3    244    ccc    C14  11784 0.03578000  12.010000   ; qtot 0.330213
11785         c3    244    ccc    C15  11785 0.33498000  12.010000   ; qtot 0.665193
11786         h1    244    ccc    H18  11786 0.06178000   1.008000   ; qtot 0.726973
11787         h1    244    ccc    H19  11787 0.11278000   1.008000   ; qtot 0.839753
11788         h2    244    ccc    H20  11788 0.12178000   1.008000   ; qtot 0.961533
11789         oh    244    ccc     O1  11789 -0.56972000  16.000000   ; qtot 0.391813
11790         oh    244    ccc     O6  11790 -0.57772000  16.000000   ; qtot -0.185907
11791         c3    244    ccc    C16  11791 0.14548000  12.010000   ; qtot -0.040427
11792         ho    244    ccc    H21  11792 0.40508000   1.008000   ; qtot 0.364653
11793         hn    244    ccc    H22  11793 0.31758000   1.008000   ; qtot 0.682233
11794         h1    244    ccc    H23  11794 0.06278000   1.008000   ; qtot 0.745013
11795         h1    244    ccc    H24  11795 0.06278000   1.008000   ; qtot 0.807793
11796         oh    244    ccc     O7  11796 -0.59472000  16.000000   ; qtot 0.213073
11797         ho    244    ccc    H25  11797 0.41908000   1.008000   ; qtot 0.632153
11798         os    244    ccc     O8  11798 -0.44552000  16.000000   ; qtot 0.186633
11799         ho    244    ccc    H26  11799 0.41908000   1.008000   ; qtot 0.605713
11800         h1    244    ccc    H27  11800 0.08578000   1.008000   ; qtot 0.691493
11801         oh    244    ccc     O9  11801 -0.58672000  16.000000   ; qtot 0.104773
11802         ho    244    ccc    H28  11802 0.41908000   1.008000   ; qtot 0.523853
11803         n3    244    ccc     N3  11803 -0.54282000  14.010000   ; qtot -0.018967
11804         c3    244    ccc    C17  11804 0.08518000  12.010000   ; qtot 0.066213
11805         c3    244    ccc    C18  11805 0.07918000  12.010000   ; qtot 0.145393
11806         h1    244    ccc    H29  11806 0.06978000   1.008000   ; qtot 0.215173
11807         c3    244    ccc    C19  11807 0.07918000  12.010000   ; qtot 0.294353
11808         c3    244    ccc    C20  11808 0.03578000  12.010000   ; qtot 0.330133
11809         c3    244    ccc    C21  11809 0.33498000  12.010000   ; qtot 0.665113
11810         h1    244    ccc    H30  11810 0.06178000   1.008000   ; qtot 0.726893
11811         h1    244    ccc    H31  11811 0.11278000   1.008000   ; qtot 0.839673
11812         h2    244    ccc    H32  11812 0.12178000   1.008000   ; qtot 0.961453
11813         oh    244    ccc    O10  11813 -0.56972000  16.000000   ; qtot 0.391733
11814         oh    244    ccc    O11  11814 -0.57772000  16.000000   ; qtot -0.185987
11815         c3    244    ccc    C22  11815 0.14548000  12.010000   ; qtot -0.040507
11816         ho    244    ccc    H33  11816 0.40508000   1.008000   ; qtot 0.364573
11817         hn    244    ccc    H34  11817 0.31758000   1.008000   ; qtot 0.682153
11818         h1    244    ccc    H35  11818 0.06278000   1.008000   ; qtot 0.744933
11819         h1    244    ccc    H36  11819 0.06278000   1.008000   ; qtot 0.807713
11820         oh    244    ccc    O12  11820 -0.59472000  16.000000   ; qtot 0.212993
11821         ho    244    ccc    H37  11821 0.41908000   1.008000   ; qtot 0.632073
11822         os    244    ccc    O13  11822 -0.44552000  16.000000   ; qtot 0.186553
11823         ho    244    ccc    H38  11823 0.41908000   1.008000   ; qtot 0.605633
11824         h1    244    ccc    H39  11824 0.08578000   1.008000   ; qtot 0.691413
11825         oh    244    ccc     O5  11825 -0.58672000  16.000000   ; qtot 0.104693
11826         ho    244    ccc    H40  11826 0.41908000   1.008000   ; qtot 0.523773
11827         n3    244    ccc     N4  11827 -0.54282000  14.010000   ; qtot -0.019047
; residue  245 ccc rtp ccc q -0.0
11828          n    245    ccc     N1  11828 -0.46580000  14.010000   ; qtot -0.484847
11829         hn    245    ccc     H4  11829 0.31480000   1.008000   ; qtot -0.170047
11830         c3    245    ccc     C3  11830 -0.28250000  12.010000   ; qtot -0.452547
11831         h1    245    ccc     H5  11831 0.15710000   1.008000   ; qtot -0.295447
11832         c3    245    ccc     C4  11832 0.44180000  12.010000   ; qtot 0.146353
11833         h1    245    ccc     H6  11833 0.15710000   1.008000   ; qtot 0.303453
11834         h1    245    ccc     H7  11834 -0.03530000   1.008000   ; qtot 0.268153
11835         h1    245    ccc     H8  11835 -0.03530000   1.008000   ; qtot 0.232853
11836         n3    245    ccc     N2  11836 -0.74090000  14.010000   ; qtot -0.508047
11837         c3    245    ccc     C5  11837 0.51680000  12.010000   ; qtot 0.008753
11838         c3    245    ccc     C6  11838 0.51680000  12.010000   ; qtot 0.525553
11839         h1    245    ccc     H9  11839 -0.05230000   1.008000   ; qtot 0.473253
11840         c3    245    ccc     C7  11840 -0.60390000  12.010000   ; qtot -0.130647
11841         h1    245    ccc    H10  11841 -0.05230000   1.008000   ; qtot -0.182947
11842         hc    245    ccc    H11  11842 0.16730000   1.008000   ; qtot -0.015647
11843         hc    245    ccc    H12  11843 0.16730000   1.008000   ; qtot 0.151653
11844          c    245    ccc     C8  11844 0.72110000  12.010000   ; qtot 0.872753
11845          o    245    ccc     O2  11845 -0.61950000  16.000000   ; qtot 0.253253
11846         h1    245    ccc    H13  11846 -0.05230000   1.008000   ; qtot 0.200953
11847         h1    245    ccc    H14  11847 -0.05230000   1.008000   ; qtot 0.148653
11848         c3    245    ccc     C9  11848 -0.60390000  12.010000   ; qtot -0.455247
11849         hc    245    ccc    H15  11849 0.16730000   1.008000   ; qtot -0.287947
11850         hc    245    ccc    H16  11850 0.16730000   1.008000   ; qtot -0.120647
11851          c    245    ccc    C10  11851 0.72110000  12.010000   ; qtot 0.600453
11852          o    245    ccc     O4  11852 -0.61950000  16.000000   ; qtot -0.019047
11853         c3    245    ccc    C11  11853 0.08518000  12.010000   ; qtot 0.066133
11854         c3    245    ccc    C12  11854 0.07918000  12.010000   ; qtot 0.145313
11855         h1    245    ccc    H17  11855 0.06978000   1.008000   ; qtot 0.215093
11856         c3    245    ccc    C13  11856 0.07918000  12.010000   ; qtot 0.294273
11857         c3    245    ccc    C14  11857 0.03578000  12.010000   ; qtot 0.330053
11858         c3    245    ccc    C15  11858 0.33498000  12.010000   ; qtot 0.665033
11859         h1    245    ccc    H18  11859 0.06178000   1.008000   ; qtot 0.726813
11860         h1    245    ccc    H19  11860 0.11278000   1.008000   ; qtot 0.839593
11861         h2    245    ccc    H20  11861 0.12178000   1.008000   ; qtot 0.961373
11862         oh    245    ccc     O1  11862 -0.56972000  16.000000   ; qtot 0.391653
11863         oh    245    ccc     O6  11863 -0.57772000  16.000000   ; qtot -0.186067
11864         c3    245    ccc    C16  11864 0.14548000  12.010000   ; qtot -0.040587
11865         ho    245    ccc    H21  11865 0.40508000   1.008000   ; qtot 0.364493
11866         hn    245    ccc    H22  11866 0.31758000   1.008000   ; qtot 0.682073
11867         h1    245    ccc    H23  11867 0.06278000   1.008000   ; qtot 0.744853
11868         h1    245    ccc    H24  11868 0.06278000   1.008000   ; qtot 0.807633
11869         oh    245    ccc     O7  11869 -0.59472000  16.000000   ; qtot 0.212913
11870         ho    245    ccc    H25  11870 0.41908000   1.008000   ; qtot 0.631993
11871         os    245    ccc     O8  11871 -0.44552000  16.000000   ; qtot 0.186473
11872         ho    245    ccc    H26  11872 0.41908000   1.008000   ; qtot 0.605553
11873         h1    245    ccc    H27  11873 0.08578000   1.008000   ; qtot 0.691333
11874         oh    245    ccc     O9  11874 -0.58672000  16.000000   ; qtot 0.104613
11875         ho    245    ccc    H28  11875 0.41908000   1.008000   ; qtot 0.523693
11876         n3    245    ccc     N3  11876 -0.54282000  14.010000   ; qtot -0.019127
11877         c3    245    ccc    C17  11877 0.08518000  12.010000   ; qtot 0.066053
11878         c3    245    ccc    C18  11878 0.07918000  12.010000   ; qtot 0.145233
11879         h1    245    ccc    H29  11879 0.06978000   1.008000   ; qtot 0.215013
11880         c3    245    ccc    C19  11880 0.07918000  12.010000   ; qtot 0.294193
11881         c3    245    ccc    C20  11881 0.03578000  12.010000   ; qtot 0.329973
11882         c3    245    ccc    C21  11882 0.33498000  12.010000   ; qtot 0.664953
11883         h1    245    ccc    H30  11883 0.06178000   1.008000   ; qtot 0.726733
11884         h1    245    ccc    H31  11884 0.11278000   1.008000   ; qtot 0.839513
11885         h2    245    ccc    H32  11885 0.12178000   1.008000   ; qtot 0.961293
11886         oh    245    ccc    O10  11886 -0.56972000  16.000000   ; qtot 0.391573
11887         oh    245    ccc    O11  11887 -0.57772000  16.000000   ; qtot -0.186147
11888         c3    245    ccc    C22  11888 0.14548000  12.010000   ; qtot -0.040667
11889         ho    245    ccc    H33  11889 0.40508000   1.008000   ; qtot 0.364413
11890         hn    245    ccc    H34  11890 0.31758000   1.008000   ; qtot 0.681993
11891         h1    245    ccc    H35  11891 0.06278000   1.008000   ; qtot 0.744773
11892         h1    245    ccc    H36  11892 0.06278000   1.008000   ; qtot 0.807553
11893         oh    245    ccc    O12  11893 -0.59472000  16.000000   ; qtot 0.212833
11894         ho    245    ccc    H37  11894 0.41908000   1.008000   ; qtot 0.631913
11895         os    245    ccc    O13  11895 -0.44552000  16.000000   ; qtot 0.186393
11896         ho    245    ccc    H38  11896 0.41908000   1.008000   ; qtot 0.605473
11897         h1    245    ccc    H39  11897 0.08578000   1.008000   ; qtot 0.691253
11898         oh    245    ccc     O5  11898 -0.58672000  16.000000   ; qtot 0.104533
11899         ho    245    ccc    H40  11899 0.41908000   1.008000   ; qtot 0.523613
11900         n3    245    ccc     N4  11900 -0.54282000  14.010000   ; qtot -0.019207
; residue  246 ccc rtp ccc q -0.0
11901          n    246    ccc     N1  11901 -0.46580000  14.010000   ; qtot -0.485007
11902         hn    246    ccc     H4  11902 0.31480000   1.008000   ; qtot -0.170207
11903         c3    246    ccc     C3  11903 -0.28250000  12.010000   ; qtot -0.452707
11904         h1    246    ccc     H5  11904 0.15710000   1.008000   ; qtot -0.295607
11905         c3    246    ccc     C4  11905 0.44180000  12.010000   ; qtot 0.146193
11906         h1    246    ccc     H6  11906 0.15710000   1.008000   ; qtot 0.303293
11907         h1    246    ccc     H7  11907 -0.03530000   1.008000   ; qtot 0.267993
11908         h1    246    ccc     H8  11908 -0.03530000   1.008000   ; qtot 0.232693
11909         n3    246    ccc     N2  11909 -0.74090000  14.010000   ; qtot -0.508207
11910         c3    246    ccc     C5  11910 0.51680000  12.010000   ; qtot 0.008593
11911         c3    246    ccc     C6  11911 0.51680000  12.010000   ; qtot 0.525393
11912         h1    246    ccc     H9  11912 -0.05230000   1.008000   ; qtot 0.473093
11913         c3    246    ccc     C7  11913 -0.60390000  12.010000   ; qtot -0.130807
11914         h1    246    ccc    H10  11914 -0.05230000   1.008000   ; qtot -0.183107
11915         hc    246    ccc    H11  11915 0.16730000   1.008000   ; qtot -0.015807
11916         hc    246    ccc    H12  11916 0.16730000   1.008000   ; qtot 0.151493
11917          c    246    ccc     C8  11917 0.72110000  12.010000   ; qtot 0.872593
11918          o    246    ccc     O2  11918 -0.61950000  16.000000   ; qtot 0.253093
11919         h1    246    ccc    H13  11919 -0.05230000   1.008000   ; qtot 0.200793
11920         h1    246    ccc    H14  11920 -0.05230000   1.008000   ; qtot 0.148493
11921         c3    246    ccc     C9  11921 -0.60390000  12.010000   ; qtot -0.455407
11922         hc    246    ccc    H15  11922 0.16730000   1.008000   ; qtot -0.288107
11923         hc    246    ccc    H16  11923 0.16730000   1.008000   ; qtot -0.120807
11924          c    246    ccc    C10  11924 0.72110000  12.010000   ; qtot 0.600293
11925          o    246    ccc     O4  11925 -0.61950000  16.000000   ; qtot -0.019207
11926         c3    246    ccc    C11  11926 0.08518000  12.010000   ; qtot 0.065973
11927         c3    246    ccc    C12  11927 0.07918000  12.010000   ; qtot 0.145153
11928         h1    246    ccc    H17  11928 0.06978000   1.008000   ; qtot 0.214933
11929         c3    246    ccc    C13  11929 0.07918000  12.010000   ; qtot 0.294113
11930         c3    246    ccc    C14  11930 0.03578000  12.010000   ; qtot 0.329893
11931         c3    246    ccc    C15  11931 0.33498000  12.010000   ; qtot 0.664873
11932         h1    246    ccc    H18  11932 0.06178000   1.008000   ; qtot 0.726653
11933         h1    246    ccc    H19  11933 0.11278000   1.008000   ; qtot 0.839433
11934         h2    246    ccc    H20  11934 0.12178000   1.008000   ; qtot 0.961213
11935         oh    246    ccc     O1  11935 -0.56972000  16.000000   ; qtot 0.391493
11936         oh    246    ccc     O6  11936 -0.57772000  16.000000   ; qtot -0.186227
11937         c3    246    ccc    C16  11937 0.14548000  12.010000   ; qtot -0.040747
11938         ho    246    ccc    H21  11938 0.40508000   1.008000   ; qtot 0.364333
11939         hn    246    ccc    H22  11939 0.31758000   1.008000   ; qtot 0.681913
11940         h1    246    ccc    H23  11940 0.06278000   1.008000   ; qtot 0.744693
11941         h1    246    ccc    H24  11941 0.06278000   1.008000   ; qtot 0.807473
11942         oh    246    ccc     O7  11942 -0.59472000  16.000000   ; qtot 0.212753
11943         ho    246    ccc    H25  11943 0.41908000   1.008000   ; qtot 0.631833
11944         os    246    ccc     O8  11944 -0.44552000  16.000000   ; qtot 0.186313
11945         ho    246    ccc    H26  11945 0.41908000   1.008000   ; qtot 0.605393
11946         h1    246    ccc    H27  11946 0.08578000   1.008000   ; qtot 0.691173
11947         oh    246    ccc     O9  11947 -0.58672000  16.000000   ; qtot 0.104453
11948         ho    246    ccc    H28  11948 0.41908000   1.008000   ; qtot 0.523533
11949         n3    246    ccc     N3  11949 -0.54282000  14.010000   ; qtot -0.019287
11950         c3    246    ccc    C17  11950 0.08518000  12.010000   ; qtot 0.065893
11951         c3    246    ccc    C18  11951 0.07918000  12.010000   ; qtot 0.145073
11952         h1    246    ccc    H29  11952 0.06978000   1.008000   ; qtot 0.214853
11953         c3    246    ccc    C19  11953 0.07918000  12.010000   ; qtot 0.294033
11954         c3    246    ccc    C20  11954 0.03578000  12.010000   ; qtot 0.329813
11955         c3    246    ccc    C21  11955 0.33498000  12.010000   ; qtot 0.664793
11956         h1    246    ccc    H30  11956 0.06178000   1.008000   ; qtot 0.726573
11957         h1    246    ccc    H31  11957 0.11278000   1.008000   ; qtot 0.839353
11958         h2    246    ccc    H32  11958 0.12178000   1.008000   ; qtot 0.961133
11959         oh    246    ccc    O10  11959 -0.56972000  16.000000   ; qtot 0.391413
11960         oh    246    ccc    O11  11960 -0.57772000  16.000000   ; qtot -0.186307
11961         c3    246    ccc    C22  11961 0.14548000  12.010000   ; qtot -0.040827
11962         ho    246    ccc    H33  11962 0.40508000   1.008000   ; qtot 0.364253
11963         hn    246    ccc    H34  11963 0.31758000   1.008000   ; qtot 0.681833
11964         h1    246    ccc    H35  11964 0.06278000   1.008000   ; qtot 0.744613
11965         h1    246    ccc    H36  11965 0.06278000   1.008000   ; qtot 0.807393
11966         oh    246    ccc    O12  11966 -0.59472000  16.000000   ; qtot 0.212673
11967         ho    246    ccc    H37  11967 0.41908000   1.008000   ; qtot 0.631753
11968         os    246    ccc    O13  11968 -0.44552000  16.000000   ; qtot 0.186233
11969         ho    246    ccc    H38  11969 0.41908000   1.008000   ; qtot 0.605313
11970         h1    246    ccc    H39  11970 0.08578000   1.008000   ; qtot 0.691093
11971         oh    246    ccc     O5  11971 -0.58672000  16.000000   ; qtot 0.104373
11972         ho    246    ccc    H40  11972 0.41908000   1.008000   ; qtot 0.523453
11973         n3    246    ccc     N4  11973 -0.54282000  14.010000   ; qtot -0.019367
; residue  247 ccc rtp ccc q -0.0
11974          n    247    ccc     N1  11974 -0.46580000  14.010000   ; qtot -0.485167
11975         hn    247    ccc     H4  11975 0.31480000   1.008000   ; qtot -0.170367
11976         c3    247    ccc     C3  11976 -0.28250000  12.010000   ; qtot -0.452867
11977         h1    247    ccc     H5  11977 0.15710000   1.008000   ; qtot -0.295767
11978         c3    247    ccc     C4  11978 0.44180000  12.010000   ; qtot 0.146033
11979         h1    247    ccc     H6  11979 0.15710000   1.008000   ; qtot 0.303133
11980         h1    247    ccc     H7  11980 -0.03530000   1.008000   ; qtot 0.267833
11981         h1    247    ccc     H8  11981 -0.03530000   1.008000   ; qtot 0.232533
11982         n3    247    ccc     N2  11982 -0.74090000  14.010000   ; qtot -0.508367
11983         c3    247    ccc     C5  11983 0.51680000  12.010000   ; qtot 0.008433
11984         c3    247    ccc     C6  11984 0.51680000  12.010000   ; qtot 0.525233
11985         h1    247    ccc     H9  11985 -0.05230000   1.008000   ; qtot 0.472933
11986         c3    247    ccc     C7  11986 -0.60390000  12.010000   ; qtot -0.130967
11987         h1    247    ccc    H10  11987 -0.05230000   1.008000   ; qtot -0.183267
11988         hc    247    ccc    H11  11988 0.16730000   1.008000   ; qtot -0.015967
11989         hc    247    ccc    H12  11989 0.16730000   1.008000   ; qtot 0.151333
11990          c    247    ccc     C8  11990 0.72110000  12.010000   ; qtot 0.872433
11991          o    247    ccc     O2  11991 -0.61950000  16.000000   ; qtot 0.252933
11992         h1    247    ccc    H13  11992 -0.05230000   1.008000   ; qtot 0.200633
11993         h1    247    ccc    H14  11993 -0.05230000   1.008000   ; qtot 0.148333
11994         c3    247    ccc     C9  11994 -0.60390000  12.010000   ; qtot -0.455567
11995         hc    247    ccc    H15  11995 0.16730000   1.008000   ; qtot -0.288267
11996         hc    247    ccc    H16  11996 0.16730000   1.008000   ; qtot -0.120967
11997          c    247    ccc    C10  11997 0.72110000  12.010000   ; qtot 0.600133
11998          o    247    ccc     O4  11998 -0.61950000  16.000000   ; qtot -0.019367
11999         c3    247    ccc    C11  11999 0.08518000  12.010000   ; qtot 0.065813
12000         c3    247    ccc    C12  12000 0.07918000  12.010000   ; qtot 0.144993
12001         h1    247    ccc    H17  12001 0.06978000   1.008000   ; qtot 0.214773
12002         c3    247    ccc    C13  12002 0.07918000  12.010000   ; qtot 0.293953
12003         c3    247    ccc    C14  12003 0.03578000  12.010000   ; qtot 0.329733
12004         c3    247    ccc    C15  12004 0.33498000  12.010000   ; qtot 0.664713
12005         h1    247    ccc    H18  12005 0.06178000   1.008000   ; qtot 0.726493
12006         h1    247    ccc    H19  12006 0.11278000   1.008000   ; qtot 0.839273
12007         h2    247    ccc    H20  12007 0.12178000   1.008000   ; qtot 0.961053
12008         oh    247    ccc     O1  12008 -0.56972000  16.000000   ; qtot 0.391333
12009         oh    247    ccc     O6  12009 -0.57772000  16.000000   ; qtot -0.186387
12010         c3    247    ccc    C16  12010 0.14548000  12.010000   ; qtot -0.040907
12011         ho    247    ccc    H21  12011 0.40508000   1.008000   ; qtot 0.364173
12012         hn    247    ccc    H22  12012 0.31758000   1.008000   ; qtot 0.681753
12013         h1    247    ccc    H23  12013 0.06278000   1.008000   ; qtot 0.744533
12014         h1    247    ccc    H24  12014 0.06278000   1.008000   ; qtot 0.807313
12015         oh    247    ccc     O7  12015 -0.59472000  16.000000   ; qtot 0.212593
12016         ho    247    ccc    H25  12016 0.41908000   1.008000   ; qtot 0.631673
12017         os    247    ccc     O8  12017 -0.44552000  16.000000   ; qtot 0.186153
12018         ho    247    ccc    H26  12018 0.41908000   1.008000   ; qtot 0.605233
12019         h1    247    ccc    H27  12019 0.08578000   1.008000   ; qtot 0.691013
12020         oh    247    ccc     O9  12020 -0.58672000  16.000000   ; qtot 0.104293
12021         ho    247    ccc    H28  12021 0.41908000   1.008000   ; qtot 0.523373
12022         n3    247    ccc     N3  12022 -0.54282000  14.010000   ; qtot -0.019447
12023         c3    247    ccc    C17  12023 0.08518000  12.010000   ; qtot 0.065733
12024         c3    247    ccc    C18  12024 0.07918000  12.010000   ; qtot 0.144913
12025         h1    247    ccc    H29  12025 0.06978000   1.008000   ; qtot 0.214693
12026         c3    247    ccc    C19  12026 0.07918000  12.010000   ; qtot 0.293873
12027         c3    247    ccc    C20  12027 0.03578000  12.010000   ; qtot 0.329653
12028         c3    247    ccc    C21  12028 0.33498000  12.010000   ; qtot 0.664633
12029         h1    247    ccc    H30  12029 0.06178000   1.008000   ; qtot 0.726413
12030         h1    247    ccc    H31  12030 0.11278000   1.008000   ; qtot 0.839193
12031         h2    247    ccc    H32  12031 0.12178000   1.008000   ; qtot 0.960973
12032         oh    247    ccc    O10  12032 -0.56972000  16.000000   ; qtot 0.391253
12033         oh    247    ccc    O11  12033 -0.57772000  16.000000   ; qtot -0.186467
12034         c3    247    ccc    C22  12034 0.14548000  12.010000   ; qtot -0.040987
12035         ho    247    ccc    H33  12035 0.40508000   1.008000   ; qtot 0.364093
12036         hn    247    ccc    H34  12036 0.31758000   1.008000   ; qtot 0.681673
12037         h1    247    ccc    H35  12037 0.06278000   1.008000   ; qtot 0.744453
12038         h1    247    ccc    H36  12038 0.06278000   1.008000   ; qtot 0.807233
12039         oh    247    ccc    O12  12039 -0.59472000  16.000000   ; qtot 0.212513
12040         ho    247    ccc    H37  12040 0.41908000   1.008000   ; qtot 0.631593
12041         os    247    ccc    O13  12041 -0.44552000  16.000000   ; qtot 0.186073
12042         ho    247    ccc    H38  12042 0.41908000   1.008000   ; qtot 0.605153
12043         h1    247    ccc    H39  12043 0.08578000   1.008000   ; qtot 0.690933
12044         oh    247    ccc     O5  12044 -0.58672000  16.000000   ; qtot 0.104213
12045         ho    247    ccc    H40  12045 0.41908000   1.008000   ; qtot 0.523293
12046         n3    247    ccc     N4  12046 -0.54282000  14.010000   ; qtot -0.019527
; residue  248 ccc rtp ccc q -0.0
12047          n    248    ccc     N1  12047 -0.46580000  14.010000   ; qtot -0.485327
12048         hn    248    ccc     H4  12048 0.31480000   1.008000   ; qtot -0.170527
12049         c3    248    ccc     C3  12049 -0.28250000  12.010000   ; qtot -0.453027
12050         h1    248    ccc     H5  12050 0.15710000   1.008000   ; qtot -0.295927
12051         c3    248    ccc     C4  12051 0.44180000  12.010000   ; qtot 0.145873
12052         h1    248    ccc     H6  12052 0.15710000   1.008000   ; qtot 0.302973
12053         h1    248    ccc     H7  12053 -0.03530000   1.008000   ; qtot 0.267673
12054         h1    248    ccc     H8  12054 -0.03530000   1.008000   ; qtot 0.232373
12055         n3    248    ccc     N2  12055 -0.74090000  14.010000   ; qtot -0.508527
12056         c3    248    ccc     C5  12056 0.51680000  12.010000   ; qtot 0.008273
12057         c3    248    ccc     C6  12057 0.51680000  12.010000   ; qtot 0.525073
12058         h1    248    ccc     H9  12058 -0.05230000   1.008000   ; qtot 0.472773
12059         c3    248    ccc     C7  12059 -0.60390000  12.010000   ; qtot -0.131127
12060         h1    248    ccc    H10  12060 -0.05230000   1.008000   ; qtot -0.183427
12061         hc    248    ccc    H11  12061 0.16730000   1.008000   ; qtot -0.016127
12062         hc    248    ccc    H12  12062 0.16730000   1.008000   ; qtot 0.151173
12063          c    248    ccc     C8  12063 0.72110000  12.010000   ; qtot 0.872273
12064          o    248    ccc     O2  12064 -0.61950000  16.000000   ; qtot 0.252773
12065         h1    248    ccc    H13  12065 -0.05230000   1.008000   ; qtot 0.200473
12066         h1    248    ccc    H14  12066 -0.05230000   1.008000   ; qtot 0.148173
12067         c3    248    ccc     C9  12067 -0.60390000  12.010000   ; qtot -0.455727
12068         hc    248    ccc    H15  12068 0.16730000   1.008000   ; qtot -0.288427
12069         hc    248    ccc    H16  12069 0.16730000   1.008000   ; qtot -0.121127
12070          c    248    ccc    C10  12070 0.72110000  12.010000   ; qtot 0.599973
12071          o    248    ccc     O4  12071 -0.61950000  16.000000   ; qtot -0.019527
12072         c3    248    ccc    C11  12072 0.08518000  12.010000   ; qtot 0.065653
12073         c3    248    ccc    C12  12073 0.07918000  12.010000   ; qtot 0.144833
12074         h1    248    ccc    H17  12074 0.06978000   1.008000   ; qtot 0.214613
12075         c3    248    ccc    C13  12075 0.07918000  12.010000   ; qtot 0.293793
12076         c3    248    ccc    C14  12076 0.03578000  12.010000   ; qtot 0.329573
12077         c3    248    ccc    C15  12077 0.33498000  12.010000   ; qtot 0.664553
12078         h1    248    ccc    H18  12078 0.06178000   1.008000   ; qtot 0.726333
12079         h1    248    ccc    H19  12079 0.11278000   1.008000   ; qtot 0.839113
12080         h2    248    ccc    H20  12080 0.12178000   1.008000   ; qtot 0.960893
12081         oh    248    ccc     O1  12081 -0.56972000  16.000000   ; qtot 0.391173
12082         oh    248    ccc     O6  12082 -0.57772000  16.000000   ; qtot -0.186547
12083         c3    248    ccc    C16  12083 0.14548000  12.010000   ; qtot -0.041067
12084         ho    248    ccc    H21  12084 0.40508000   1.008000   ; qtot 0.364013
12085         hn    248    ccc    H22  12085 0.31758000   1.008000   ; qtot 0.681593
12086         h1    248    ccc    H23  12086 0.06278000   1.008000   ; qtot 0.744373
12087         h1    248    ccc    H24  12087 0.06278000   1.008000   ; qtot 0.807153
12088         oh    248    ccc     O7  12088 -0.59472000  16.000000   ; qtot 0.212433
12089         ho    248    ccc    H25  12089 0.41908000   1.008000   ; qtot 0.631513
12090         os    248    ccc     O8  12090 -0.44552000  16.000000   ; qtot 0.185993
12091         ho    248    ccc    H26  12091 0.41908000   1.008000   ; qtot 0.605073
12092         h1    248    ccc    H27  12092 0.08578000   1.008000   ; qtot 0.690853
12093         oh    248    ccc     O9  12093 -0.58672000  16.000000   ; qtot 0.104133
12094         ho    248    ccc    H28  12094 0.41908000   1.008000   ; qtot 0.523213
12095         n3    248    ccc     N3  12095 -0.54282000  14.010000   ; qtot -0.019607
12096         c3    248    ccc    C17  12096 0.08518000  12.010000   ; qtot 0.065573
12097         c3    248    ccc    C18  12097 0.07918000  12.010000   ; qtot 0.144753
12098         h1    248    ccc    H29  12098 0.06978000   1.008000   ; qtot 0.214533
12099         c3    248    ccc    C19  12099 0.07918000  12.010000   ; qtot 0.293713
12100         c3    248    ccc    C20  12100 0.03578000  12.010000   ; qtot 0.329493
12101         c3    248    ccc    C21  12101 0.33498000  12.010000   ; qtot 0.664473
12102         h1    248    ccc    H30  12102 0.06178000   1.008000   ; qtot 0.726253
12103         h1    248    ccc    H31  12103 0.11278000   1.008000   ; qtot 0.839033
12104         h2    248    ccc    H32  12104 0.12178000   1.008000   ; qtot 0.960813
12105         oh    248    ccc    O10  12105 -0.56972000  16.000000   ; qtot 0.391093
12106         oh    248    ccc    O11  12106 -0.57772000  16.000000   ; qtot -0.186627
12107         c3    248    ccc    C22  12107 0.14548000  12.010000   ; qtot -0.041147
12108         ho    248    ccc    H33  12108 0.40508000   1.008000   ; qtot 0.363933
12109         hn    248    ccc    H34  12109 0.31758000   1.008000   ; qtot 0.681513
12110         h1    248    ccc    H35  12110 0.06278000   1.008000   ; qtot 0.744293
12111         h1    248    ccc    H36  12111 0.06278000   1.008000   ; qtot 0.807073
12112         oh    248    ccc    O12  12112 -0.59472000  16.000000   ; qtot 0.212353
12113         ho    248    ccc    H37  12113 0.41908000   1.008000   ; qtot 0.631433
12114         os    248    ccc    O13  12114 -0.44552000  16.000000   ; qtot 0.185913
12115         ho    248    ccc    H38  12115 0.41908000   1.008000   ; qtot 0.604993
12116         h1    248    ccc    H39  12116 0.08578000   1.008000   ; qtot 0.690773
12117         oh    248    ccc     O5  12117 -0.58672000  16.000000   ; qtot 0.104053
12118         ho    248    ccc    H40  12118 0.41908000   1.008000   ; qtot 0.523133
12119         n3    248    ccc     N4  12119 -0.54282000  14.010000   ; qtot -0.019687
; residue  249 ccc rtp ccc q -0.0
12120          n    249    ccc     N1  12120 -0.46580000  14.010000   ; qtot -0.485487
12121         hn    249    ccc     H4  12121 0.31480000   1.008000   ; qtot -0.170687
12122         c3    249    ccc     C3  12122 -0.28250000  12.010000   ; qtot -0.453187
12123         h1    249    ccc     H5  12123 0.15710000   1.008000   ; qtot -0.296087
12124         c3    249    ccc     C4  12124 0.44180000  12.010000   ; qtot 0.145713
12125         h1    249    ccc     H6  12125 0.15710000   1.008000   ; qtot 0.302813
12126         h1    249    ccc     H7  12126 -0.03530000   1.008000   ; qtot 0.267513
12127         h1    249    ccc     H8  12127 -0.03530000   1.008000   ; qtot 0.232213
12128         n3    249    ccc     N2  12128 -0.74090000  14.010000   ; qtot -0.508687
12129         c3    249    ccc     C5  12129 0.51680000  12.010000   ; qtot 0.008113
12130         c3    249    ccc     C6  12130 0.51680000  12.010000   ; qtot 0.524913
12131         h1    249    ccc     H9  12131 -0.05230000   1.008000   ; qtot 0.472613
12132         c3    249    ccc     C7  12132 -0.60390000  12.010000   ; qtot -0.131287
12133         h1    249    ccc    H10  12133 -0.05230000   1.008000   ; qtot -0.183587
12134         hc    249    ccc    H11  12134 0.16730000   1.008000   ; qtot -0.016287
12135         hc    249    ccc    H12  12135 0.16730000   1.008000   ; qtot 0.151013
12136          c    249    ccc     C8  12136 0.72110000  12.010000   ; qtot 0.872113
12137          o    249    ccc     O2  12137 -0.61950000  16.000000   ; qtot 0.252613
12138         h1    249    ccc    H13  12138 -0.05230000   1.008000   ; qtot 0.200313
12139         h1    249    ccc    H14  12139 -0.05230000   1.008000   ; qtot 0.148013
12140         c3    249    ccc     C9  12140 -0.60390000  12.010000   ; qtot -0.455887
12141         hc    249    ccc    H15  12141 0.16730000   1.008000   ; qtot -0.288587
12142         hc    249    ccc    H16  12142 0.16730000   1.008000   ; qtot -0.121287
12143          c    249    ccc    C10  12143 0.72110000  12.010000   ; qtot 0.599813
12144          o    249    ccc     O4  12144 -0.61950000  16.000000   ; qtot -0.019687
12145         c3    249    ccc    C11  12145 0.08518000  12.010000   ; qtot 0.065493
12146         c3    249    ccc    C12  12146 0.07918000  12.010000   ; qtot 0.144673
12147         h1    249    ccc    H17  12147 0.06978000   1.008000   ; qtot 0.214453
12148         c3    249    ccc    C13  12148 0.07918000  12.010000   ; qtot 0.293633
12149         c3    249    ccc    C14  12149 0.03578000  12.010000   ; qtot 0.329413
12150         c3    249    ccc    C15  12150 0.33498000  12.010000   ; qtot 0.664393
12151         h1    249    ccc    H18  12151 0.06178000   1.008000   ; qtot 0.726173
12152         h1    249    ccc    H19  12152 0.11278000   1.008000   ; qtot 0.838953
12153         h2    249    ccc    H20  12153 0.12178000   1.008000   ; qtot 0.960733
12154         oh    249    ccc     O1  12154 -0.56972000  16.000000   ; qtot 0.391013
12155         oh    249    ccc     O6  12155 -0.57772000  16.000000   ; qtot -0.186707
12156         c3    249    ccc    C16  12156 0.14548000  12.010000   ; qtot -0.041227
12157         ho    249    ccc    H21  12157 0.40508000   1.008000   ; qtot 0.363853
12158         hn    249    ccc    H22  12158 0.31758000   1.008000   ; qtot 0.681433
12159         h1    249    ccc    H23  12159 0.06278000   1.008000   ; qtot 0.744213
12160         h1    249    ccc    H24  12160 0.06278000   1.008000   ; qtot 0.806993
12161         oh    249    ccc     O7  12161 -0.59472000  16.000000   ; qtot 0.212273
12162         ho    249    ccc    H25  12162 0.41908000   1.008000   ; qtot 0.631353
12163         os    249    ccc     O8  12163 -0.44552000  16.000000   ; qtot 0.185833
12164         ho    249    ccc    H26  12164 0.41908000   1.008000   ; qtot 0.604913
12165         h1    249    ccc    H27  12165 0.08578000   1.008000   ; qtot 0.690693
12166         oh    249    ccc     O9  12166 -0.58672000  16.000000   ; qtot 0.103973
12167         ho    249    ccc    H28  12167 0.41908000   1.008000   ; qtot 0.523053
12168         n3    249    ccc     N3  12168 -0.54282000  14.010000   ; qtot -0.019767
12169         c3    249    ccc    C17  12169 0.08518000  12.010000   ; qtot 0.065413
12170         c3    249    ccc    C18  12170 0.07918000  12.010000   ; qtot 0.144593
12171         h1    249    ccc    H29  12171 0.06978000   1.008000   ; qtot 0.214373
12172         c3    249    ccc    C19  12172 0.07918000  12.010000   ; qtot 0.293553
12173         c3    249    ccc    C20  12173 0.03578000  12.010000   ; qtot 0.329333
12174         c3    249    ccc    C21  12174 0.33498000  12.010000   ; qtot 0.664313
12175         h1    249    ccc    H30  12175 0.06178000   1.008000   ; qtot 0.726093
12176         h1    249    ccc    H31  12176 0.11278000   1.008000   ; qtot 0.838873
12177         h2    249    ccc    H32  12177 0.12178000   1.008000   ; qtot 0.960653
12178         oh    249    ccc    O10  12178 -0.56972000  16.000000   ; qtot 0.390933
12179         oh    249    ccc    O11  12179 -0.57772000  16.000000   ; qtot -0.186787
12180         c3    249    ccc    C22  12180 0.14548000  12.010000   ; qtot -0.041307
12181         ho    249    ccc    H33  12181 0.40508000   1.008000   ; qtot 0.363773
12182         hn    249    ccc    H34  12182 0.31758000   1.008000   ; qtot 0.681353
12183         h1    249    ccc    H35  12183 0.06278000   1.008000   ; qtot 0.744133
12184         h1    249    ccc    H36  12184 0.06278000   1.008000   ; qtot 0.806913
12185         oh    249    ccc    O12  12185 -0.59472000  16.000000   ; qtot 0.212193
12186         ho    249    ccc    H37  12186 0.41908000   1.008000   ; qtot 0.631273
12187         os    249    ccc    O13  12187 -0.44552000  16.000000   ; qtot 0.185753
12188         ho    249    ccc    H38  12188 0.41908000   1.008000   ; qtot 0.604833
12189         h1    249    ccc    H39  12189 0.08578000   1.008000   ; qtot 0.690613
12190         oh    249    ccc     O5  12190 -0.58672000  16.000000   ; qtot 0.103893
12191         ho    249    ccc    H40  12191 0.41908000   1.008000   ; qtot 0.522973
12192         n3    249    ccc     N4  12192 -0.54282000  14.010000   ; qtot -0.019847
; residue  250 ccc rtp ccc q -0.0
12193          n    250    ccc     N1  12193 -0.46580000  14.010000   ; qtot -0.485647
12194         hn    250    ccc     H4  12194 0.31480000   1.008000   ; qtot -0.170847
12195         c3    250    ccc     C3  12195 -0.28250000  12.010000   ; qtot -0.453347
12196         h1    250    ccc     H5  12196 0.15710000   1.008000   ; qtot -0.296247
12197         c3    250    ccc     C4  12197 0.44180000  12.010000   ; qtot 0.145553
12198         h1    250    ccc     H6  12198 0.15710000   1.008000   ; qtot 0.302653
12199         h1    250    ccc     H7  12199 -0.03530000   1.008000   ; qtot 0.267353
12200         h1    250    ccc     H8  12200 -0.03530000   1.008000   ; qtot 0.232053
12201         n3    250    ccc     N2  12201 -0.74090000  14.010000   ; qtot -0.508847
12202         c3    250    ccc     C5  12202 0.51680000  12.010000   ; qtot 0.007953
12203         c3    250    ccc     C6  12203 0.51680000  12.010000   ; qtot 0.524753
12204         h1    250    ccc     H9  12204 -0.05230000   1.008000   ; qtot 0.472453
12205         c3    250    ccc     C7  12205 -0.60390000  12.010000   ; qtot -0.131447
12206         h1    250    ccc    H10  12206 -0.05230000   1.008000   ; qtot -0.183747
12207         hc    250    ccc    H11  12207 0.16730000   1.008000   ; qtot -0.016447
12208         hc    250    ccc    H12  12208 0.16730000   1.008000   ; qtot 0.150853
12209          c    250    ccc     C8  12209 0.72110000  12.010000   ; qtot 0.871953
12210          o    250    ccc     O2  12210 -0.61950000  16.000000   ; qtot 0.252453
12211         h1    250    ccc    H13  12211 -0.05230000   1.008000   ; qtot 0.200153
12212         h1    250    ccc    H14  12212 -0.05230000   1.008000   ; qtot 0.147853
12213         c3    250    ccc     C9  12213 -0.60390000  12.010000   ; qtot -0.456047
12214         hc    250    ccc    H15  12214 0.16730000   1.008000   ; qtot -0.288747
12215         hc    250    ccc    H16  12215 0.16730000   1.008000   ; qtot -0.121447
12216          c    250    ccc    C10  12216 0.72110000  12.010000   ; qtot 0.599653
12217          o    250    ccc     O4  12217 -0.61950000  16.000000   ; qtot -0.019847
12218         c3    250    ccc    C11  12218 0.08518000  12.010000   ; qtot 0.065333
12219         c3    250    ccc    C12  12219 0.07918000  12.010000   ; qtot 0.144513
12220         h1    250    ccc    H17  12220 0.06978000   1.008000   ; qtot 0.214293
12221         c3    250    ccc    C13  12221 0.07918000  12.010000   ; qtot 0.293473
12222         c3    250    ccc    C14  12222 0.03578000  12.010000   ; qtot 0.329253
12223         c3    250    ccc    C15  12223 0.33498000  12.010000   ; qtot 0.664233
12224         h1    250    ccc    H18  12224 0.06178000   1.008000   ; qtot 0.726013
12225         h1    250    ccc    H19  12225 0.11278000   1.008000   ; qtot 0.838793
12226         h2    250    ccc    H20  12226 0.12178000   1.008000   ; qtot 0.960573
12227         oh    250    ccc     O1  12227 -0.56972000  16.000000   ; qtot 0.390853
12228         oh    250    ccc     O6  12228 -0.57772000  16.000000   ; qtot -0.186867
12229         c3    250    ccc    C16  12229 0.14548000  12.010000   ; qtot -0.041387
12230         ho    250    ccc    H21  12230 0.40508000   1.008000   ; qtot 0.363693
12231         hn    250    ccc    H22  12231 0.31758000   1.008000   ; qtot 0.681273
12232         h1    250    ccc    H23  12232 0.06278000   1.008000   ; qtot 0.744053
12233         h1    250    ccc    H24  12233 0.06278000   1.008000   ; qtot 0.806833
12234         oh    250    ccc     O7  12234 -0.59472000  16.000000   ; qtot 0.212113
12235         ho    250    ccc    H25  12235 0.41908000   1.008000   ; qtot 0.631193
12236         os    250    ccc     O8  12236 -0.44552000  16.000000   ; qtot 0.185673
12237         ho    250    ccc    H26  12237 0.41908000   1.008000   ; qtot 0.604753
12238         h1    250    ccc    H27  12238 0.08578000   1.008000   ; qtot 0.690533
12239         oh    250    ccc     O9  12239 -0.58672000  16.000000   ; qtot 0.103813
12240         ho    250    ccc    H28  12240 0.41908000   1.008000   ; qtot 0.522893
12241         n3    250    ccc     N3  12241 -0.54282000  14.010000   ; qtot -0.019927
12242         c3    250    ccc    C17  12242 0.08518000  12.010000   ; qtot 0.065253
12243         c3    250    ccc    C18  12243 0.07918000  12.010000   ; qtot 0.144433
12244         h1    250    ccc    H29  12244 0.06978000   1.008000   ; qtot 0.214213
12245         c3    250    ccc    C19  12245 0.07918000  12.010000   ; qtot 0.293393
12246         c3    250    ccc    C20  12246 0.03578000  12.010000   ; qtot 0.329173
12247         c3    250    ccc    C21  12247 0.33498000  12.010000   ; qtot 0.664153
12248         h1    250    ccc    H30  12248 0.06178000   1.008000   ; qtot 0.725933
12249         h1    250    ccc    H31  12249 0.11278000   1.008000   ; qtot 0.838713
12250         h2    250    ccc    H32  12250 0.12178000   1.008000   ; qtot 0.960493
12251         oh    250    ccc    O10  12251 -0.56972000  16.000000   ; qtot 0.390773
12252         oh    250    ccc    O11  12252 -0.57772000  16.000000   ; qtot -0.186947
12253         c3    250    ccc    C22  12253 0.14548000  12.010000   ; qtot -0.041467
12254         ho    250    ccc    H33  12254 0.40508000   1.008000   ; qtot 0.363613
12255         hn    250    ccc    H34  12255 0.31758000   1.008000   ; qtot 0.681193
12256         h1    250    ccc    H35  12256 0.06278000   1.008000   ; qtot 0.743973
12257         h1    250    ccc    H36  12257 0.06278000   1.008000   ; qtot 0.806753
12258         oh    250    ccc    O12  12258 -0.59472000  16.000000   ; qtot 0.212033
12259         ho    250    ccc    H37  12259 0.41908000   1.008000   ; qtot 0.631113
12260         os    250    ccc    O13  12260 -0.44552000  16.000000   ; qtot 0.185593
12261         ho    250    ccc    H38  12261 0.41908000   1.008000   ; qtot 0.604673
12262         h1    250    ccc    H39  12262 0.08578000   1.008000   ; qtot 0.690453
12263         oh    250    ccc     O5  12263 -0.58672000  16.000000   ; qtot 0.103733
12264         ho    250    ccc    H40  12264 0.41908000   1.008000   ; qtot 0.522813
12265         n3    250    ccc     N4  12265 -0.54282000  14.010000   ; qtot -0.020007
; residue  251 ccc rtp ccc q -0.0
12266          n    251    ccc     N1  12266 -0.46580000  14.010000   ; qtot -0.485807
12267         hn    251    ccc     H4  12267 0.31480000   1.008000   ; qtot -0.171007
12268         c3    251    ccc     C3  12268 -0.28250000  12.010000   ; qtot -0.453507
12269         h1    251    ccc     H5  12269 0.15710000   1.008000   ; qtot -0.296407
12270         c3    251    ccc     C4  12270 0.44180000  12.010000   ; qtot 0.145393
12271         h1    251    ccc     H6  12271 0.15710000   1.008000   ; qtot 0.302493
12272         h1    251    ccc     H7  12272 -0.03530000   1.008000   ; qtot 0.267193
12273         h1    251    ccc     H8  12273 -0.03530000   1.008000   ; qtot 0.231893
12274         n3    251    ccc     N2  12274 -0.74090000  14.010000   ; qtot -0.509007
12275         c3    251    ccc     C5  12275 0.51680000  12.010000   ; qtot 0.007793
12276         c3    251    ccc     C6  12276 0.51680000  12.010000   ; qtot 0.524593
12277         h1    251    ccc     H9  12277 -0.05230000   1.008000   ; qtot 0.472293
12278         c3    251    ccc     C7  12278 -0.60390000  12.010000   ; qtot -0.131607
12279         h1    251    ccc    H10  12279 -0.05230000   1.008000   ; qtot -0.183907
12280         hc    251    ccc    H11  12280 0.16730000   1.008000   ; qtot -0.016607
12281         hc    251    ccc    H12  12281 0.16730000   1.008000   ; qtot 0.150693
12282          c    251    ccc     C8  12282 0.72110000  12.010000   ; qtot 0.871793
12283          o    251    ccc     O2  12283 -0.61950000  16.000000   ; qtot 0.252293
12284         h1    251    ccc    H13  12284 -0.05230000   1.008000   ; qtot 0.199993
12285         h1    251    ccc    H14  12285 -0.05230000   1.008000   ; qtot 0.147693
12286         c3    251    ccc     C9  12286 -0.60390000  12.010000   ; qtot -0.456207
12287         hc    251    ccc    H15  12287 0.16730000   1.008000   ; qtot -0.288907
12288         hc    251    ccc    H16  12288 0.16730000   1.008000   ; qtot -0.121607
12289          c    251    ccc    C10  12289 0.72110000  12.010000   ; qtot 0.599493
12290          o    251    ccc     O4  12290 -0.61950000  16.000000   ; qtot -0.020007
12291         c3    251    ccc    C11  12291 0.08518000  12.010000   ; qtot 0.065173
12292         c3    251    ccc    C12  12292 0.07918000  12.010000   ; qtot 0.144353
12293         h1    251    ccc    H17  12293 0.06978000   1.008000   ; qtot 0.214133
12294         c3    251    ccc    C13  12294 0.07918000  12.010000   ; qtot 0.293313
12295         c3    251    ccc    C14  12295 0.03578000  12.010000   ; qtot 0.329093
12296         c3    251    ccc    C15  12296 0.33498000  12.010000   ; qtot 0.664073
12297         h1    251    ccc    H18  12297 0.06178000   1.008000   ; qtot 0.725853
12298         h1    251    ccc    H19  12298 0.11278000   1.008000   ; qtot 0.838633
12299         h2    251    ccc    H20  12299 0.12178000   1.008000   ; qtot 0.960413
12300         oh    251    ccc     O1  12300 -0.56972000  16.000000   ; qtot 0.390693
12301         oh    251    ccc     O6  12301 -0.57772000  16.000000   ; qtot -0.187027
12302         c3    251    ccc    C16  12302 0.14548000  12.010000   ; qtot -0.041547
12303         ho    251    ccc    H21  12303 0.40508000   1.008000   ; qtot 0.363533
12304         hn    251    ccc    H22  12304 0.31758000   1.008000   ; qtot 0.681113
12305         h1    251    ccc    H23  12305 0.06278000   1.008000   ; qtot 0.743893
12306         h1    251    ccc    H24  12306 0.06278000   1.008000   ; qtot 0.806673
12307         oh    251    ccc     O7  12307 -0.59472000  16.000000   ; qtot 0.211953
12308         ho    251    ccc    H25  12308 0.41908000   1.008000   ; qtot 0.631033
12309         os    251    ccc     O8  12309 -0.44552000  16.000000   ; qtot 0.185513
12310         ho    251    ccc    H26  12310 0.41908000   1.008000   ; qtot 0.604593
12311         h1    251    ccc    H27  12311 0.08578000   1.008000   ; qtot 0.690373
12312         oh    251    ccc     O9  12312 -0.58672000  16.000000   ; qtot 0.103653
12313         ho    251    ccc    H28  12313 0.41908000   1.008000   ; qtot 0.522733
12314         n3    251    ccc     N3  12314 -0.54282000  14.010000   ; qtot -0.020087
12315         c3    251    ccc    C17  12315 0.08518000  12.010000   ; qtot 0.065093
12316         c3    251    ccc    C18  12316 0.07918000  12.010000   ; qtot 0.144273
12317         h1    251    ccc    H29  12317 0.06978000   1.008000   ; qtot 0.214053
12318         c3    251    ccc    C19  12318 0.07918000  12.010000   ; qtot 0.293233
12319         c3    251    ccc    C20  12319 0.03578000  12.010000   ; qtot 0.329013
12320         c3    251    ccc    C21  12320 0.33498000  12.010000   ; qtot 0.663993
12321         h1    251    ccc    H30  12321 0.06178000   1.008000   ; qtot 0.725773
12322         h1    251    ccc    H31  12322 0.11278000   1.008000   ; qtot 0.838553
12323         h2    251    ccc    H32  12323 0.12178000   1.008000   ; qtot 0.960333
12324         oh    251    ccc    O10  12324 -0.56972000  16.000000   ; qtot 0.390613
12325         oh    251    ccc    O11  12325 -0.57772000  16.000000   ; qtot -0.187107
12326         c3    251    ccc    C22  12326 0.14548000  12.010000   ; qtot -0.041627
12327         ho    251    ccc    H33  12327 0.40508000   1.008000   ; qtot 0.363453
12328         hn    251    ccc    H34  12328 0.31758000   1.008000   ; qtot 0.681033
12329         h1    251    ccc    H35  12329 0.06278000   1.008000   ; qtot 0.743813
12330         h1    251    ccc    H36  12330 0.06278000   1.008000   ; qtot 0.806593
12331         oh    251    ccc    O12  12331 -0.59472000  16.000000   ; qtot 0.211873
12332         ho    251    ccc    H37  12332 0.41908000   1.008000   ; qtot 0.630953
12333         os    251    ccc    O13  12333 -0.44552000  16.000000   ; qtot 0.185433
12334         ho    251    ccc    H38  12334 0.41908000   1.008000   ; qtot 0.604513
12335         h1    251    ccc    H39  12335 0.08578000   1.008000   ; qtot 0.690293
12336         oh    251    ccc     O5  12336 -0.58672000  16.000000   ; qtot 0.103573
12337         ho    251    ccc    H40  12337 0.41908000   1.008000   ; qtot 0.522653
12338         n3    251    ccc     N4  12338 -0.54282000  14.010000   ; qtot -0.020167
; residue  252 ccc rtp ccc q -0.0
12339          n    252    ccc     N1  12339 -0.46580000  14.010000   ; qtot -0.485967
12340         hn    252    ccc     H4  12340 0.31480000   1.008000   ; qtot -0.171167
12341         c3    252    ccc     C3  12341 -0.28250000  12.010000   ; qtot -0.453667
12342         h1    252    ccc     H5  12342 0.15710000   1.008000   ; qtot -0.296567
12343         c3    252    ccc     C4  12343 0.44180000  12.010000   ; qtot 0.145233
12344         h1    252    ccc     H6  12344 0.15710000   1.008000   ; qtot 0.302333
12345         h1    252    ccc     H7  12345 -0.03530000   1.008000   ; qtot 0.267033
12346         h1    252    ccc     H8  12346 -0.03530000   1.008000   ; qtot 0.231733
12347         n3    252    ccc     N2  12347 -0.74090000  14.010000   ; qtot -0.509167
12348         c3    252    ccc     C5  12348 0.51680000  12.010000   ; qtot 0.007633
12349         c3    252    ccc     C6  12349 0.51680000  12.010000   ; qtot 0.524433
12350         h1    252    ccc     H9  12350 -0.05230000   1.008000   ; qtot 0.472133
12351         c3    252    ccc     C7  12351 -0.60390000  12.010000   ; qtot -0.131767
12352         h1    252    ccc    H10  12352 -0.05230000   1.008000   ; qtot -0.184067
12353         hc    252    ccc    H11  12353 0.16730000   1.008000   ; qtot -0.016767
12354         hc    252    ccc    H12  12354 0.16730000   1.008000   ; qtot 0.150533
12355          c    252    ccc     C8  12355 0.72110000  12.010000   ; qtot 0.871633
12356          o    252    ccc     O2  12356 -0.61950000  16.000000   ; qtot 0.252133
12357         h1    252    ccc    H13  12357 -0.05230000   1.008000   ; qtot 0.199833
12358         h1    252    ccc    H14  12358 -0.05230000   1.008000   ; qtot 0.147533
12359         c3    252    ccc     C9  12359 -0.60390000  12.010000   ; qtot -0.456367
12360         hc    252    ccc    H15  12360 0.16730000   1.008000   ; qtot -0.289067
12361         hc    252    ccc    H16  12361 0.16730000   1.008000   ; qtot -0.121767
12362          c    252    ccc    C10  12362 0.72110000  12.010000   ; qtot 0.599333
12363          o    252    ccc     O4  12363 -0.61950000  16.000000   ; qtot -0.020167
12364         c3    252    ccc    C11  12364 0.08518000  12.010000   ; qtot 0.065013
12365         c3    252    ccc    C12  12365 0.07918000  12.010000   ; qtot 0.144193
12366         h1    252    ccc    H17  12366 0.06978000   1.008000   ; qtot 0.213973
12367         c3    252    ccc    C13  12367 0.07918000  12.010000   ; qtot 0.293153
12368         c3    252    ccc    C14  12368 0.03578000  12.010000   ; qtot 0.328933
12369         c3    252    ccc    C15  12369 0.33498000  12.010000   ; qtot 0.663913
12370         h1    252    ccc    H18  12370 0.06178000   1.008000   ; qtot 0.725693
12371         h1    252    ccc    H19  12371 0.11278000   1.008000   ; qtot 0.838473
12372         h2    252    ccc    H20  12372 0.12178000   1.008000   ; qtot 0.960253
12373         oh    252    ccc     O1  12373 -0.56972000  16.000000   ; qtot 0.390533
12374         oh    252    ccc     O6  12374 -0.57772000  16.000000   ; qtot -0.187187
12375         c3    252    ccc    C16  12375 0.14548000  12.010000   ; qtot -0.041707
12376         ho    252    ccc    H21  12376 0.40508000   1.008000   ; qtot 0.363373
12377         hn    252    ccc    H22  12377 0.31758000   1.008000   ; qtot 0.680953
12378         h1    252    ccc    H23  12378 0.06278000   1.008000   ; qtot 0.743733
12379         h1    252    ccc    H24  12379 0.06278000   1.008000   ; qtot 0.806513
12380         oh    252    ccc     O7  12380 -0.59472000  16.000000   ; qtot 0.211793
12381         ho    252    ccc    H25  12381 0.41908000   1.008000   ; qtot 0.630873
12382         os    252    ccc     O8  12382 -0.44552000  16.000000   ; qtot 0.185353
12383         ho    252    ccc    H26  12383 0.41908000   1.008000   ; qtot 0.604433
12384         h1    252    ccc    H27  12384 0.08578000   1.008000   ; qtot 0.690213
12385         oh    252    ccc     O9  12385 -0.58672000  16.000000   ; qtot 0.103493
12386         ho    252    ccc    H28  12386 0.41908000   1.008000   ; qtot 0.522573
12387         n3    252    ccc     N3  12387 -0.54282000  14.010000   ; qtot -0.020247
12388         c3    252    ccc    C17  12388 0.08518000  12.010000   ; qtot 0.064933
12389         c3    252    ccc    C18  12389 0.07918000  12.010000   ; qtot 0.144113
12390         h1    252    ccc    H29  12390 0.06978000   1.008000   ; qtot 0.213893
12391         c3    252    ccc    C19  12391 0.07918000  12.010000   ; qtot 0.293073
12392         c3    252    ccc    C20  12392 0.03578000  12.010000   ; qtot 0.328853
12393         c3    252    ccc    C21  12393 0.33498000  12.010000   ; qtot 0.663833
12394         h1    252    ccc    H30  12394 0.06178000   1.008000   ; qtot 0.725613
12395         h1    252    ccc    H31  12395 0.11278000   1.008000   ; qtot 0.838393
12396         h2    252    ccc    H32  12396 0.12178000   1.008000   ; qtot 0.960173
12397         oh    252    ccc    O10  12397 -0.56972000  16.000000   ; qtot 0.390453
12398         oh    252    ccc    O11  12398 -0.57772000  16.000000   ; qtot -0.187267
12399         c3    252    ccc    C22  12399 0.14548000  12.010000   ; qtot -0.041787
12400         ho    252    ccc    H33  12400 0.40508000   1.008000   ; qtot 0.363293
12401         hn    252    ccc    H34  12401 0.31758000   1.008000   ; qtot 0.680873
12402         h1    252    ccc    H35  12402 0.06278000   1.008000   ; qtot 0.743653
12403         h1    252    ccc    H36  12403 0.06278000   1.008000   ; qtot 0.806433
12404         oh    252    ccc    O12  12404 -0.59472000  16.000000   ; qtot 0.211713
12405         ho    252    ccc    H37  12405 0.41908000   1.008000   ; qtot 0.630793
12406         os    252    ccc    O13  12406 -0.44552000  16.000000   ; qtot 0.185273
12407         ho    252    ccc    H38  12407 0.41908000   1.008000   ; qtot 0.604353
12408         h1    252    ccc    H39  12408 0.08578000   1.008000   ; qtot 0.690133
12409         oh    252    ccc     O5  12409 -0.58672000  16.000000   ; qtot 0.103413
12410         ho    252    ccc    H40  12410 0.41908000   1.008000   ; qtot 0.522493
12411         n3    252    ccc     N4  12411 -0.54282000  14.010000   ; qtot -0.020327
; residue  253 ccc rtp ccc q -0.0
12412          n    253    ccc     N1  12412 -0.46580000  14.010000   ; qtot -0.486127
12413         hn    253    ccc     H4  12413 0.31480000   1.008000   ; qtot -0.171327
12414         c3    253    ccc     C3  12414 -0.28250000  12.010000   ; qtot -0.453827
12415         h1    253    ccc     H5  12415 0.15710000   1.008000   ; qtot -0.296727
12416         c3    253    ccc     C4  12416 0.44180000  12.010000   ; qtot 0.145073
12417         h1    253    ccc     H6  12417 0.15710000   1.008000   ; qtot 0.302173
12418         h1    253    ccc     H7  12418 -0.03530000   1.008000   ; qtot 0.266873
12419         h1    253    ccc     H8  12419 -0.03530000   1.008000   ; qtot 0.231573
12420         n3    253    ccc     N2  12420 -0.74090000  14.010000   ; qtot -0.509327
12421         c3    253    ccc     C5  12421 0.51680000  12.010000   ; qtot 0.007473
12422         c3    253    ccc     C6  12422 0.51680000  12.010000   ; qtot 0.524273
12423         h1    253    ccc     H9  12423 -0.05230000   1.008000   ; qtot 0.471973
12424         c3    253    ccc     C7  12424 -0.60390000  12.010000   ; qtot -0.131927
12425         h1    253    ccc    H10  12425 -0.05230000   1.008000   ; qtot -0.184227
12426         hc    253    ccc    H11  12426 0.16730000   1.008000   ; qtot -0.016927
12427         hc    253    ccc    H12  12427 0.16730000   1.008000   ; qtot 0.150373
12428          c    253    ccc     C8  12428 0.72110000  12.010000   ; qtot 0.871473
12429          o    253    ccc     O2  12429 -0.61950000  16.000000   ; qtot 0.251973
12430         h1    253    ccc    H13  12430 -0.05230000   1.008000   ; qtot 0.199673
12431         h1    253    ccc    H14  12431 -0.05230000   1.008000   ; qtot 0.147373
12432         c3    253    ccc     C9  12432 -0.60390000  12.010000   ; qtot -0.456527
12433         hc    253    ccc    H15  12433 0.16730000   1.008000   ; qtot -0.289227
12434         hc    253    ccc    H16  12434 0.16730000   1.008000   ; qtot -0.121927
12435          c    253    ccc    C10  12435 0.72110000  12.010000   ; qtot 0.599173
12436          o    253    ccc     O4  12436 -0.61950000  16.000000   ; qtot -0.020327
12437         c3    253    ccc    C11  12437 0.08518000  12.010000   ; qtot 0.064853
12438         c3    253    ccc    C12  12438 0.07918000  12.010000   ; qtot 0.144033
12439         h1    253    ccc    H17  12439 0.06978000   1.008000   ; qtot 0.213813
12440         c3    253    ccc    C13  12440 0.07918000  12.010000   ; qtot 0.292993
12441         c3    253    ccc    C14  12441 0.03578000  12.010000   ; qtot 0.328773
12442         c3    253    ccc    C15  12442 0.33498000  12.010000   ; qtot 0.663753
12443         h1    253    ccc    H18  12443 0.06178000   1.008000   ; qtot 0.725533
12444         h1    253    ccc    H19  12444 0.11278000   1.008000   ; qtot 0.838313
12445         h2    253    ccc    H20  12445 0.12178000   1.008000   ; qtot 0.960093
12446         oh    253    ccc     O1  12446 -0.56972000  16.000000   ; qtot 0.390373
12447         oh    253    ccc     O6  12447 -0.57772000  16.000000   ; qtot -0.187347
12448         c3    253    ccc    C16  12448 0.14548000  12.010000   ; qtot -0.041867
12449         ho    253    ccc    H21  12449 0.40508000   1.008000   ; qtot 0.363213
12450         hn    253    ccc    H22  12450 0.31758000   1.008000   ; qtot 0.680793
12451         h1    253    ccc    H23  12451 0.06278000   1.008000   ; qtot 0.743573
12452         h1    253    ccc    H24  12452 0.06278000   1.008000   ; qtot 0.806353
12453         oh    253    ccc     O7  12453 -0.59472000  16.000000   ; qtot 0.211633
12454         ho    253    ccc    H25  12454 0.41908000   1.008000   ; qtot 0.630713
12455         os    253    ccc     O8  12455 -0.44552000  16.000000   ; qtot 0.185193
12456         ho    253    ccc    H26  12456 0.41908000   1.008000   ; qtot 0.604273
12457         h1    253    ccc    H27  12457 0.08578000   1.008000   ; qtot 0.690053
12458         oh    253    ccc     O9  12458 -0.58672000  16.000000   ; qtot 0.103333
12459         ho    253    ccc    H28  12459 0.41908000   1.008000   ; qtot 0.522413
12460         n3    253    ccc     N3  12460 -0.54282000  14.010000   ; qtot -0.020407
12461         c3    253    ccc    C17  12461 0.08518000  12.010000   ; qtot 0.064773
12462         c3    253    ccc    C18  12462 0.07918000  12.010000   ; qtot 0.143953
12463         h1    253    ccc    H29  12463 0.06978000   1.008000   ; qtot 0.213733
12464         c3    253    ccc    C19  12464 0.07918000  12.010000   ; qtot 0.292913
12465         c3    253    ccc    C20  12465 0.03578000  12.010000   ; qtot 0.328693
12466         c3    253    ccc    C21  12466 0.33498000  12.010000   ; qtot 0.663673
12467         h1    253    ccc    H30  12467 0.06178000   1.008000   ; qtot 0.725453
12468         h1    253    ccc    H31  12468 0.11278000   1.008000   ; qtot 0.838233
12469         h2    253    ccc    H32  12469 0.12178000   1.008000   ; qtot 0.960013
12470         oh    253    ccc    O10  12470 -0.56972000  16.000000   ; qtot 0.390293
12471         oh    253    ccc    O11  12471 -0.57772000  16.000000   ; qtot -0.187427
12472         c3    253    ccc    C22  12472 0.14548000  12.010000   ; qtot -0.041947
12473         ho    253    ccc    H33  12473 0.40508000   1.008000   ; qtot 0.363133
12474         hn    253    ccc    H34  12474 0.31758000   1.008000   ; qtot 0.680713
12475         h1    253    ccc    H35  12475 0.06278000   1.008000   ; qtot 0.743493
12476         h1    253    ccc    H36  12476 0.06278000   1.008000   ; qtot 0.806273
12477         oh    253    ccc    O12  12477 -0.59472000  16.000000   ; qtot 0.211553
12478         ho    253    ccc    H37  12478 0.41908000   1.008000   ; qtot 0.630633
12479         os    253    ccc    O13  12479 -0.44552000  16.000000   ; qtot 0.185113
12480         ho    253    ccc    H38  12480 0.41908000   1.008000   ; qtot 0.604193
12481         h1    253    ccc    H39  12481 0.08578000   1.008000   ; qtot 0.689973
12482         oh    253    ccc     O5  12482 -0.58672000  16.000000   ; qtot 0.103253
12483         ho    253    ccc    H40  12483 0.41908000   1.008000   ; qtot 0.522333
12484         n3    253    ccc     N4  12484 -0.54282000  14.010000   ; qtot -0.020487

[ bonds ]
;    ai     aj funct         c0         c1         c2         c3
      1      4     1   0.15375 251793.120000
      1      8     1   0.14647 272713.120000
      4      7     1   0.14647 272713.120000
      7     15     1   0.14647 272713.120000
      7     18     1   0.14647 272713.120000
      8      9     1   0.14647 272713.120000
      8     12     1   0.14647 272713.120000
      9     30     1   0.15375 251793.120000
     12     27     1   0.15375 251793.120000
     15     21     1   0.15375 251793.120000
     18     24     1   0.15375 251793.120000
     21     35     1   0.15241 261918.400000
     24     36     1   0.15241 261918.400000
     27     33     1   0.15241 261918.400000
     30     34     1   0.15241 261918.400000
     33     37     1   0.12183 533627.360000
     33     64     1   0.13789 357815.680000
     34     40     1   0.12183 533627.360000
     34     89     1   0.13789 357815.680000
     35     38     1   0.12183 533627.360000
     35    114     1   0.13789 357815.680000
     36     39     1   0.12183 533627.360000
     36    139     1   0.13789 357815.680000
     41     44     1   0.15375 251793.120000
     41     47     1   0.14647 272713.120000
     44     64     1   0.14619 275056.160000
     47     48     1   0.14647 272713.120000
     47     51     1   0.14647 272713.120000
     48     57     1   0.15375 251793.120000
     51     54     1   0.15375 251793.120000
     54     60     1   0.15241 261918.400000
     57     61     1   0.15241 261918.400000
     60     62     1   0.12183 533627.360000
     60    164     1   0.13789 357815.680000
     61     63     1   0.12183 533627.360000
     61    189     1   0.13789 357815.680000
     66     69     1   0.15375 251793.120000
     66     72     1   0.14647 272713.120000
     69     89     1   0.14619 275056.160000
     72     73     1   0.14647 272713.120000
     72     76     1   0.14647 272713.120000
     73     82     1   0.15375 251793.120000
     76     79     1   0.15375 251793.120000
     79     85     1   0.15241 261918.400000
     82     86     1   0.15241 261918.400000
     85     87     1   0.12183 533627.360000
     85    214     1   0.13789 357815.680000
     86     88     1   0.12183 533627.360000
     86    239     1   0.13789 357815.680000
     91     94     1   0.15375 251793.120000
     91     97     1   0.14647 272713.120000
     94    114     1   0.14619 275056.160000
     97     98     1   0.14647 272713.120000
     97    101     1   0.14647 272713.120000
     98    107     1   0.15375 251793.120000
    101    104     1   0.15375 251793.120000
    104    110     1   0.15241 261918.400000
    107    111     1   0.15241 261918.400000
    110    112     1   0.12183 533627.360000
    110    264     1   0.13789 357815.680000
    111    113     1   0.12183 533627.360000
    111    289     1   0.13789 357815.680000
    116    119     1   0.15375 251793.120000
    116    122     1   0.14647 272713.120000
    119    139     1   0.14619 275056.160000
    122    123     1   0.14647 272713.120000
    122    126     1   0.14647 272713.120000
    123    132     1   0.15375 251793.120000
    126    129     1   0.15375 251793.120000
    129    135     1   0.15241 261918.400000
    132    136     1   0.15241 261918.400000
    135    137     1   0.12183 533627.360000
    135    314     1   0.13789 357815.680000
    136    138     1   0.12183 533627.360000
    136    339     1   0.13789 357815.680000
    141    144     1   0.15375 251793.120000
    141    147     1   0.14647 272713.120000
    144    164     1   0.14619 275056.160000
    147    148     1   0.14647 272713.120000
    147    151     1   0.14647 272713.120000
    148    157     1   0.15375 251793.120000
    151    154     1   0.15375 251793.120000
    154    160     1   0.15241 261918.400000
    157    161     1   0.15241 261918.400000
    160    162     1   0.12183 533627.360000
    160    364     1   0.13789 357815.680000
    161    163     1   0.12183 533627.360000
    161    389     1   0.13789 357815.680000
    166    169     1   0.15375 251793.120000
    166    172     1   0.14647 272713.120000
    169    189     1   0.14619 275056.160000
    172    173     1   0.14647 272713.120000
    172    176     1   0.14647 272713.120000
    173    182     1   0.15375 251793.120000
    176    179     1   0.15375 251793.120000
    179    185     1   0.15241 261918.400000
    182    186     1   0.15241 261918.400000
    185    187     1   0.12183 533627.360000
    185    414     1   0.13789 357815.680000
    186    188     1   0.12183 533627.360000
    186    439     1   0.13789 357815.680000
    191    194     1   0.15375 251793.120000
    191    197     1   0.14647 272713.120000
    194    214     1   0.14619 275056.160000
    197    198     1   0.14647 272713.120000
    197    201     1   0.14647 272713.120000
    198    207     1   0.15375 251793.120000
    201    204     1   0.15375 251793.120000
    204    210     1   0.15241 261918.400000
    207    211     1   0.15241 261918.400000
    210    212     1   0.12183 533627.360000
    210    464     1   0.13789 357815.680000
    211    213     1   0.12183 533627.360000
    211    489     1   0.13789 357815.680000
    216    219     1   0.15375 251793.120000
    216    222     1   0.14647 272713.120000
    219    239     1   0.14619 275056.160000
    222    223     1   0.14647 272713.120000
    222    226     1   0.14647 272713.120000
    223    232     1   0.15375 251793.120000
    226    229     1   0.15375 251793.120000
    229    235     1   0.15241 261918.400000
    232    236     1   0.15241 261918.400000
    235    237     1   0.12183 533627.360000
    235    514     1   0.13789 357815.680000
    236    238     1   0.12183 533627.360000
    236    539     1   0.13789 357815.680000
    241    244     1   0.15375 251793.120000
    241    247     1   0.14647 272713.120000
    244    264     1   0.14619 275056.160000
    247    248     1   0.14647 272713.120000
    247    251     1   0.14647 272713.120000
    248    257     1   0.15375 251793.120000
    251    254     1   0.15375 251793.120000
    254    260     1   0.15241 261918.400000
    257    261     1   0.15241 261918.400000
    260    262     1   0.12183 533627.360000
    260    564     1   0.13789 357815.680000
    261    263     1   0.12183 533627.360000
    261    589     1   0.13789 357815.680000
    266    269     1   0.15375 251793.120000
    266    272     1   0.14647 272713.120000
    269    289     1   0.14619 275056.160000
    272    273     1   0.14647 272713.120000
    272    276     1   0.14647 272713.120000
    273    282     1   0.15375 251793.120000
    276    279     1   0.15375 251793.120000
    279    285     1   0.15241 261918.400000
    282    286     1   0.15241 261918.400000
    285    287     1   0.12183 533627.360000
    285    614     1   0.13789 357815.680000
    286    288     1   0.12183 533627.360000
    286    639     1   0.13789 357815.680000
    291    294     1   0.15375 251793.120000
    291    297     1   0.14647 272713.120000
    294    314     1   0.14619 275056.160000
    297    298     1   0.14647 272713.120000
    297    301     1   0.14647 272713.120000
    298    307     1   0.15375 251793.120000
    301    304     1   0.15375 251793.120000
    304    310     1   0.15241 261918.400000
    307    311     1   0.15241 261918.400000
    310    312     1   0.12183 533627.360000
    310    664     1   0.13789 357815.680000
    311    313     1   0.12183 533627.360000
    311    689     1   0.13789 357815.680000
    316    319     1   0.15375 251793.120000
    316    322     1   0.14647 272713.120000
    319    339     1   0.14619 275056.160000
    322    323     1   0.14647 272713.120000
    322    326     1   0.14647 272713.120000
    323    332     1   0.15375 251793.120000
    326    329     1   0.15375 251793.120000
    329    335     1   0.15241 261918.400000
    332    336     1   0.15241 261918.400000
    335    337     1   0.12183 533627.360000
    335    714     1   0.13789 357815.680000
    336    338     1   0.12183 533627.360000
    336    739     1   0.13789 357815.680000
    341    344     1   0.15375 251793.120000
    341    347     1   0.14647 272713.120000
    344    364     1   0.14619 275056.160000
    347    348     1   0.14647 272713.120000
    347    351     1   0.14647 272713.120000
    348    357     1   0.15375 251793.120000
    351    354     1   0.15375 251793.120000
    354    360     1   0.15241 261918.400000
    357    361     1   0.15241 261918.400000
    360    362     1   0.12183 533627.360000
    360    764     1   0.13789 357815.680000
    361    363     1   0.12183 533627.360000
    361    789     1   0.13789 357815.680000
    366    369     1   0.15375 251793.120000
    366    372     1   0.14647 272713.120000
    369    389     1   0.14619 275056.160000
    372    373     1   0.14647 272713.120000
    372    376     1   0.14647 272713.120000
    373    382     1   0.15375 251793.120000
    376    379     1   0.15375 251793.120000
    379    385     1   0.15241 261918.400000
    382    386     1   0.15241 261918.400000
    385    387     1   0.12183 533627.360000
    385    814     1   0.13789 357815.680000
    386    388     1   0.12183 533627.360000
    386    839     1   0.13789 357815.680000
    391    394     1   0.15375 251793.120000
    391    397     1   0.14647 272713.120000
    394    414     1   0.14619 275056.160000
    397    398     1   0.14647 272713.120000
    397    401     1   0.14647 272713.120000
    398    407     1   0.15375 251793.120000
    401    404     1   0.15375 251793.120000
    404    410     1   0.15241 261918.400000
    407    411     1   0.15241 261918.400000
    410    412     1   0.12183 533627.360000
    410    864     1   0.13789 357815.680000
    411    413     1   0.12183 533627.360000
    411    889     1   0.13789 357815.680000
    416    419     1   0.15375 251793.120000
    416    422     1   0.14647 272713.120000
    419    439     1   0.14619 275056.160000
    422    423     1   0.14647 272713.120000
    422    426     1   0.14647 272713.120000
    423    432     1   0.15375 251793.120000
    426    429     1   0.15375 251793.120000
    429    435     1   0.15241 261918.400000
    432    436     1   0.15241 261918.400000
    435    437     1   0.12183 533627.360000
    435    914     1   0.13789 357815.680000
    436    438     1   0.12183 533627.360000
    436    939     1   0.13789 357815.680000
    441    444     1   0.15375 251793.120000
    441    447     1   0.14647 272713.120000
    444    464     1   0.14619 275056.160000
    447    448     1   0.14647 272713.120000
    447    451     1   0.14647 272713.120000
    448    457     1   0.15375 251793.120000
    451    454     1   0.15375 251793.120000
    454    460     1   0.15241 261918.400000
    457    461     1   0.15241 261918.400000
    460    462     1   0.12183 533627.360000
    460    964     1   0.13789 357815.680000
    461    463     1   0.12183 533627.360000
    461    989     1   0.13789 357815.680000
    466    469     1   0.15375 251793.120000
    466    472     1   0.14647 272713.120000
    469    489     1   0.14619 275056.160000
    472    473     1   0.14647 272713.120000
    472    476     1   0.14647 272713.120000
    473    482     1   0.15375 251793.120000
    476    479     1   0.15375 251793.120000
    479    485     1   0.15241 261918.400000
    482    486     1   0.15241 261918.400000
    485    487     1   0.12183 533627.360000
    485   1014     1   0.13789 357815.680000
    486    488     1   0.12183 533627.360000
    486   1039     1   0.13789 357815.680000
    491    494     1   0.15375 251793.120000
    491    497     1   0.14647 272713.120000
    494    514     1   0.14619 275056.160000
    497    498     1   0.14647 272713.120000
    497    501     1   0.14647 272713.120000
    498    507     1   0.15375 251793.120000
    501    504     1   0.15375 251793.120000
    504    510     1   0.15241 261918.400000
    507    511     1   0.15241 261918.400000
    510    512     1   0.12183 533627.360000
    510   1064     1   0.13789 357815.680000
    511    513     1   0.12183 533627.360000
    511   1089     1   0.13789 357815.680000
    516    519     1   0.15375 251793.120000
    516    522     1   0.14647 272713.120000
    519    539     1   0.14619 275056.160000
    522    523     1   0.14647 272713.120000
    522    526     1   0.14647 272713.120000
    523    532     1   0.15375 251793.120000
    526    529     1   0.15375 251793.120000
    529    535     1   0.15241 261918.400000
    532    536     1   0.15241 261918.400000
    535    537     1   0.12183 533627.360000
    535   1114     1   0.13789 357815.680000
    536    538     1   0.12183 533627.360000
    536   1139     1   0.13789 357815.680000
    541    544     1   0.15375 251793.120000
    541    547     1   0.14647 272713.120000
    544    564     1   0.14619 275056.160000
    547    548     1   0.14647 272713.120000
    547    551     1   0.14647 272713.120000
    548    557     1   0.15375 251793.120000
    551    554     1   0.15375 251793.120000
    554    560     1   0.15241 261918.400000
    557    561     1   0.15241 261918.400000
    560    562     1   0.12183 533627.360000
    560   1164     1   0.13789 357815.680000
    561    563     1   0.12183 533627.360000
    561   1189     1   0.13789 357815.680000
    566    569     1   0.15375 251793.120000
    566    572     1   0.14647 272713.120000
    569    589     1   0.14619 275056.160000
    572    573     1   0.14647 272713.120000
    572    576     1   0.14647 272713.120000
    573    582     1   0.15375 251793.120000
    576    579     1   0.15375 251793.120000
    579    585     1   0.15241 261918.400000
    582    586     1   0.15241 261918.400000
    585    587     1   0.12183 533627.360000
    585   1214     1   0.13789 357815.680000
    586    588     1   0.12183 533627.360000
    586   1239     1   0.13789 357815.680000
    591    594     1   0.15375 251793.120000
    591    597     1   0.14647 272713.120000
    594    614     1   0.14619 275056.160000
    597    598     1   0.14647 272713.120000
    597    601     1   0.14647 272713.120000
    598    607     1   0.15375 251793.120000
    601    604     1   0.15375 251793.120000
    604    610     1   0.15241 261918.400000
    607    611     1   0.15241 261918.400000
    610    612     1   0.12183 533627.360000
    610   1264     1   0.13789 357815.680000
    611    613     1   0.12183 533627.360000
    611   1289     1   0.13789 357815.680000
    616    619     1   0.15375 251793.120000
    616    622     1   0.14647 272713.120000
    619    639     1   0.14619 275056.160000
    622    623     1   0.14647 272713.120000
    622    626     1   0.14647 272713.120000
    623    632     1   0.15375 251793.120000
    626    629     1   0.15375 251793.120000
    629    635     1   0.15241 261918.400000
    632    636     1   0.15241 261918.400000
    635    637     1   0.12183 533627.360000
    635   1314     1   0.13789 357815.680000
    636    638     1   0.12183 533627.360000
    636   1339     1   0.13789 357815.680000
    641    644     1   0.15375 251793.120000
    641    647     1   0.14647 272713.120000
    644    664     1   0.14619 275056.160000
    647    648     1   0.14647 272713.120000
    647    651     1   0.14647 272713.120000
    648    657     1   0.15375 251793.120000
    651    654     1   0.15375 251793.120000
    654    660     1   0.15241 261918.400000
    657    661     1   0.15241 261918.400000
    660    662     1   0.12183 533627.360000
    660   1364     1   0.13789 357815.680000
    661    663     1   0.12183 533627.360000
    661   1389     1   0.13789 357815.680000
    666    669     1   0.15375 251793.120000
    666    672     1   0.14647 272713.120000
    669    689     1   0.14619 275056.160000
    672    673     1   0.14647 272713.120000
    672    676     1   0.14647 272713.120000
    673    682     1   0.15375 251793.120000
    676    679     1   0.15375 251793.120000
    679    685     1   0.15241 261918.400000
    682    686     1   0.15241 261918.400000
    685    687     1   0.12183 533627.360000
    685   1414     1   0.13789 357815.680000
    686    688     1   0.12183 533627.360000
    686   1439     1   0.13789 357815.680000
    691    694     1   0.15375 251793.120000
    691    697     1   0.14647 272713.120000
    694    714     1   0.14619 275056.160000
    697    698     1   0.14647 272713.120000
    697    701     1   0.14647 272713.120000
    698    707     1   0.15375 251793.120000
    701    704     1   0.15375 251793.120000
    704    710     1   0.15241 261918.400000
    707    711     1   0.15241 261918.400000
    710    712     1   0.12183 533627.360000
    710   1464     1   0.13789 357815.680000
    711    713     1   0.12183 533627.360000
    711   1489     1   0.13789 357815.680000
    716    719     1   0.15375 251793.120000
    716    722     1   0.14647 272713.120000
    719    739     1   0.14619 275056.160000
    722    723     1   0.14647 272713.120000
    722    726     1   0.14647 272713.120000
    723    732     1   0.15375 251793.120000
    726    729     1   0.15375 251793.120000
    729    735     1   0.15241 261918.400000
    732    736     1   0.15241 261918.400000
    735    737     1   0.12183 533627.360000
    735   1514     1   0.13789 357815.680000
    736    738     1   0.12183 533627.360000
    736   1539     1   0.13789 357815.680000
    741    744     1   0.15375 251793.120000
    741    747     1   0.14647 272713.120000
    744    764     1   0.14619 275056.160000
    747    748     1   0.14647 272713.120000
    747    751     1   0.14647 272713.120000
    748    757     1   0.15375 251793.120000
    751    754     1   0.15375 251793.120000
    754    760     1   0.15241 261918.400000
    757    761     1   0.15241 261918.400000
    760    762     1   0.12183 533627.360000
    760   1564     1   0.13789 357815.680000
    761    763     1   0.12183 533627.360000
    761   1589     1   0.13789 357815.680000
    766    769     1   0.15375 251793.120000
    766    772     1   0.14647 272713.120000
    769    789     1   0.14619 275056.160000
    772    773     1   0.14647 272713.120000
    772    776     1   0.14647 272713.120000
    773    782     1   0.15375 251793.120000
    776    779     1   0.15375 251793.120000
    779    785     1   0.15241 261918.400000
    782    786     1   0.15241 261918.400000
    785    787     1   0.12183 533627.360000
    785   1614     1   0.13789 357815.680000
    786    788     1   0.12183 533627.360000
    786   1639     1   0.13789 357815.680000
    791    794     1   0.15375 251793.120000
    791    797     1   0.14647 272713.120000
    794    814     1   0.14619 275056.160000
    797    798     1   0.14647 272713.120000
    797    801     1   0.14647 272713.120000
    798    807     1   0.15375 251793.120000
    801    804     1   0.15375 251793.120000
    804    810     1   0.15241 261918.400000
    807    811     1   0.15241 261918.400000
    810    812     1   0.12183 533627.360000
    810   1664     1   0.13789 357815.680000
    811    813     1   0.12183 533627.360000
    811   1689     1   0.13789 357815.680000
    816    819     1   0.15375 251793.120000
    816    822     1   0.14647 272713.120000
    819    839     1   0.14619 275056.160000
    822    823     1   0.14647 272713.120000
    822    826     1   0.14647 272713.120000
    823    832     1   0.15375 251793.120000
    826    829     1   0.15375 251793.120000
    829    835     1   0.15241 261918.400000
    832    836     1   0.15241 261918.400000
    835    837     1   0.12183 533627.360000
    835   1714     1   0.13789 357815.680000
    836    838     1   0.12183 533627.360000
    836   1739     1   0.13789 357815.680000
    841    844     1   0.15375 251793.120000
    841    847     1   0.14647 272713.120000
    844    864     1   0.14619 275056.160000
    847    848     1   0.14647 272713.120000
    847    851     1   0.14647 272713.120000
    848    857     1   0.15375 251793.120000
    851    854     1   0.15375 251793.120000
    854    860     1   0.15241 261918.400000
    857    861     1   0.15241 261918.400000
    860    862     1   0.12183 533627.360000
    860   1764     1   0.13789 357815.680000
    861    863     1   0.12183 533627.360000
    861   1789     1   0.13789 357815.680000
    866    869     1   0.15375 251793.120000
    866    872     1   0.14647 272713.120000
    869    889     1   0.14619 275056.160000
    872    873     1   0.14647 272713.120000
    872    876     1   0.14647 272713.120000
    873    882     1   0.15375 251793.120000
    876    879     1   0.15375 251793.120000
    879    885     1   0.15241 261918.400000
    882    886     1   0.15241 261918.400000
    885    887     1   0.12183 533627.360000
    885   1814     1   0.13789 357815.680000
    886    888     1   0.12183 533627.360000
    886   1839     1   0.13789 357815.680000
    891    894     1   0.15375 251793.120000
    891    897     1   0.14647 272713.120000
    894    914     1   0.14619 275056.160000
    897    898     1   0.14647 272713.120000
    897    901     1   0.14647 272713.120000
    898    907     1   0.15375 251793.120000
    901    904     1   0.15375 251793.120000
    904    910     1   0.15241 261918.400000
    907    911     1   0.15241 261918.400000
    910    912     1   0.12183 533627.360000
    910   1864     1   0.13789 357815.680000
    911    913     1   0.12183 533627.360000
    911   1889     1   0.13789 357815.680000
    916    919     1   0.15375 251793.120000
    916    922     1   0.14647 272713.120000
    919    939     1   0.14619 275056.160000
    922    923     1   0.14647 272713.120000
    922    926     1   0.14647 272713.120000
    923    932     1   0.15375 251793.120000
    926    929     1   0.15375 251793.120000
    929    935     1   0.15241 261918.400000
    932    936     1   0.15241 261918.400000
    935    937     1   0.12183 533627.360000
    935   1914     1   0.13789 357815.680000
    936    938     1   0.12183 533627.360000
    936   1939     1   0.13789 357815.680000
    941    944     1   0.15375 251793.120000
    941    947     1   0.14647 272713.120000
    944    964     1   0.14619 275056.160000
    947    948     1   0.14647 272713.120000
    947    951     1   0.14647 272713.120000
    948    957     1   0.15375 251793.120000
    951    954     1   0.15375 251793.120000
    954    960     1   0.15241 261918.400000
    957    961     1   0.15241 261918.400000
    960    962     1   0.12183 533627.360000
    960   1964     1   0.13789 357815.680000
    961    963     1   0.12183 533627.360000
    961   1989     1   0.13789 357815.680000
    966    969     1   0.15375 251793.120000
    966    972     1   0.14647 272713.120000
    969    989     1   0.14619 275056.160000
    972    973     1   0.14647 272713.120000
    972    976     1   0.14647 272713.120000
    973    982     1   0.15375 251793.120000
    976    979     1   0.15375 251793.120000
    979    985     1   0.15241 261918.400000
    982    986     1   0.15241 261918.400000
    985    987     1   0.12183 533627.360000
    985   2014     1   0.13789 357815.680000
    986    988     1   0.12183 533627.360000
    986   2039     1   0.13789 357815.680000
    991    994     1   0.15375 251793.120000
    991    997     1   0.14647 272713.120000
    994   1014     1   0.14619 275056.160000
    997    998     1   0.14647 272713.120000
    997   1001     1   0.14647 272713.120000
    998   1007     1   0.15375 251793.120000
   1001   1004     1   0.15375 251793.120000
   1004   1010     1   0.15241 261918.400000
   1007   1011     1   0.15241 261918.400000
   1010   1012     1   0.12183 533627.360000
   1010   2064     1   0.13789 357815.680000
   1011   1013     1   0.12183 533627.360000
   1011   2089     1   0.13789 357815.680000
   1016   1019     1   0.15375 251793.120000
   1016   1022     1   0.14647 272713.120000
   1019   1039     1   0.14619 275056.160000
   1022   1023     1   0.14647 272713.120000
   1022   1026     1   0.14647 272713.120000
   1023   1032     1   0.15375 251793.120000
   1026   1029     1   0.15375 251793.120000
   1029   1035     1   0.15241 261918.400000
   1032   1036     1   0.15241 261918.400000
   1035   1037     1   0.12183 533627.360000
   1035   2114     1   0.13789 357815.680000
   1036   1038     1   0.12183 533627.360000
   1036   2139     1   0.13789 357815.680000
   1041   1044     1   0.15375 251793.120000
   1041   1047     1   0.14647 272713.120000
   1044   1064     1   0.14619 275056.160000
   1047   1048     1   0.14647 272713.120000
   1047   1051     1   0.14647 272713.120000
   1048   1057     1   0.15375 251793.120000
   1051   1054     1   0.15375 251793.120000
   1054   1060     1   0.15241 261918.400000
   1057   1061     1   0.15241 261918.400000
   1060   1062     1   0.12183 533627.360000
   1060   2164     1   0.13789 357815.680000
   1061   1063     1   0.12183 533627.360000
   1061   2189     1   0.13789 357815.680000
   1066   1069     1   0.15375 251793.120000
   1066   1072     1   0.14647 272713.120000
   1069   1089     1   0.14619 275056.160000
   1072   1073     1   0.14647 272713.120000
   1072   1076     1   0.14647 272713.120000
   1073   1082     1   0.15375 251793.120000
   1076   1079     1   0.15375 251793.120000
   1079   1085     1   0.15241 261918.400000
   1082   1086     1   0.15241 261918.400000
   1085   1087     1   0.12183 533627.360000
   1085   2214     1   0.13789 357815.680000
   1086   1088     1   0.12183 533627.360000
   1086   2239     1   0.13789 357815.680000
   1091   1094     1   0.15375 251793.120000
   1091   1097     1   0.14647 272713.120000
   1094   1114     1   0.14619 275056.160000
   1097   1098     1   0.14647 272713.120000
   1097   1101     1   0.14647 272713.120000
   1098   1107     1   0.15375 251793.120000
   1101   1104     1   0.15375 251793.120000
   1104   1110     1   0.15241 261918.400000
   1107   1111     1   0.15241 261918.400000
   1110   1112     1   0.12183 533627.360000
   1110   2264     1   0.13789 357815.680000
   1111   1113     1   0.12183 533627.360000
   1111   2289     1   0.13789 357815.680000
   1116   1119     1   0.15375 251793.120000
   1116   1122     1   0.14647 272713.120000
   1119   1139     1   0.14619 275056.160000
   1122   1123     1   0.14647 272713.120000
   1122   1126     1   0.14647 272713.120000
   1123   1132     1   0.15375 251793.120000
   1126   1129     1   0.15375 251793.120000
   1129   1135     1   0.15241 261918.400000
   1132   1136     1   0.15241 261918.400000
   1135   1137     1   0.12183 533627.360000
   1135   2314     1   0.13789 357815.680000
   1136   1138     1   0.12183 533627.360000
   1136   2339     1   0.13789 357815.680000
   1141   1144     1   0.15375 251793.120000
   1141   1147     1   0.14647 272713.120000
   1144   1164     1   0.14619 275056.160000
   1147   1148     1   0.14647 272713.120000
   1147   1151     1   0.14647 272713.120000
   1148   1157     1   0.15375 251793.120000
   1151   1154     1   0.15375 251793.120000
   1154   1160     1   0.15241 261918.400000
   1157   1161     1   0.15241 261918.400000
   1160   1162     1   0.12183 533627.360000
   1160   2364     1   0.13789 357815.680000
   1161   1163     1   0.12183 533627.360000
   1161   2389     1   0.13789 357815.680000
   1166   1169     1   0.15375 251793.120000
   1166   1172     1   0.14647 272713.120000
   1169   1189     1   0.14619 275056.160000
   1172   1173     1   0.14647 272713.120000
   1172   1176     1   0.14647 272713.120000
   1173   1182     1   0.15375 251793.120000
   1176   1179     1   0.15375 251793.120000
   1179   1185     1   0.15241 261918.400000
   1182   1186     1   0.15241 261918.400000
   1185   1187     1   0.12183 533627.360000
   1185   2414     1   0.13789 357815.680000
   1186   1188     1   0.12183 533627.360000
   1186   2439     1   0.13789 357815.680000
   1191   1194     1   0.15375 251793.120000
   1191   1197     1   0.14647 272713.120000
   1194   1214     1   0.14619 275056.160000
   1197   1198     1   0.14647 272713.120000
   1197   1201     1   0.14647 272713.120000
   1198   1207     1   0.15375 251793.120000
   1201   1204     1   0.15375 251793.120000
   1204   1210     1   0.15241 261918.400000
   1207   1211     1   0.15241 261918.400000
   1210   1212     1   0.12183 533627.360000
   1210   2464     1   0.13789 357815.680000
   1211   1213     1   0.12183 533627.360000
   1211   2489     1   0.13789 357815.680000
   1216   1219     1   0.15375 251793.120000
   1216   1222     1   0.14647 272713.120000
   1219   1239     1   0.14619 275056.160000
   1222   1223     1   0.14647 272713.120000
   1222   1226     1   0.14647 272713.120000
   1223   1232     1   0.15375 251793.120000
   1226   1229     1   0.15375 251793.120000
   1229   1235     1   0.15241 261918.400000
   1232   1236     1   0.15241 261918.400000
   1235   1237     1   0.12183 533627.360000
   1235   2514     1   0.13789 357815.680000
   1236   1238     1   0.12183 533627.360000
   1236   2539     1   0.13789 357815.680000
   1241   1244     1   0.15375 251793.120000
   1241   1247     1   0.14647 272713.120000
   1244   1264     1   0.14619 275056.160000
   1247   1248     1   0.14647 272713.120000
   1247   1251     1   0.14647 272713.120000
   1248   1257     1   0.15375 251793.120000
   1251   1254     1   0.15375 251793.120000
   1254   1260     1   0.15241 261918.400000
   1257   1261     1   0.15241 261918.400000
   1260   1262     1   0.12183 533627.360000
   1260   2564     1   0.13789 357815.680000
   1261   1263     1   0.12183 533627.360000
   1261   2589     1   0.13789 357815.680000
   1266   1269     1   0.15375 251793.120000
   1266   1272     1   0.14647 272713.120000
   1269   1289     1   0.14619 275056.160000
   1272   1273     1   0.14647 272713.120000
   1272   1276     1   0.14647 272713.120000
   1273   1282     1   0.15375 251793.120000
   1276   1279     1   0.15375 251793.120000
   1279   1285     1   0.15241 261918.400000
   1282   1286     1   0.15241 261918.400000
   1285   1287     1   0.12183 533627.360000
   1285   2614     1   0.13789 357815.680000
   1286   1288     1   0.12183 533627.360000
   1286   2639     1   0.13789 357815.680000
   1291   1294     1   0.15375 251793.120000
   1291   1297     1   0.14647 272713.120000
   1294   1314     1   0.14619 275056.160000
   1297   1298     1   0.14647 272713.120000
   1297   1301     1   0.14647 272713.120000
   1298   1307     1   0.15375 251793.120000
   1301   1304     1   0.15375 251793.120000
   1304   1310     1   0.15241 261918.400000
   1307   1311     1   0.15241 261918.400000
   1310   1312     1   0.12183 533627.360000
   1310   2664     1   0.13789 357815.680000
   1311   1313     1   0.12183 533627.360000
   1311   2689     1   0.13789 357815.680000
   1316   1319     1   0.15375 251793.120000
   1316   1322     1   0.14647 272713.120000
   1319   1339     1   0.14619 275056.160000
   1322   1323     1   0.14647 272713.120000
   1322   1326     1   0.14647 272713.120000
   1323   1332     1   0.15375 251793.120000
   1326   1329     1   0.15375 251793.120000
   1329   1335     1   0.15241 261918.400000
   1332   1336     1   0.15241 261918.400000
   1335   1337     1   0.12183 533627.360000
   1335   2714     1   0.13789 357815.680000
   1336   1338     1   0.12183 533627.360000
   1336   2739     1   0.13789 357815.680000
   1341   1344     1   0.15375 251793.120000
   1341   1347     1   0.14647 272713.120000
   1344   1364     1   0.14619 275056.160000
   1347   1348     1   0.14647 272713.120000
   1347   1351     1   0.14647 272713.120000
   1348   1357     1   0.15375 251793.120000
   1351   1354     1   0.15375 251793.120000
   1354   1360     1   0.15241 261918.400000
   1357   1361     1   0.15241 261918.400000
   1360   1362     1   0.12183 533627.360000
   1360   2764     1   0.13789 357815.680000
   1361   1363     1   0.12183 533627.360000
   1361   2789     1   0.13789 357815.680000
   1366   1369     1   0.15375 251793.120000
   1366   1372     1   0.14647 272713.120000
   1369   1389     1   0.14619 275056.160000
   1372   1373     1   0.14647 272713.120000
   1372   1376     1   0.14647 272713.120000
   1373   1382     1   0.15375 251793.120000
   1376   1379     1   0.15375 251793.120000
   1379   1385     1   0.15241 261918.400000
   1382   1386     1   0.15241 261918.400000
   1385   1387     1   0.12183 533627.360000
   1385   2814     1   0.13789 357815.680000
   1386   1388     1   0.12183 533627.360000
   1386   2839     1   0.13789 357815.680000
   1391   1394     1   0.15375 251793.120000
   1391   1397     1   0.14647 272713.120000
   1394   1414     1   0.14619 275056.160000
   1397   1398     1   0.14647 272713.120000
   1397   1401     1   0.14647 272713.120000
   1398   1407     1   0.15375 251793.120000
   1401   1404     1   0.15375 251793.120000
   1404   1410     1   0.15241 261918.400000
   1407   1411     1   0.15241 261918.400000
   1410   1412     1   0.12183 533627.360000
   1410   2864     1   0.13789 357815.680000
   1411   1413     1   0.12183 533627.360000
   1411   2889     1   0.13789 357815.680000
   1416   1419     1   0.15375 251793.120000
   1416   1422     1   0.14647 272713.120000
   1419   1439     1   0.14619 275056.160000
   1422   1423     1   0.14647 272713.120000
   1422   1426     1   0.14647 272713.120000
   1423   1432     1   0.15375 251793.120000
   1426   1429     1   0.15375 251793.120000
   1429   1435     1   0.15241 261918.400000
   1432   1436     1   0.15241 261918.400000
   1435   1437     1   0.12183 533627.360000
   1435   2914     1   0.13789 357815.680000
   1436   1438     1   0.12183 533627.360000
   1436   2939     1   0.13789 357815.680000
   1441   1444     1   0.15375 251793.120000
   1441   1447     1   0.14647 272713.120000
   1444   1464     1   0.14619 275056.160000
   1447   1448     1   0.14647 272713.120000
   1447   1451     1   0.14647 272713.120000
   1448   1457     1   0.15375 251793.120000
   1451   1454     1   0.15375 251793.120000
   1454   1460     1   0.15241 261918.400000
   1457   1461     1   0.15241 261918.400000
   1460   1462     1   0.12183 533627.360000
   1460   2964     1   0.13789 357815.680000
   1461   1463     1   0.12183 533627.360000
   1461   2989     1   0.13789 357815.680000
   1466   1469     1   0.15375 251793.120000
   1466   1472     1   0.14647 272713.120000
   1469   1489     1   0.14619 275056.160000
   1472   1473     1   0.14647 272713.120000
   1472   1476     1   0.14647 272713.120000
   1473   1482     1   0.15375 251793.120000
   1476   1479     1   0.15375 251793.120000
   1479   1485     1   0.15241 261918.400000
   1482   1486     1   0.15241 261918.400000
   1485   1487     1   0.12183 533627.360000
   1485   3014     1   0.13789 357815.680000
   1486   1488     1   0.12183 533627.360000
   1486   3039     1   0.13789 357815.680000
   1491   1494     1   0.15375 251793.120000
   1491   1497     1   0.14647 272713.120000
   1494   1514     1   0.14619 275056.160000
   1497   1498     1   0.14647 272713.120000
   1497   1501     1   0.14647 272713.120000
   1498   1507     1   0.15375 251793.120000
   1501   1504     1   0.15375 251793.120000
   1504   1510     1   0.15241 261918.400000
   1507   1511     1   0.15241 261918.400000
   1510   1512     1   0.12183 533627.360000
   1510   3064     1   0.13789 357815.680000
   1511   1513     1   0.12183 533627.360000
   1511   3089     1   0.13789 357815.680000
   1516   1519     1   0.15375 251793.120000
   1516   1522     1   0.14647 272713.120000
   1519   1539     1   0.14619 275056.160000
   1522   1523     1   0.14647 272713.120000
   1522   1526     1   0.14647 272713.120000
   1523   1532     1   0.15375 251793.120000
   1526   1529     1   0.15375 251793.120000
   1529   1535     1   0.15241 261918.400000
   1532   1536     1   0.15241 261918.400000
   1535   1537     1   0.12183 533627.360000
   1535   3114     1   0.13789 357815.680000
   1536   1538     1   0.12183 533627.360000
   1536   3139     1   0.13789 357815.680000
   1541   1544     1   0.15375 251793.120000
   1541   1547     1   0.14647 272713.120000
   1544   1564     1   0.14619 275056.160000
   1547   1548     1   0.14647 272713.120000
   1547   1551     1   0.14647 272713.120000
   1548   1557     1   0.15375 251793.120000
   1551   1554     1   0.15375 251793.120000
   1554   1560     1   0.15241 261918.400000
   1557   1561     1   0.15241 261918.400000
   1560   3141     1   0.13789 357815.680000
   1560   1562     1   0.12183 533627.360000
   1561   1563     1   0.12183 533627.360000
   1561   3214     1   0.13789 357815.680000
   1566   1569     1   0.15375 251793.120000
   1566   1572     1   0.14647 272713.120000
   1569   1589     1   0.14619 275056.160000
   1572   1573     1   0.14647 272713.120000
   1572   1576     1   0.14647 272713.120000
   1573   1582     1   0.15375 251793.120000
   1576   1579     1   0.15375 251793.120000
   1579   1585     1   0.15241 261918.400000
   1582   1586     1   0.15241 261918.400000
   1585   3287     1   0.13789 357815.680000
   1585   1587     1   0.12183 533627.360000
   1586   1588     1   0.12183 533627.360000
   1586   3360     1   0.13789 357815.680000
   1591   1594     1   0.15375 251793.120000
   1591   1597     1   0.14647 272713.120000
   1594   1614     1   0.14619 275056.160000
   1597   1598     1   0.14647 272713.120000
   1597   1601     1   0.14647 272713.120000
   1598   1607     1   0.15375 251793.120000
   1601   1604     1   0.15375 251793.120000
   1604   1610     1   0.15241 261918.400000
   1607   1611     1   0.15241 261918.400000
   1610   3433     1   0.13789 357815.680000
   1610   1612     1   0.12183 533627.360000
   1611   1613     1   0.12183 533627.360000
   1611   3506     1   0.13789 357815.680000
   1616   1619     1   0.15375 251793.120000
   1616   1622     1   0.14647 272713.120000
   1619   1639     1   0.14619 275056.160000
   1622   1623     1   0.14647 272713.120000
   1622   1626     1   0.14647 272713.120000
   1623   1632     1   0.15375 251793.120000
   1626   1629     1   0.15375 251793.120000
   1629   1635     1   0.15241 261918.400000
   1632   1636     1   0.15241 261918.400000
   1635   3579     1   0.13789 357815.680000
   1635   1637     1   0.12183 533627.360000
   1636   1638     1   0.12183 533627.360000
   1636   3652     1   0.13789 357815.680000
   1641   1644     1   0.15375 251793.120000
   1641   1647     1   0.14647 272713.120000
   1644   1664     1   0.14619 275056.160000
   1647   1648     1   0.14647 272713.120000
   1647   1651     1   0.14647 272713.120000
   1648   1657     1   0.15375 251793.120000
   1651   1654     1   0.15375 251793.120000
   1654   1660     1   0.15241 261918.400000
   1657   1661     1   0.15241 261918.400000
   1660   3725     1   0.13789 357815.680000
   1660   1662     1   0.12183 533627.360000
   1661   1663     1   0.12183 533627.360000
   1661   3798     1   0.13789 357815.680000
   1666   1669     1   0.15375 251793.120000
   1666   1672     1   0.14647 272713.120000
   1669   1689     1   0.14619 275056.160000
   1672   1673     1   0.14647 272713.120000
   1672   1676     1   0.14647 272713.120000
   1673   1682     1   0.15375 251793.120000
   1676   1679     1   0.15375 251793.120000
   1679   1685     1   0.15241 261918.400000
   1682   1686     1   0.15241 261918.400000
   1685   3871     1   0.13789 357815.680000
   1685   1687     1   0.12183 533627.360000
   1686   1688     1   0.12183 533627.360000
   1686   3944     1   0.13789 357815.680000
   1691   1694     1   0.15375 251793.120000
   1691   1697     1   0.14647 272713.120000
   1694   1714     1   0.14619 275056.160000
   1697   1698     1   0.14647 272713.120000
   1697   1701     1   0.14647 272713.120000
   1698   1707     1   0.15375 251793.120000
   1701   1704     1   0.15375 251793.120000
   1704   1710     1   0.15241 261918.400000
   1707   1711     1   0.15241 261918.400000
   1710   4017     1   0.13789 357815.680000
   1710   1712     1   0.12183 533627.360000
   1711   1713     1   0.12183 533627.360000
   1711   4090     1   0.13789 357815.680000
   1716   1719     1   0.15375 251793.120000
   1716   1722     1   0.14647 272713.120000
   1719   1739     1   0.14619 275056.160000
   1722   1723     1   0.14647 272713.120000
   1722   1726     1   0.14647 272713.120000
   1723   1732     1   0.15375 251793.120000
   1726   1729     1   0.15375 251793.120000
   1729   1735     1   0.15241 261918.400000
   1732   1736     1   0.15241 261918.400000
   1735   4163     1   0.13789 357815.680000
   1735   1737     1   0.12183 533627.360000
   1736   1738     1   0.12183 533627.360000
   1736   4236     1   0.13789 357815.680000
   1741   1744     1   0.15375 251793.120000
   1741   1747     1   0.14647 272713.120000
   1744   1764     1   0.14619 275056.160000
   1747   1748     1   0.14647 272713.120000
   1747   1751     1   0.14647 272713.120000
   1748   1757     1   0.15375 251793.120000
   1751   1754     1   0.15375 251793.120000
   1754   1760     1   0.15241 261918.400000
   1757   1761     1   0.15241 261918.400000
   1760   4309     1   0.13789 357815.680000
   1760   1762     1   0.12183 533627.360000
   1761   1763     1   0.12183 533627.360000
   1761   4382     1   0.13789 357815.680000
   1766   1769     1   0.15375 251793.120000
   1766   1772     1   0.14647 272713.120000
   1769   1789     1   0.14619 275056.160000
   1772   1773     1   0.14647 272713.120000
   1772   1776     1   0.14647 272713.120000
   1773   1782     1   0.15375 251793.120000
   1776   1779     1   0.15375 251793.120000
   1779   1785     1   0.15241 261918.400000
   1782   1786     1   0.15241 261918.400000
   1785   4455     1   0.13789 357815.680000
   1785   1787     1   0.12183 533627.360000
   1786   1788     1   0.12183 533627.360000
   1786   4528     1   0.13789 357815.680000
   1791   1794     1   0.15375 251793.120000
   1791   1797     1   0.14647 272713.120000
   1794   1814     1   0.14619 275056.160000
   1797   1798     1   0.14647 272713.120000
   1797   1801     1   0.14647 272713.120000
   1798   1807     1   0.15375 251793.120000
   1801   1804     1   0.15375 251793.120000
   1804   1810     1   0.15241 261918.400000
   1807   1811     1   0.15241 261918.400000
   1810   4601     1   0.13789 357815.680000
   1810   1812     1   0.12183 533627.360000
   1811   1813     1   0.12183 533627.360000
   1811   4674     1   0.13789 357815.680000
   1816   1819     1   0.15375 251793.120000
   1816   1822     1   0.14647 272713.120000
   1819   1839     1   0.14619 275056.160000
   1822   1823     1   0.14647 272713.120000
   1822   1826     1   0.14647 272713.120000
   1823   1832     1   0.15375 251793.120000
   1826   1829     1   0.15375 251793.120000
   1829   1835     1   0.15241 261918.400000
   1832   1836     1   0.15241 261918.400000
   1835   4747     1   0.13789 357815.680000
   1835   1837     1   0.12183 533627.360000
   1836   1838     1   0.12183 533627.360000
   1836   4820     1   0.13789 357815.680000
   1841   1844     1   0.15375 251793.120000
   1841   1847     1   0.14647 272713.120000
   1844   1864     1   0.14619 275056.160000
   1847   1848     1   0.14647 272713.120000
   1847   1851     1   0.14647 272713.120000
   1848   1857     1   0.15375 251793.120000
   1851   1854     1   0.15375 251793.120000
   1854   1860     1   0.15241 261918.400000
   1857   1861     1   0.15241 261918.400000
   1860   4893     1   0.13789 357815.680000
   1860   1862     1   0.12183 533627.360000
   1861   1863     1   0.12183 533627.360000
   1861   4966     1   0.13789 357815.680000
   1866   1869     1   0.15375 251793.120000
   1866   1872     1   0.14647 272713.120000
   1869   1889     1   0.14619 275056.160000
   1872   1873     1   0.14647 272713.120000
   1872   1876     1   0.14647 272713.120000
   1873   1882     1   0.15375 251793.120000
   1876   1879     1   0.15375 251793.120000
   1879   1885     1   0.15241 261918.400000
   1882   1886     1   0.15241 261918.400000
   1885   5039     1   0.13789 357815.680000
   1885   1887     1   0.12183 533627.360000
   1886   1888     1   0.12183 533627.360000
   1886   5112     1   0.13789 357815.680000
   1891   1894     1   0.15375 251793.120000
   1891   1897     1   0.14647 272713.120000
   1894   1914     1   0.14619 275056.160000
   1897   1898     1   0.14647 272713.120000
   1897   1901     1   0.14647 272713.120000
   1898   1907     1   0.15375 251793.120000
   1901   1904     1   0.15375 251793.120000
   1904   1910     1   0.15241 261918.400000
   1907   1911     1   0.15241 261918.400000
   1910   5185     1   0.13789 357815.680000
   1910   1912     1   0.12183 533627.360000
   1911   1913     1   0.12183 533627.360000
   1911   5258     1   0.13789 357815.680000
   1916   1919     1   0.15375 251793.120000
   1916   1922     1   0.14647 272713.120000
   1919   1939     1   0.14619 275056.160000
   1922   1923     1   0.14647 272713.120000
   1922   1926     1   0.14647 272713.120000
   1923   1932     1   0.15375 251793.120000
   1926   1929     1   0.15375 251793.120000
   1929   1935     1   0.15241 261918.400000
   1932   1936     1   0.15241 261918.400000
   1935   5331     1   0.13789 357815.680000
   1935   1937     1   0.12183 533627.360000
   1936   1938     1   0.12183 533627.360000
   1936   5404     1   0.13789 357815.680000
   1941   1944     1   0.15375 251793.120000
   1941   1947     1   0.14647 272713.120000
   1944   1964     1   0.14619 275056.160000
   1947   1948     1   0.14647 272713.120000
   1947   1951     1   0.14647 272713.120000
   1948   1957     1   0.15375 251793.120000
   1951   1954     1   0.15375 251793.120000
   1954   1960     1   0.15241 261918.400000
   1957   1961     1   0.15241 261918.400000
   1960   5477     1   0.13789 357815.680000
   1960   1962     1   0.12183 533627.360000
   1961   1963     1   0.12183 533627.360000
   1961   5550     1   0.13789 357815.680000
   1966   1969     1   0.15375 251793.120000
   1966   1972     1   0.14647 272713.120000
   1969   1989     1   0.14619 275056.160000
   1972   1973     1   0.14647 272713.120000
   1972   1976     1   0.14647 272713.120000
   1973   1982     1   0.15375 251793.120000
   1976   1979     1   0.15375 251793.120000
   1979   1985     1   0.15241 261918.400000
   1982   1986     1   0.15241 261918.400000
   1985   5623     1   0.13789 357815.680000
   1985   1987     1   0.12183 533627.360000
   1986   1988     1   0.12183 533627.360000
   1986   5696     1   0.13789 357815.680000
   1991   1994     1   0.15375 251793.120000
   1991   1997     1   0.14647 272713.120000
   1994   2014     1   0.14619 275056.160000
   1997   1998     1   0.14647 272713.120000
   1997   2001     1   0.14647 272713.120000
   1998   2007     1   0.15375 251793.120000
   2001   2004     1   0.15375 251793.120000
   2004   2010     1   0.15241 261918.400000
   2007   2011     1   0.15241 261918.400000
   2010   5769     1   0.13789 357815.680000
   2010   2012     1   0.12183 533627.360000
   2011   2013     1   0.12183 533627.360000
   2011   5842     1   0.13789 357815.680000
   2016   2019     1   0.15375 251793.120000
   2016   2022     1   0.14647 272713.120000
   2019   2039     1   0.14619 275056.160000
   2022   2023     1   0.14647 272713.120000
   2022   2026     1   0.14647 272713.120000
   2023   2032     1   0.15375 251793.120000
   2026   2029     1   0.15375 251793.120000
   2029   2035     1   0.15241 261918.400000
   2032   2036     1   0.15241 261918.400000
   2035   5915     1   0.13789 357815.680000
   2035   2037     1   0.12183 533627.360000
   2036   2038     1   0.12183 533627.360000
   2036   5988     1   0.13789 357815.680000
   2041   2044     1   0.15375 251793.120000
   2041   2047     1   0.14647 272713.120000
   2044   2064     1   0.14619 275056.160000
   2047   2048     1   0.14647 272713.120000
   2047   2051     1   0.14647 272713.120000
   2048   2057     1   0.15375 251793.120000
   2051   2054     1   0.15375 251793.120000
   2054   2060     1   0.15241 261918.400000
   2057   2061     1   0.15241 261918.400000
   2060   6061     1   0.13789 357815.680000
   2060   2062     1   0.12183 533627.360000
   2061   2063     1   0.12183 533627.360000
   2061   6134     1   0.13789 357815.680000
   2066   2069     1   0.15375 251793.120000
   2066   2072     1   0.14647 272713.120000
   2069   2089     1   0.14619 275056.160000
   2072   2073     1   0.14647 272713.120000
   2072   2076     1   0.14647 272713.120000
   2073   2082     1   0.15375 251793.120000
   2076   2079     1   0.15375 251793.120000
   2079   2085     1   0.15241 261918.400000
   2082   2086     1   0.15241 261918.400000
   2085   6207     1   0.13789 357815.680000
   2085   2087     1   0.12183 533627.360000
   2086   2088     1   0.12183 533627.360000
   2086   6280     1   0.13789 357815.680000
   2091   2094     1   0.15375 251793.120000
   2091   2097     1   0.14647 272713.120000
   2094   2114     1   0.14619 275056.160000
   2097   2098     1   0.14647 272713.120000
   2097   2101     1   0.14647 272713.120000
   2098   2107     1   0.15375 251793.120000
   2101   2104     1   0.15375 251793.120000
   2104   2110     1   0.15241 261918.400000
   2107   2111     1   0.15241 261918.400000
   2110   6353     1   0.13789 357815.680000
   2110   2112     1   0.12183 533627.360000
   2111   2113     1   0.12183 533627.360000
   2111   6426     1   0.13789 357815.680000
   2116   2119     1   0.15375 251793.120000
   2116   2122     1   0.14647 272713.120000
   2119   2139     1   0.14619 275056.160000
   2122   2123     1   0.14647 272713.120000
   2122   2126     1   0.14647 272713.120000
   2123   2132     1   0.15375 251793.120000
   2126   2129     1   0.15375 251793.120000
   2129   2135     1   0.15241 261918.400000
   2132   2136     1   0.15241 261918.400000
   2135   6499     1   0.13789 357815.680000
   2135   2137     1   0.12183 533627.360000
   2136   2138     1   0.12183 533627.360000
   2136   6572     1   0.13789 357815.680000
   2141   2144     1   0.15375 251793.120000
   2141   2147     1   0.14647 272713.120000
   2144   2164     1   0.14619 275056.160000
   2147   2148     1   0.14647 272713.120000
   2147   2151     1   0.14647 272713.120000
   2148   2157     1   0.15375 251793.120000
   2151   2154     1   0.15375 251793.120000
   2154   2160     1   0.15241 261918.400000
   2157   2161     1   0.15241 261918.400000
   2160   6645     1   0.13789 357815.680000
   2160   2162     1   0.12183 533627.360000
   2161   2163     1   0.12183 533627.360000
   2161   6718     1   0.13789 357815.680000
   2166   2169     1   0.15375 251793.120000
   2166   2172     1   0.14647 272713.120000
   2169   2189     1   0.14619 275056.160000
   2172   2173     1   0.14647 272713.120000
   2172   2176     1   0.14647 272713.120000
   2173   2182     1   0.15375 251793.120000
   2176   2179     1   0.15375 251793.120000
   2179   2185     1   0.15241 261918.400000
   2182   2186     1   0.15241 261918.400000
   2185   6791     1   0.13789 357815.680000
   2185   2187     1   0.12183 533627.360000
   2186   2188     1   0.12183 533627.360000
   2186   6864     1   0.13789 357815.680000
   2191   2194     1   0.15375 251793.120000
   2191   2197     1   0.14647 272713.120000
   2194   2214     1   0.14619 275056.160000
   2197   2198     1   0.14647 272713.120000
   2197   2201     1   0.14647 272713.120000
   2198   2207     1   0.15375 251793.120000
   2201   2204     1   0.15375 251793.120000
   2204   2210     1   0.15241 261918.400000
   2207   2211     1   0.15241 261918.400000
   2210   6937     1   0.13789 357815.680000
   2210   2212     1   0.12183 533627.360000
   2211   2213     1   0.12183 533627.360000
   2211   7010     1   0.13789 357815.680000
   2216   2219     1   0.15375 251793.120000
   2216   2222     1   0.14647 272713.120000
   2219   2239     1   0.14619 275056.160000
   2222   2223     1   0.14647 272713.120000
   2222   2226     1   0.14647 272713.120000
   2223   2232     1   0.15375 251793.120000
   2226   2229     1   0.15375 251793.120000
   2229   2235     1   0.15241 261918.400000
   2232   2236     1   0.15241 261918.400000
   2235   7083     1   0.13789 357815.680000
   2235   2237     1   0.12183 533627.360000
   2236   2238     1   0.12183 533627.360000
   2236   7156     1   0.13789 357815.680000
   2241   2244     1   0.15375 251793.120000
   2241   2247     1   0.14647 272713.120000
   2244   2264     1   0.14619 275056.160000
   2247   2248     1   0.14647 272713.120000
   2247   2251     1   0.14647 272713.120000
   2248   2257     1   0.15375 251793.120000
   2251   2254     1   0.15375 251793.120000
   2254   2260     1   0.15241 261918.400000
   2257   2261     1   0.15241 261918.400000
   2260   7229     1   0.13789 357815.680000
   2260   2262     1   0.12183 533627.360000
   2261   2263     1   0.12183 533627.360000
   2261   7302     1   0.13789 357815.680000
   2266   2269     1   0.15375 251793.120000
   2266   2272     1   0.14647 272713.120000
   2269   2289     1   0.14619 275056.160000
   2272   2273     1   0.14647 272713.120000
   2272   2276     1   0.14647 272713.120000
   2273   2282     1   0.15375 251793.120000
   2276   2279     1   0.15375 251793.120000
   2279   2285     1   0.15241 261918.400000
   2282   2286     1   0.15241 261918.400000
   2285   7375     1   0.13789 357815.680000
   2285   2287     1   0.12183 533627.360000
   2286   2288     1   0.12183 533627.360000
   2286   7448     1   0.13789 357815.680000
   2291   2294     1   0.15375 251793.120000
   2291   2297     1   0.14647 272713.120000
   2294   2314     1   0.14619 275056.160000
   2297   2298     1   0.14647 272713.120000
   2297   2301     1   0.14647 272713.120000
   2298   2307     1   0.15375 251793.120000
   2301   2304     1   0.15375 251793.120000
   2304   2310     1   0.15241 261918.400000
   2307   2311     1   0.15241 261918.400000
   2310   7521     1   0.13789 357815.680000
   2310   2312     1   0.12183 533627.360000
   2311   2313     1   0.12183 533627.360000
   2311   7594     1   0.13789 357815.680000
   2316   2319     1   0.15375 251793.120000
   2316   2322     1   0.14647 272713.120000
   2319   2339     1   0.14619 275056.160000
   2322   2323     1   0.14647 272713.120000
   2322   2326     1   0.14647 272713.120000
   2323   2332     1   0.15375 251793.120000
   2326   2329     1   0.15375 251793.120000
   2329   2335     1   0.15241 261918.400000
   2332   2336     1   0.15241 261918.400000
   2335   7667     1   0.13789 357815.680000
   2335   2337     1   0.12183 533627.360000
   2336   2338     1   0.12183 533627.360000
   2336   7740     1   0.13789 357815.680000
   2341   2344     1   0.15375 251793.120000
   2341   2347     1   0.14647 272713.120000
   2344   2364     1   0.14619 275056.160000
   2347   2348     1   0.14647 272713.120000
   2347   2351     1   0.14647 272713.120000
   2348   2357     1   0.15375 251793.120000
   2351   2354     1   0.15375 251793.120000
   2354   2360     1   0.15241 261918.400000
   2357   2361     1   0.15241 261918.400000
   2360   7813     1   0.13789 357815.680000
   2360   2362     1   0.12183 533627.360000
   2361   2363     1   0.12183 533627.360000
   2361   7886     1   0.13789 357815.680000
   2366   2369     1   0.15375 251793.120000
   2366   2372     1   0.14647 272713.120000
   2369   2389     1   0.14619 275056.160000
   2372   2373     1   0.14647 272713.120000
   2372   2376     1   0.14647 272713.120000
   2373   2382     1   0.15375 251793.120000
   2376   2379     1   0.15375 251793.120000
   2379   2385     1   0.15241 261918.400000
   2382   2386     1   0.15241 261918.400000
   2385   7959     1   0.13789 357815.680000
   2385   2387     1   0.12183 533627.360000
   2386   2388     1   0.12183 533627.360000
   2386   8032     1   0.13789 357815.680000
   2391   2394     1   0.15375 251793.120000
   2391   2397     1   0.14647 272713.120000
   2394   2414     1   0.14619 275056.160000
   2397   2398     1   0.14647 272713.120000
   2397   2401     1   0.14647 272713.120000
   2398   2407     1   0.15375 251793.120000
   2401   2404     1   0.15375 251793.120000
   2404   2410     1   0.15241 261918.400000
   2407   2411     1   0.15241 261918.400000
   2410   8105     1   0.13789 357815.680000
   2410   2412     1   0.12183 533627.360000
   2411   2413     1   0.12183 533627.360000
   2411   8178     1   0.13789 357815.680000
   2416   2419     1   0.15375 251793.120000
   2416   2422     1   0.14647 272713.120000
   2419   2439     1   0.14619 275056.160000
   2422   2423     1   0.14647 272713.120000
   2422   2426     1   0.14647 272713.120000
   2423   2432     1   0.15375 251793.120000
   2426   2429     1   0.15375 251793.120000
   2429   2435     1   0.15241 261918.400000
   2432   2436     1   0.15241 261918.400000
   2435   8251     1   0.13789 357815.680000
   2435   2437     1   0.12183 533627.360000
   2436   2438     1   0.12183 533627.360000
   2436   8324     1   0.13789 357815.680000
   2441   2444     1   0.15375 251793.120000
   2441   2447     1   0.14647 272713.120000
   2444   2464     1   0.14619 275056.160000
   2447   2448     1   0.14647 272713.120000
   2447   2451     1   0.14647 272713.120000
   2448   2457     1   0.15375 251793.120000
   2451   2454     1   0.15375 251793.120000
   2454   2460     1   0.15241 261918.400000
   2457   2461     1   0.15241 261918.400000
   2460   8397     1   0.13789 357815.680000
   2460   2462     1   0.12183 533627.360000
   2461   2463     1   0.12183 533627.360000
   2461   8470     1   0.13789 357815.680000
   2466   2469     1   0.15375 251793.120000
   2466   2472     1   0.14647 272713.120000
   2469   2489     1   0.14619 275056.160000
   2472   2473     1   0.14647 272713.120000
   2472   2476     1   0.14647 272713.120000
   2473   2482     1   0.15375 251793.120000
   2476   2479     1   0.15375 251793.120000
   2479   2485     1   0.15241 261918.400000
   2482   2486     1   0.15241 261918.400000
   2485   8543     1   0.13789 357815.680000
   2485   2487     1   0.12183 533627.360000
   2486   2488     1   0.12183 533627.360000
   2486   8616     1   0.13789 357815.680000
   2491   2494     1   0.15375 251793.120000
   2491   2497     1   0.14647 272713.120000
   2494   2514     1   0.14619 275056.160000
   2497   2498     1   0.14647 272713.120000
   2497   2501     1   0.14647 272713.120000
   2498   2507     1   0.15375 251793.120000
   2501   2504     1   0.15375 251793.120000
   2504   2510     1   0.15241 261918.400000
   2507   2511     1   0.15241 261918.400000
   2510   8689     1   0.13789 357815.680000
   2510   2512     1   0.12183 533627.360000
   2511   2513     1   0.12183 533627.360000
   2511   8762     1   0.13789 357815.680000
   2516   2519     1   0.15375 251793.120000
   2516   2522     1   0.14647 272713.120000
   2519   2539     1   0.14619 275056.160000
   2522   2523     1   0.14647 272713.120000
   2522   2526     1   0.14647 272713.120000
   2523   2532     1   0.15375 251793.120000
   2526   2529     1   0.15375 251793.120000
   2529   2535     1   0.15241 261918.400000
   2532   2536     1   0.15241 261918.400000
   2535   8835     1   0.13789 357815.680000
   2535   2537     1   0.12183 533627.360000
   2536   2538     1   0.12183 533627.360000
   2536   8908     1   0.13789 357815.680000
   2541   2544     1   0.15375 251793.120000
   2541   2547     1   0.14647 272713.120000
   2544   2564     1   0.14619 275056.160000
   2547   2548     1   0.14647 272713.120000
   2547   2551     1   0.14647 272713.120000
   2548   2557     1   0.15375 251793.120000
   2551   2554     1   0.15375 251793.120000
   2554   2560     1   0.15241 261918.400000
   2557   2561     1   0.15241 261918.400000
   2560   8981     1   0.13789 357815.680000
   2560   2562     1   0.12183 533627.360000
   2561   2563     1   0.12183 533627.360000
   2561   9054     1   0.13789 357815.680000
   2566   2569     1   0.15375 251793.120000
   2566   2572     1   0.14647 272713.120000
   2569   2589     1   0.14619 275056.160000
   2572   2573     1   0.14647 272713.120000
   2572   2576     1   0.14647 272713.120000
   2573   2582     1   0.15375 251793.120000
   2576   2579     1   0.15375 251793.120000
   2579   2585     1   0.15241 261918.400000
   2582   2586     1   0.15241 261918.400000
   2585   9127     1   0.13789 357815.680000
   2585   2587     1   0.12183 533627.360000
   2586   2588     1   0.12183 533627.360000
   2586   9200     1   0.13789 357815.680000
   2591   2594     1   0.15375 251793.120000
   2591   2597     1   0.14647 272713.120000
   2594   2614     1   0.14619 275056.160000
   2597   2598     1   0.14647 272713.120000
   2597   2601     1   0.14647 272713.120000
   2598   2607     1   0.15375 251793.120000
   2601   2604     1   0.15375 251793.120000
   2604   2610     1   0.15241 261918.400000
   2607   2611     1   0.15241 261918.400000
   2610   9273     1   0.13789 357815.680000
   2610   2612     1   0.12183 533627.360000
   2611   2613     1   0.12183 533627.360000
   2611   9346     1   0.13789 357815.680000
   2616   2619     1   0.15375 251793.120000
   2616   2622     1   0.14647 272713.120000
   2619   2639     1   0.14619 275056.160000
   2622   2623     1   0.14647 272713.120000
   2622   2626     1   0.14647 272713.120000
   2623   2632     1   0.15375 251793.120000
   2626   2629     1   0.15375 251793.120000
   2629   2635     1   0.15241 261918.400000
   2632   2636     1   0.15241 261918.400000
   2635   9419     1   0.13789 357815.680000
   2635   2637     1   0.12183 533627.360000
   2636   2638     1   0.12183 533627.360000
   2636   9492     1   0.13789 357815.680000
   2641   2644     1   0.15375 251793.120000
   2641   2647     1   0.14647 272713.120000
   2644   2664     1   0.14619 275056.160000
   2647   2648     1   0.14647 272713.120000
   2647   2651     1   0.14647 272713.120000
   2648   2657     1   0.15375 251793.120000
   2651   2654     1   0.15375 251793.120000
   2654   2660     1   0.15241 261918.400000
   2657   2661     1   0.15241 261918.400000
   2660   9565     1   0.13789 357815.680000
   2660   2662     1   0.12183 533627.360000
   2661   2663     1   0.12183 533627.360000
   2661   9638     1   0.13789 357815.680000
   2666   2669     1   0.15375 251793.120000
   2666   2672     1   0.14647 272713.120000
   2669   2689     1   0.14619 275056.160000
   2672   2673     1   0.14647 272713.120000
   2672   2676     1   0.14647 272713.120000
   2673   2682     1   0.15375 251793.120000
   2676   2679     1   0.15375 251793.120000
   2679   2685     1   0.15241 261918.400000
   2682   2686     1   0.15241 261918.400000
   2685   9711     1   0.13789 357815.680000
   2685   2687     1   0.12183 533627.360000
   2686   2688     1   0.12183 533627.360000
   2686   9784     1   0.13789 357815.680000
   2691   2694     1   0.15375 251793.120000
   2691   2697     1   0.14647 272713.120000
   2694   2714     1   0.14619 275056.160000
   2697   2698     1   0.14647 272713.120000
   2697   2701     1   0.14647 272713.120000
   2698   2707     1   0.15375 251793.120000
   2701   2704     1   0.15375 251793.120000
   2704   2710     1   0.15241 261918.400000
   2707   2711     1   0.15241 261918.400000
   2710   9857     1   0.13789 357815.680000
   2710   2712     1   0.12183 533627.360000
   2711   2713     1   0.12183 533627.360000
   2711   9930     1   0.13789 357815.680000
   2716   2719     1   0.15375 251793.120000
   2716   2722     1   0.14647 272713.120000
   2719   2739     1   0.14619 275056.160000
   2722   2723     1   0.14647 272713.120000
   2722   2726     1   0.14647 272713.120000
   2723   2732     1   0.15375 251793.120000
   2726   2729     1   0.15375 251793.120000
   2729   2735     1   0.15241 261918.400000
   2732   2736     1   0.15241 261918.400000
   2735  10003     1   0.13789 357815.680000
   2735   2737     1   0.12183 533627.360000
   2736   2738     1   0.12183 533627.360000
   2736  10076     1   0.13789 357815.680000
   2741   2744     1   0.15375 251793.120000
   2741   2747     1   0.14647 272713.120000
   2744   2764     1   0.14619 275056.160000
   2747   2748     1   0.14647 272713.120000
   2747   2751     1   0.14647 272713.120000
   2748   2757     1   0.15375 251793.120000
   2751   2754     1   0.15375 251793.120000
   2754   2760     1   0.15241 261918.400000
   2757   2761     1   0.15241 261918.400000
   2760  10149     1   0.13789 357815.680000
   2760   2762     1   0.12183 533627.360000
   2761   2763     1   0.12183 533627.360000
   2761  10222     1   0.13789 357815.680000
   2766   2769     1   0.15375 251793.120000
   2766   2772     1   0.14647 272713.120000
   2769   2789     1   0.14619 275056.160000
   2772   2773     1   0.14647 272713.120000
   2772   2776     1   0.14647 272713.120000
   2773   2782     1   0.15375 251793.120000
   2776   2779     1   0.15375 251793.120000
   2779   2785     1   0.15241 261918.400000
   2782   2786     1   0.15241 261918.400000
   2785  10295     1   0.13789 357815.680000
   2785   2787     1   0.12183 533627.360000
   2786   2788     1   0.12183 533627.360000
   2786  10368     1   0.13789 357815.680000
   2791   2794     1   0.15375 251793.120000
   2791   2797     1   0.14647 272713.120000
   2794   2814     1   0.14619 275056.160000
   2797   2798     1   0.14647 272713.120000
   2797   2801     1   0.14647 272713.120000
   2798   2807     1   0.15375 251793.120000
   2801   2804     1   0.15375 251793.120000
   2804   2810     1   0.15241 261918.400000
   2807   2811     1   0.15241 261918.400000
   2810  10441     1   0.13789 357815.680000
   2810   2812     1   0.12183 533627.360000
   2811   2813     1   0.12183 533627.360000
   2811  10514     1   0.13789 357815.680000
   2816   2819     1   0.15375 251793.120000
   2816   2822     1   0.14647 272713.120000
   2819   2839     1   0.14619 275056.160000
   2822   2823     1   0.14647 272713.120000
   2822   2826     1   0.14647 272713.120000
   2823   2832     1   0.15375 251793.120000
   2826   2829     1   0.15375 251793.120000
   2829   2835     1   0.15241 261918.400000
   2832   2836     1   0.15241 261918.400000
   2835  10587     1   0.13789 357815.680000
   2835   2837     1   0.12183 533627.360000
   2836   2838     1   0.12183 533627.360000
   2836  10660     1   0.13789 357815.680000
   2841   2844     1   0.15375 251793.120000
   2841   2847     1   0.14647 272713.120000
   2844   2864     1   0.14619 275056.160000
   2847   2848     1   0.14647 272713.120000
   2847   2851     1   0.14647 272713.120000
   2848   2857     1   0.15375 251793.120000
   2851   2854     1   0.15375 251793.120000
   2854   2860     1   0.15241 261918.400000
   2857   2861     1   0.15241 261918.400000
   2860  10733     1   0.13789 357815.680000
   2860   2862     1   0.12183 533627.360000
   2861   2863     1   0.12183 533627.360000
   2861  10806     1   0.13789 357815.680000
   2866   2869     1   0.15375 251793.120000
   2866   2872     1   0.14647 272713.120000
   2869   2889     1   0.14619 275056.160000
   2872   2873     1   0.14647 272713.120000
   2872   2876     1   0.14647 272713.120000
   2873   2882     1   0.15375 251793.120000
   2876   2879     1   0.15375 251793.120000
   2879   2885     1   0.15241 261918.400000
   2882   2886     1   0.15241 261918.400000
   2885  10879     1   0.13789 357815.680000
   2885   2887     1   0.12183 533627.360000
   2886   2888     1   0.12183 533627.360000
   2886  10952     1   0.13789 357815.680000
   2891   2894     1   0.15375 251793.120000
   2891   2897     1   0.14647 272713.120000
   2894   2914     1   0.14619 275056.160000
   2897   2898     1   0.14647 272713.120000
   2897   2901     1   0.14647 272713.120000
   2898   2907     1   0.15375 251793.120000
   2901   2904     1   0.15375 251793.120000
   2904   2910     1   0.15241 261918.400000
   2907   2911     1   0.15241 261918.400000
   2910  11025     1   0.13789 357815.680000
   2910   2912     1   0.12183 533627.360000
   2911   2913     1   0.12183 533627.360000
   2911  11098     1   0.13789 357815.680000
   2916   2919     1   0.15375 251793.120000
   2916   2922     1   0.14647 272713.120000
   2919   2939     1   0.14619 275056.160000
   2922   2923     1   0.14647 272713.120000
   2922   2926     1   0.14647 272713.120000
   2923   2932     1   0.15375 251793.120000
   2926   2929     1   0.15375 251793.120000
   2929   2935     1   0.15241 261918.400000
   2932   2936     1   0.15241 261918.400000
   2935  11171     1   0.13789 357815.680000
   2935   2937     1   0.12183 533627.360000
   2936   2938     1   0.12183 533627.360000
   2936  11244     1   0.13789 357815.680000
   2941   2944     1   0.15375 251793.120000
   2941   2947     1   0.14647 272713.120000
   2944   2964     1   0.14619 275056.160000
   2947   2948     1   0.14647 272713.120000
   2947   2951     1   0.14647 272713.120000
   2948   2957     1   0.15375 251793.120000
   2951   2954     1   0.15375 251793.120000
   2954   2960     1   0.15241 261918.400000
   2957   2961     1   0.15241 261918.400000
   2960  11317     1   0.13789 357815.680000
   2960   2962     1   0.12183 533627.360000
   2961   2963     1   0.12183 533627.360000
   2961  11390     1   0.13789 357815.680000
   2966   2969     1   0.15375 251793.120000
   2966   2972     1   0.14647 272713.120000
   2969   2989     1   0.14619 275056.160000
   2972   2973     1   0.14647 272713.120000
   2972   2976     1   0.14647 272713.120000
   2973   2982     1   0.15375 251793.120000
   2976   2979     1   0.15375 251793.120000
   2979   2985     1   0.15241 261918.400000
   2982   2986     1   0.15241 261918.400000
   2985  11463     1   0.13789 357815.680000
   2985   2987     1   0.12183 533627.360000
   2986   2988     1   0.12183 533627.360000
   2986  11536     1   0.13789 357815.680000
   2991   2994     1   0.15375 251793.120000
   2991   2997     1   0.14647 272713.120000
   2994   3014     1   0.14619 275056.160000
   2997   2998     1   0.14647 272713.120000
   2997   3001     1   0.14647 272713.120000
   2998   3007     1   0.15375 251793.120000
   3001   3004     1   0.15375 251793.120000
   3004   3010     1   0.15241 261918.400000
   3007   3011     1   0.15241 261918.400000
   3010  11609     1   0.13789 357815.680000
   3010   3012     1   0.12183 533627.360000
   3011   3013     1   0.12183 533627.360000
   3011  11682     1   0.13789 357815.680000
   3016   3019     1   0.15375 251793.120000
   3016   3022     1   0.14647 272713.120000
   3019   3039     1   0.14619 275056.160000
   3022   3023     1   0.14647 272713.120000
   3022   3026     1   0.14647 272713.120000
   3023   3032     1   0.15375 251793.120000
   3026   3029     1   0.15375 251793.120000
   3029   3035     1   0.15241 261918.400000
   3032   3036     1   0.15241 261918.400000
   3035  11755     1   0.13789 357815.680000
   3035   3037     1   0.12183 533627.360000
   3036   3038     1   0.12183 533627.360000
   3036  11828     1   0.13789 357815.680000
   3041   3044     1   0.15375 251793.120000
   3041   3047     1   0.14647 272713.120000
   3044   3064     1   0.14619 275056.160000
   3047   3048     1   0.14647 272713.120000
   3047   3051     1   0.14647 272713.120000
   3048   3057     1   0.15375 251793.120000
   3051   3054     1   0.15375 251793.120000
   3054   3060     1   0.15241 261918.400000
   3057   3061     1   0.15241 261918.400000
   3060  11901     1   0.13789 357815.680000
   3060   3062     1   0.12183 533627.360000
   3061   3063     1   0.12183 533627.360000
   3061  11974     1   0.13789 357815.680000
   3066   3069     1   0.15375 251793.120000
   3066   3072     1   0.14647 272713.120000
   3069   3089     1   0.14619 275056.160000
   3072   3073     1   0.14647 272713.120000
   3072   3076     1   0.14647 272713.120000
   3073   3082     1   0.15375 251793.120000
   3076   3079     1   0.15375 251793.120000
   3079   3085     1   0.15241 261918.400000
   3082   3086     1   0.15241 261918.400000
   3085  12047     1   0.13789 357815.680000
   3085   3087     1   0.12183 533627.360000
   3086   3088     1   0.12183 533627.360000
   3086  12120     1   0.13789 357815.680000
   3091   3094     1   0.15375 251793.120000
   3091   3097     1   0.14647 272713.120000
   3094   3114     1   0.14619 275056.160000
   3097   3098     1   0.14647 272713.120000
   3097   3101     1   0.14647 272713.120000
   3098   3107     1   0.15375 251793.120000
   3101   3104     1   0.15375 251793.120000
   3104   3110     1   0.15241 261918.400000
   3107   3111     1   0.15241 261918.400000
   3110  12193     1   0.13789 357815.680000
   3110   3112     1   0.12183 533627.360000
   3111   3113     1   0.12183 533627.360000
   3111  12266     1   0.13789 357815.680000
   3116   3119     1   0.15375 251793.120000
   3116   3122     1   0.14647 272713.120000
   3119   3139     1   0.14619 275056.160000
   3122   3123     1   0.14647 272713.120000
   3122   3126     1   0.14647 272713.120000
   3123   3132     1   0.15375 251793.120000
   3126   3129     1   0.15375 251793.120000
   3129   3135     1   0.15241 261918.400000
   3132   3136     1   0.15241 261918.400000
   3135  12339     1   0.13789 357815.680000
   3135   3137     1   0.12183 533627.360000
   3136  12412     1   0.13789 357815.680000
   3136   3138     1   0.12183 533627.360000
   3141   3143     1   0.14619 275056.160000
   3143   3145     1   0.15375 251793.120000
   3145   3149     1   0.14647 272713.120000
   3149   3150     1   0.14647 272713.120000
   3149   3151     1   0.14647 272713.120000
   3150   3161     1   0.15375 251793.120000
   3151   3153     1   0.15375 251793.120000
   3153   3157     1   0.15241 261918.400000
   3157   3158     1   0.12183 533627.360000
   3157   3189     1   0.13400 406935.840000
   3161   3164     1   0.15241 261918.400000
   3164   3165     1   0.12183 533627.360000
   3164   3213     1   0.13400 406935.840000
   3166   3167     1   0.15375 251793.120000
   3166   3177     1   0.15375 251793.120000
   3166   3184     1   0.14316 258236.480000
   3167   3169     1   0.15375 251793.120000
   3167   3187     1   0.14233 265014.560000
   3169   3170     1   0.15375 251793.120000
   3169   3176     1   0.14233 265014.560000
   3170   3171     1   0.15375 251793.120000
   3170   3189     1   0.14647 272713.120000
   3171   3175     1   0.14233 265014.560000
   3171   3184     1   0.14316 258236.480000
   3177   3182     1   0.14233 265014.560000
   3190   3191     1   0.15375 251793.120000
   3190   3201     1   0.15375 251793.120000
   3190   3208     1   0.14316 258236.480000
   3191   3193     1   0.15375 251793.120000
   3191   3211     1   0.14233 265014.560000
   3193   3194     1   0.15375 251793.120000
   3193   3200     1   0.14233 265014.560000
   3194   3195     1   0.15375 251793.120000
   3194   3213     1   0.14647 272713.120000
   3195   3199     1   0.14233 265014.560000
   3195   3208     1   0.14316 258236.480000
   3201   3206     1   0.14233 265014.560000
   3214   3216     1   0.14619 275056.160000
   3216   3218     1   0.15375 251793.120000
   3218   3222     1   0.14647 272713.120000
   3222   3223     1   0.14647 272713.120000
   3222   3224     1   0.14647 272713.120000
   3223   3234     1   0.15375 251793.120000
   3224   3226     1   0.15375 251793.120000
   3226   3230     1   0.15241 261918.400000
   3230   3231     1   0.12183 533627.360000
   3230   3262     1   0.13400 406935.840000
   3234   3237     1   0.15241 261918.400000
   3237   3238     1   0.12183 533627.360000
   3237   3286     1   0.13400 406935.840000
   3239   3240     1   0.15375 251793.120000
   3239   3250     1   0.15375 251793.120000
   3239   3257     1   0.14316 258236.480000
   3240   3242     1   0.15375 251793.120000
   3240   3260     1   0.14233 265014.560000
   3242   3243     1   0.15375 251793.120000
   3242   3249     1   0.14233 265014.560000
   3243   3244     1   0.15375 251793.120000
   3243   3262     1   0.14647 272713.120000
   3244   3248     1   0.14233 265014.560000
   3244   3257     1   0.14316 258236.480000
   3250   3255     1   0.14233 265014.560000
   3263   3264     1   0.15375 251793.120000
   3263   3274     1   0.15375 251793.120000
   3263   3281     1   0.14316 258236.480000
   3264   3266     1   0.15375 251793.120000
   3264   3284     1   0.14233 265014.560000
   3266   3267     1   0.15375 251793.120000
   3266   3273     1   0.14233 265014.560000
   3267   3268     1   0.15375 251793.120000
   3267   3286     1   0.14647 272713.120000
   3268   3272     1   0.14233 265014.560000
   3268   3281     1   0.14316 258236.480000
   3274   3279     1   0.14233 265014.560000
   3287   3289     1   0.14619 275056.160000
   3289   3291     1   0.15375 251793.120000
   3291   3295     1   0.14647 272713.120000
   3295   3296     1   0.14647 272713.120000
   3295   3297     1   0.14647 272713.120000
   3296   3307     1   0.15375 251793.120000
   3297   3299     1   0.15375 251793.120000
   3299   3303     1   0.15241 261918.400000
   3303   3304     1   0.12183 533627.360000
   3303   3335     1   0.13400 406935.840000
   3307   3310     1   0.15241 261918.400000
   3310   3311     1   0.12183 533627.360000
   3310   3359     1   0.13400 406935.840000
   3312   3313     1   0.15375 251793.120000
   3312   3323     1   0.15375 251793.120000
   3312   3330     1   0.14316 258236.480000
   3313   3315     1   0.15375 251793.120000
   3313   3333     1   0.14233 265014.560000
   3315   3316     1   0.15375 251793.120000
   3315   3322     1   0.14233 265014.560000
   3316   3317     1   0.15375 251793.120000
   3316   3335     1   0.14647 272713.120000
   3317   3321     1   0.14233 265014.560000
   3317   3330     1   0.14316 258236.480000
   3323   3328     1   0.14233 265014.560000
   3336   3337     1   0.15375 251793.120000
   3336   3347     1   0.15375 251793.120000
   3336   3354     1   0.14316 258236.480000
   3337   3339     1   0.15375 251793.120000
   3337   3357     1   0.14233 265014.560000
   3339   3340     1   0.15375 251793.120000
   3339   3346     1   0.14233 265014.560000
   3340   3341     1   0.15375 251793.120000
   3340   3359     1   0.14647 272713.120000
   3341   3345     1   0.14233 265014.560000
   3341   3354     1   0.14316 258236.480000
   3347   3352     1   0.14233 265014.560000
   3360   3362     1   0.14619 275056.160000
   3362   3364     1   0.15375 251793.120000
   3364   3368     1   0.14647 272713.120000
   3368   3369     1   0.14647 272713.120000
   3368   3370     1   0.14647 272713.120000
   3369   3380     1   0.15375 251793.120000
   3370   3372     1   0.15375 251793.120000
   3372   3376     1   0.15241 261918.400000
   3376   3377     1   0.12183 533627.360000
   3376   3408     1   0.13400 406935.840000
   3380   3383     1   0.15241 261918.400000
   3383   3384     1   0.12183 533627.360000
   3383   3432     1   0.13400 406935.840000
   3385   3386     1   0.15375 251793.120000
   3385   3396     1   0.15375 251793.120000
   3385   3403     1   0.14316 258236.480000
   3386   3388     1   0.15375 251793.120000
   3386   3406     1   0.14233 265014.560000
   3388   3389     1   0.15375 251793.120000
   3388   3395     1   0.14233 265014.560000
   3389   3390     1   0.15375 251793.120000
   3389   3408     1   0.14647 272713.120000
   3390   3394     1   0.14233 265014.560000
   3390   3403     1   0.14316 258236.480000
   3396   3401     1   0.14233 265014.560000
   3409   3410     1   0.15375 251793.120000
   3409   3420     1   0.15375 251793.120000
   3409   3427     1   0.14316 258236.480000
   3410   3412     1   0.15375 251793.120000
   3410   3430     1   0.14233 265014.560000
   3412   3413     1   0.15375 251793.120000
   3412   3419     1   0.14233 265014.560000
   3413   3414     1   0.15375 251793.120000
   3413   3432     1   0.14647 272713.120000
   3414   3418     1   0.14233 265014.560000
   3414   3427     1   0.14316 258236.480000
   3420   3425     1   0.14233 265014.560000
   3433   3435     1   0.14619 275056.160000
   3435   3437     1   0.15375 251793.120000
   3437   3441     1   0.14647 272713.120000
   3441   3442     1   0.14647 272713.120000
   3441   3443     1   0.14647 272713.120000
   3442   3453     1   0.15375 251793.120000
   3443   3445     1   0.15375 251793.120000
   3445   3449     1   0.15241 261918.400000
   3449   3450     1   0.12183 533627.360000
   3449   3481     1   0.13400 406935.840000
   3453   3456     1   0.15241 261918.400000
   3456   3457     1   0.12183 533627.360000
   3456   3505     1   0.13400 406935.840000
   3458   3459     1   0.15375 251793.120000
   3458   3469     1   0.15375 251793.120000
   3458   3476     1   0.14316 258236.480000
   3459   3461     1   0.15375 251793.120000
   3459   3479     1   0.14233 265014.560000
   3461   3462     1   0.15375 251793.120000
   3461   3468     1   0.14233 265014.560000
   3462   3463     1   0.15375 251793.120000
   3462   3481     1   0.14647 272713.120000
   3463   3467     1   0.14233 265014.560000
   3463   3476     1   0.14316 258236.480000
   3469   3474     1   0.14233 265014.560000
   3482   3483     1   0.15375 251793.120000
   3482   3493     1   0.15375 251793.120000
   3482   3500     1   0.14316 258236.480000
   3483   3485     1   0.15375 251793.120000
   3483   3503     1   0.14233 265014.560000
   3485   3486     1   0.15375 251793.120000
   3485   3492     1   0.14233 265014.560000
   3486   3487     1   0.15375 251793.120000
   3486   3505     1   0.14647 272713.120000
   3487   3491     1   0.14233 265014.560000
   3487   3500     1   0.14316 258236.480000
   3493   3498     1   0.14233 265014.560000
   3506   3508     1   0.14619 275056.160000
   3508   3510     1   0.15375 251793.120000
   3510   3514     1   0.14647 272713.120000
   3514   3515     1   0.14647 272713.120000
   3514   3516     1   0.14647 272713.120000
   3515   3526     1   0.15375 251793.120000
   3516   3518     1   0.15375 251793.120000
   3518   3522     1   0.15241 261918.400000
   3522   3523     1   0.12183 533627.360000
   3522   3554     1   0.13400 406935.840000
   3526   3529     1   0.15241 261918.400000
   3529   3530     1   0.12183 533627.360000
   3529   3578     1   0.13400 406935.840000
   3531   3532     1   0.15375 251793.120000
   3531   3542     1   0.15375 251793.120000
   3531   3549     1   0.14316 258236.480000
   3532   3534     1   0.15375 251793.120000
   3532   3552     1   0.14233 265014.560000
   3534   3535     1   0.15375 251793.120000
   3534   3541     1   0.14233 265014.560000
   3535   3536     1   0.15375 251793.120000
   3535   3554     1   0.14647 272713.120000
   3536   3540     1   0.14233 265014.560000
   3536   3549     1   0.14316 258236.480000
   3542   3547     1   0.14233 265014.560000
   3555   3556     1   0.15375 251793.120000
   3555   3566     1   0.15375 251793.120000
   3555   3573     1   0.14316 258236.480000
   3556   3558     1   0.15375 251793.120000
   3556   3576     1   0.14233 265014.560000
   3558   3559     1   0.15375 251793.120000
   3558   3565     1   0.14233 265014.560000
   3559   3560     1   0.15375 251793.120000
   3559   3578     1   0.14647 272713.120000
   3560   3564     1   0.14233 265014.560000
   3560   3573     1   0.14316 258236.480000
   3566   3571     1   0.14233 265014.560000
   3579   3581     1   0.14619 275056.160000
   3581   3583     1   0.15375 251793.120000
   3583   3587     1   0.14647 272713.120000
   3587   3588     1   0.14647 272713.120000
   3587   3589     1   0.14647 272713.120000
   3588   3599     1   0.15375 251793.120000
   3589   3591     1   0.15375 251793.120000
   3591   3595     1   0.15241 261918.400000
   3595   3596     1   0.12183 533627.360000
   3595   3627     1   0.13400 406935.840000
   3599   3602     1   0.15241 261918.400000
   3602   3603     1   0.12183 533627.360000
   3602   3651     1   0.13400 406935.840000
   3604   3605     1   0.15375 251793.120000
   3604   3615     1   0.15375 251793.120000
   3604   3622     1   0.14316 258236.480000
   3605   3607     1   0.15375 251793.120000
   3605   3625     1   0.14233 265014.560000
   3607   3608     1   0.15375 251793.120000
   3607   3614     1   0.14233 265014.560000
   3608   3609     1   0.15375 251793.120000
   3608   3627     1   0.14647 272713.120000
   3609   3613     1   0.14233 265014.560000
   3609   3622     1   0.14316 258236.480000
   3615   3620     1   0.14233 265014.560000
   3628   3629     1   0.15375 251793.120000
   3628   3639     1   0.15375 251793.120000
   3628   3646     1   0.14316 258236.480000
   3629   3631     1   0.15375 251793.120000
   3629   3649     1   0.14233 265014.560000
   3631   3632     1   0.15375 251793.120000
   3631   3638     1   0.14233 265014.560000
   3632   3633     1   0.15375 251793.120000
   3632   3651     1   0.14647 272713.120000
   3633   3637     1   0.14233 265014.560000
   3633   3646     1   0.14316 258236.480000
   3639   3644     1   0.14233 265014.560000
   3652   3654     1   0.14619 275056.160000
   3654   3656     1   0.15375 251793.120000
   3656   3660     1   0.14647 272713.120000
   3660   3661     1   0.14647 272713.120000
   3660   3662     1   0.14647 272713.120000
   3661   3672     1   0.15375 251793.120000
   3662   3664     1   0.15375 251793.120000
   3664   3668     1   0.15241 261918.400000
   3668   3669     1   0.12183 533627.360000
   3668   3700     1   0.13400 406935.840000
   3672   3675     1   0.15241 261918.400000
   3675   3676     1   0.12183 533627.360000
   3675   3724     1   0.13400 406935.840000
   3677   3678     1   0.15375 251793.120000
   3677   3688     1   0.15375 251793.120000
   3677   3695     1   0.14316 258236.480000
   3678   3680     1   0.15375 251793.120000
   3678   3698     1   0.14233 265014.560000
   3680   3681     1   0.15375 251793.120000
   3680   3687     1   0.14233 265014.560000
   3681   3682     1   0.15375 251793.120000
   3681   3700     1   0.14647 272713.120000
   3682   3686     1   0.14233 265014.560000
   3682   3695     1   0.14316 258236.480000
   3688   3693     1   0.14233 265014.560000
   3701   3702     1   0.15375 251793.120000
   3701   3712     1   0.15375 251793.120000
   3701   3719     1   0.14316 258236.480000
   3702   3704     1   0.15375 251793.120000
   3702   3722     1   0.14233 265014.560000
   3704   3705     1   0.15375 251793.120000
   3704   3711     1   0.14233 265014.560000
   3705   3706     1   0.15375 251793.120000
   3705   3724     1   0.14647 272713.120000
   3706   3710     1   0.14233 265014.560000
   3706   3719     1   0.14316 258236.480000
   3712   3717     1   0.14233 265014.560000
   3725   3727     1   0.14619 275056.160000
   3727   3729     1   0.15375 251793.120000
   3729   3733     1   0.14647 272713.120000
   3733   3734     1   0.14647 272713.120000
   3733   3735     1   0.14647 272713.120000
   3734   3745     1   0.15375 251793.120000
   3735   3737     1   0.15375 251793.120000
   3737   3741     1   0.15241 261918.400000
   3741   3742     1   0.12183 533627.360000
   3741   3773     1   0.13400 406935.840000
   3745   3748     1   0.15241 261918.400000
   3748   3749     1   0.12183 533627.360000
   3748   3797     1   0.13400 406935.840000
   3750   3751     1   0.15375 251793.120000
   3750   3761     1   0.15375 251793.120000
   3750   3768     1   0.14316 258236.480000
   3751   3753     1   0.15375 251793.120000
   3751   3771     1   0.14233 265014.560000
   3753   3754     1   0.15375 251793.120000
   3753   3760     1   0.14233 265014.560000
   3754   3755     1   0.15375 251793.120000
   3754   3773     1   0.14647 272713.120000
   3755   3759     1   0.14233 265014.560000
   3755   3768     1   0.14316 258236.480000
   3761   3766     1   0.14233 265014.560000
   3774   3775     1   0.15375 251793.120000
   3774   3785     1   0.15375 251793.120000
   3774   3792     1   0.14316 258236.480000
   3775   3777     1   0.15375 251793.120000
   3775   3795     1   0.14233 265014.560000
   3777   3778     1   0.15375 251793.120000
   3777   3784     1   0.14233 265014.560000
   3778   3779     1   0.15375 251793.120000
   3778   3797     1   0.14647 272713.120000
   3779   3783     1   0.14233 265014.560000
   3779   3792     1   0.14316 258236.480000
   3785   3790     1   0.14233 265014.560000
   3798   3800     1   0.14619 275056.160000
   3800   3802     1   0.15375 251793.120000
   3802   3806     1   0.14647 272713.120000
   3806   3807     1   0.14647 272713.120000
   3806   3808     1   0.14647 272713.120000
   3807   3818     1   0.15375 251793.120000
   3808   3810     1   0.15375 251793.120000
   3810   3814     1   0.15241 261918.400000
   3814   3815     1   0.12183 533627.360000
   3814   3846     1   0.13400 406935.840000
   3818   3821     1   0.15241 261918.400000
   3821   3822     1   0.12183 533627.360000
   3821   3870     1   0.13400 406935.840000
   3823   3824     1   0.15375 251793.120000
   3823   3834     1   0.15375 251793.120000
   3823   3841     1   0.14316 258236.480000
   3824   3826     1   0.15375 251793.120000
   3824   3844     1   0.14233 265014.560000
   3826   3827     1   0.15375 251793.120000
   3826   3833     1   0.14233 265014.560000
   3827   3828     1   0.15375 251793.120000
   3827   3846     1   0.14647 272713.120000
   3828   3832     1   0.14233 265014.560000
   3828   3841     1   0.14316 258236.480000
   3834   3839     1   0.14233 265014.560000
   3847   3848     1   0.15375 251793.120000
   3847   3858     1   0.15375 251793.120000
   3847   3865     1   0.14316 258236.480000
   3848   3850     1   0.15375 251793.120000
   3848   3868     1   0.14233 265014.560000
   3850   3851     1   0.15375 251793.120000
   3850   3857     1   0.14233 265014.560000
   3851   3852     1   0.15375 251793.120000
   3851   3870     1   0.14647 272713.120000
   3852   3856     1   0.14233 265014.560000
   3852   3865     1   0.14316 258236.480000
   3858   3863     1   0.14233 265014.560000
   3871   3873     1   0.14619 275056.160000
   3873   3875     1   0.15375 251793.120000
   3875   3879     1   0.14647 272713.120000
   3879   3880     1   0.14647 272713.120000
   3879   3881     1   0.14647 272713.120000
   3880   3891     1   0.15375 251793.120000
   3881   3883     1   0.15375 251793.120000
   3883   3887     1   0.15241 261918.400000
   3887   3888     1   0.12183 533627.360000
   3887   3919     1   0.13400 406935.840000
   3891   3894     1   0.15241 261918.400000
   3894   3895     1   0.12183 533627.360000
   3894   3943     1   0.13400 406935.840000
   3896   3897     1   0.15375 251793.120000
   3896   3907     1   0.15375 251793.120000
   3896   3914     1   0.14316 258236.480000
   3897   3899     1   0.15375 251793.120000
   3897   3917     1   0.14233 265014.560000
   3899   3900     1   0.15375 251793.120000
   3899   3906     1   0.14233 265014.560000
   3900   3901     1   0.15375 251793.120000
   3900   3919     1   0.14647 272713.120000
   3901   3905     1   0.14233 265014.560000
   3901   3914     1   0.14316 258236.480000
   3907   3912     1   0.14233 265014.560000
   3920   3921     1   0.15375 251793.120000
   3920   3931     1   0.15375 251793.120000
   3920   3938     1   0.14316 258236.480000
   3921   3923     1   0.15375 251793.120000
   3921   3941     1   0.14233 265014.560000
   3923   3924     1   0.15375 251793.120000
   3923   3930     1   0.14233 265014.560000
   3924   3925     1   0.15375 251793.120000
   3924   3943     1   0.14647 272713.120000
   3925   3929     1   0.14233 265014.560000
   3925   3938     1   0.14316 258236.480000
   3931   3936     1   0.14233 265014.560000
   3944   3946     1   0.14619 275056.160000
   3946   3948     1   0.15375 251793.120000
   3948   3952     1   0.14647 272713.120000
   3952   3953     1   0.14647 272713.120000
   3952   3954     1   0.14647 272713.120000
   3953   3964     1   0.15375 251793.120000
   3954   3956     1   0.15375 251793.120000
   3956   3960     1   0.15241 261918.400000
   3960   3961     1   0.12183 533627.360000
   3960   3992     1   0.13400 406935.840000
   3964   3967     1   0.15241 261918.400000
   3967   3968     1   0.12183 533627.360000
   3967   4016     1   0.13400 406935.840000
   3969   3970     1   0.15375 251793.120000
   3969   3980     1   0.15375 251793.120000
   3969   3987     1   0.14316 258236.480000
   3970   3972     1   0.15375 251793.120000
   3970   3990     1   0.14233 265014.560000
   3972   3973     1   0.15375 251793.120000
   3972   3979     1   0.14233 265014.560000
   3973   3974     1   0.15375 251793.120000
   3973   3992     1   0.14647 272713.120000
   3974   3978     1   0.14233 265014.560000
   3974   3987     1   0.14316 258236.480000
   3980   3985     1   0.14233 265014.560000
   3993   3994     1   0.15375 251793.120000
   3993   4004     1   0.15375 251793.120000
   3993   4011     1   0.14316 258236.480000
   3994   3996     1   0.15375 251793.120000
   3994   4014     1   0.14233 265014.560000
   3996   3997     1   0.15375 251793.120000
   3996   4003     1   0.14233 265014.560000
   3997   3998     1   0.15375 251793.120000
   3997   4016     1   0.14647 272713.120000
   3998   4002     1   0.14233 265014.560000
   3998   4011     1   0.14316 258236.480000
   4004   4009     1   0.14233 265014.560000
   4017   4019     1   0.14619 275056.160000
   4019   4021     1   0.15375 251793.120000
   4021   4025     1   0.14647 272713.120000
   4025   4026     1   0.14647 272713.120000
   4025   4027     1   0.14647 272713.120000
   4026   4037     1   0.15375 251793.120000
   4027   4029     1   0.15375 251793.120000
   4029   4033     1   0.15241 261918.400000
   4033   4034     1   0.12183 533627.360000
   4033   4065     1   0.13400 406935.840000
   4037   4040     1   0.15241 261918.400000
   4040   4041     1   0.12183 533627.360000
   4040   4089     1   0.13400 406935.840000
   4042   4043     1   0.15375 251793.120000
   4042   4053     1   0.15375 251793.120000
   4042   4060     1   0.14316 258236.480000
   4043   4045     1   0.15375 251793.120000
   4043   4063     1   0.14233 265014.560000
   4045   4046     1   0.15375 251793.120000
   4045   4052     1   0.14233 265014.560000
   4046   4047     1   0.15375 251793.120000
   4046   4065     1   0.14647 272713.120000
   4047   4051     1   0.14233 265014.560000
   4047   4060     1   0.14316 258236.480000
   4053   4058     1   0.14233 265014.560000
   4066   4067     1   0.15375 251793.120000
   4066   4077     1   0.15375 251793.120000
   4066   4084     1   0.14316 258236.480000
   4067   4069     1   0.15375 251793.120000
   4067   4087     1   0.14233 265014.560000
   4069   4070     1   0.15375 251793.120000
   4069   4076     1   0.14233 265014.560000
   4070   4071     1   0.15375 251793.120000
   4070   4089     1   0.14647 272713.120000
   4071   4075     1   0.14233 265014.560000
   4071   4084     1   0.14316 258236.480000
   4077   4082     1   0.14233 265014.560000
   4090   4092     1   0.14619 275056.160000
   4092   4094     1   0.15375 251793.120000
   4094   4098     1   0.14647 272713.120000
   4098   4099     1   0.14647 272713.120000
   4098   4100     1   0.14647 272713.120000
   4099   4110     1   0.15375 251793.120000
   4100   4102     1   0.15375 251793.120000
   4102   4106     1   0.15241 261918.400000
   4106   4107     1   0.12183 533627.360000
   4106   4138     1   0.13400 406935.840000
   4110   4113     1   0.15241 261918.400000
   4113   4114     1   0.12183 533627.360000
   4113   4162     1   0.13400 406935.840000
   4115   4116     1   0.15375 251793.120000
   4115   4126     1   0.15375 251793.120000
   4115   4133     1   0.14316 258236.480000
   4116   4118     1   0.15375 251793.120000
   4116   4136     1   0.14233 265014.560000
   4118   4119     1   0.15375 251793.120000
   4118   4125     1   0.14233 265014.560000
   4119   4120     1   0.15375 251793.120000
   4119   4138     1   0.14647 272713.120000
   4120   4124     1   0.14233 265014.560000
   4120   4133     1   0.14316 258236.480000
   4126   4131     1   0.14233 265014.560000
   4139   4140     1   0.15375 251793.120000
   4139   4150     1   0.15375 251793.120000
   4139   4157     1   0.14316 258236.480000
   4140   4142     1   0.15375 251793.120000
   4140   4160     1   0.14233 265014.560000
   4142   4143     1   0.15375 251793.120000
   4142   4149     1   0.14233 265014.560000
   4143   4144     1   0.15375 251793.120000
   4143   4162     1   0.14647 272713.120000
   4144   4148     1   0.14233 265014.560000
   4144   4157     1   0.14316 258236.480000
   4150   4155     1   0.14233 265014.560000
   4163   4165     1   0.14619 275056.160000
   4165   4167     1   0.15375 251793.120000
   4167   4171     1   0.14647 272713.120000
   4171   4172     1   0.14647 272713.120000
   4171   4173     1   0.14647 272713.120000
   4172   4183     1   0.15375 251793.120000
   4173   4175     1   0.15375 251793.120000
   4175   4179     1   0.15241 261918.400000
   4179   4180     1   0.12183 533627.360000
   4179   4211     1   0.13400 406935.840000
   4183   4186     1   0.15241 261918.400000
   4186   4187     1   0.12183 533627.360000
   4186   4235     1   0.13400 406935.840000
   4188   4189     1   0.15375 251793.120000
   4188   4199     1   0.15375 251793.120000
   4188   4206     1   0.14316 258236.480000
   4189   4191     1   0.15375 251793.120000
   4189   4209     1   0.14233 265014.560000
   4191   4192     1   0.15375 251793.120000
   4191   4198     1   0.14233 265014.560000
   4192   4193     1   0.15375 251793.120000
   4192   4211     1   0.14647 272713.120000
   4193   4197     1   0.14233 265014.560000
   4193   4206     1   0.14316 258236.480000
   4199   4204     1   0.14233 265014.560000
   4212   4213     1   0.15375 251793.120000
   4212   4223     1   0.15375 251793.120000
   4212   4230     1   0.14316 258236.480000
   4213   4215     1   0.15375 251793.120000
   4213   4233     1   0.14233 265014.560000
   4215   4216     1   0.15375 251793.120000
   4215   4222     1   0.14233 265014.560000
   4216   4217     1   0.15375 251793.120000
   4216   4235     1   0.14647 272713.120000
   4217   4221     1   0.14233 265014.560000
   4217   4230     1   0.14316 258236.480000
   4223   4228     1   0.14233 265014.560000
   4236   4238     1   0.14619 275056.160000
   4238   4240     1   0.15375 251793.120000
   4240   4244     1   0.14647 272713.120000
   4244   4245     1   0.14647 272713.120000
   4244   4246     1   0.14647 272713.120000
   4245   4256     1   0.15375 251793.120000
   4246   4248     1   0.15375 251793.120000
   4248   4252     1   0.15241 261918.400000
   4252   4253     1   0.12183 533627.360000
   4252   4284     1   0.13400 406935.840000
   4256   4259     1   0.15241 261918.400000
   4259   4260     1   0.12183 533627.360000
   4259   4308     1   0.13400 406935.840000
   4261   4262     1   0.15375 251793.120000
   4261   4272     1   0.15375 251793.120000
   4261   4279     1   0.14316 258236.480000
   4262   4264     1   0.15375 251793.120000
   4262   4282     1   0.14233 265014.560000
   4264   4265     1   0.15375 251793.120000
   4264   4271     1   0.14233 265014.560000
   4265   4266     1   0.15375 251793.120000
   4265   4284     1   0.14647 272713.120000
   4266   4270     1   0.14233 265014.560000
   4266   4279     1   0.14316 258236.480000
   4272   4277     1   0.14233 265014.560000
   4285   4286     1   0.15375 251793.120000
   4285   4296     1   0.15375 251793.120000
   4285   4303     1   0.14316 258236.480000
   4286   4288     1   0.15375 251793.120000
   4286   4306     1   0.14233 265014.560000
   4288   4289     1   0.15375 251793.120000
   4288   4295     1   0.14233 265014.560000
   4289   4290     1   0.15375 251793.120000
   4289   4308     1   0.14647 272713.120000
   4290   4294     1   0.14233 265014.560000
   4290   4303     1   0.14316 258236.480000
   4296   4301     1   0.14233 265014.560000
   4309   4311     1   0.14619 275056.160000
   4311   4313     1   0.15375 251793.120000
   4313   4317     1   0.14647 272713.120000
   4317   4318     1   0.14647 272713.120000
   4317   4319     1   0.14647 272713.120000
   4318   4329     1   0.15375 251793.120000
   4319   4321     1   0.15375 251793.120000
   4321   4325     1   0.15241 261918.400000
   4325   4326     1   0.12183 533627.360000
   4325   4357     1   0.13400 406935.840000
   4329   4332     1   0.15241 261918.400000
   4332   4333     1   0.12183 533627.360000
   4332   4381     1   0.13400 406935.840000
   4334   4335     1   0.15375 251793.120000
   4334   4345     1   0.15375 251793.120000
   4334   4352     1   0.14316 258236.480000
   4335   4337     1   0.15375 251793.120000
   4335   4355     1   0.14233 265014.560000
   4337   4338     1   0.15375 251793.120000
   4337   4344     1   0.14233 265014.560000
   4338   4339     1   0.15375 251793.120000
   4338   4357     1   0.14647 272713.120000
   4339   4343     1   0.14233 265014.560000
   4339   4352     1   0.14316 258236.480000
   4345   4350     1   0.14233 265014.560000
   4358   4359     1   0.15375 251793.120000
   4358   4369     1   0.15375 251793.120000
   4358   4376     1   0.14316 258236.480000
   4359   4361     1   0.15375 251793.120000
   4359   4379     1   0.14233 265014.560000
   4361   4362     1   0.15375 251793.120000
   4361   4368     1   0.14233 265014.560000
   4362   4363     1   0.15375 251793.120000
   4362   4381     1   0.14647 272713.120000
   4363   4367     1   0.14233 265014.560000
   4363   4376     1   0.14316 258236.480000
   4369   4374     1   0.14233 265014.560000
   4382   4384     1   0.14619 275056.160000
   4384   4386     1   0.15375 251793.120000
   4386   4390     1   0.14647 272713.120000
   4390   4391     1   0.14647 272713.120000
   4390   4392     1   0.14647 272713.120000
   4391   4402     1   0.15375 251793.120000
   4392   4394     1   0.15375 251793.120000
   4394   4398     1   0.15241 261918.400000
   4398   4399     1   0.12183 533627.360000
   4398   4430     1   0.13400 406935.840000
   4402   4405     1   0.15241 261918.400000
   4405   4406     1   0.12183 533627.360000
   4405   4454     1   0.13400 406935.840000
   4407   4408     1   0.15375 251793.120000
   4407   4418     1   0.15375 251793.120000
   4407   4425     1   0.14316 258236.480000
   4408   4410     1   0.15375 251793.120000
   4408   4428     1   0.14233 265014.560000
   4410   4411     1   0.15375 251793.120000
   4410   4417     1   0.14233 265014.560000
   4411   4412     1   0.15375 251793.120000
   4411   4430     1   0.14647 272713.120000
   4412   4416     1   0.14233 265014.560000
   4412   4425     1   0.14316 258236.480000
   4418   4423     1   0.14233 265014.560000
   4431   4432     1   0.15375 251793.120000
   4431   4442     1   0.15375 251793.120000
   4431   4449     1   0.14316 258236.480000
   4432   4434     1   0.15375 251793.120000
   4432   4452     1   0.14233 265014.560000
   4434   4435     1   0.15375 251793.120000
   4434   4441     1   0.14233 265014.560000
   4435   4436     1   0.15375 251793.120000
   4435   4454     1   0.14647 272713.120000
   4436   4440     1   0.14233 265014.560000
   4436   4449     1   0.14316 258236.480000
   4442   4447     1   0.14233 265014.560000
   4455   4457     1   0.14619 275056.160000
   4457   4459     1   0.15375 251793.120000
   4459   4463     1   0.14647 272713.120000
   4463   4464     1   0.14647 272713.120000
   4463   4465     1   0.14647 272713.120000
   4464   4475     1   0.15375 251793.120000
   4465   4467     1   0.15375 251793.120000
   4467   4471     1   0.15241 261918.400000
   4471   4472     1   0.12183 533627.360000
   4471   4503     1   0.13400 406935.840000
   4475   4478     1   0.15241 261918.400000
   4478   4479     1   0.12183 533627.360000
   4478   4527     1   0.13400 406935.840000
   4480   4481     1   0.15375 251793.120000
   4480   4491     1   0.15375 251793.120000
   4480   4498     1   0.14316 258236.480000
   4481   4483     1   0.15375 251793.120000
   4481   4501     1   0.14233 265014.560000
   4483   4484     1   0.15375 251793.120000
   4483   4490     1   0.14233 265014.560000
   4484   4485     1   0.15375 251793.120000
   4484   4503     1   0.14647 272713.120000
   4485   4489     1   0.14233 265014.560000
   4485   4498     1   0.14316 258236.480000
   4491   4496     1   0.14233 265014.560000
   4504   4505     1   0.15375 251793.120000
   4504   4515     1   0.15375 251793.120000
   4504   4522     1   0.14316 258236.480000
   4505   4507     1   0.15375 251793.120000
   4505   4525     1   0.14233 265014.560000
   4507   4508     1   0.15375 251793.120000
   4507   4514     1   0.14233 265014.560000
   4508   4509     1   0.15375 251793.120000
   4508   4527     1   0.14647 272713.120000
   4509   4513     1   0.14233 265014.560000
   4509   4522     1   0.14316 258236.480000
   4515   4520     1   0.14233 265014.560000
   4528   4530     1   0.14619 275056.160000
   4530   4532     1   0.15375 251793.120000
   4532   4536     1   0.14647 272713.120000
   4536   4537     1   0.14647 272713.120000
   4536   4538     1   0.14647 272713.120000
   4537   4548     1   0.15375 251793.120000
   4538   4540     1   0.15375 251793.120000
   4540   4544     1   0.15241 261918.400000
   4544   4545     1   0.12183 533627.360000
   4544   4576     1   0.13400 406935.840000
   4548   4551     1   0.15241 261918.400000
   4551   4552     1   0.12183 533627.360000
   4551   4600     1   0.13400 406935.840000
   4553   4554     1   0.15375 251793.120000
   4553   4564     1   0.15375 251793.120000
   4553   4571     1   0.14316 258236.480000
   4554   4556     1   0.15375 251793.120000
   4554   4574     1   0.14233 265014.560000
   4556   4557     1   0.15375 251793.120000
   4556   4563     1   0.14233 265014.560000
   4557   4558     1   0.15375 251793.120000
   4557   4576     1   0.14647 272713.120000
   4558   4562     1   0.14233 265014.560000
   4558   4571     1   0.14316 258236.480000
   4564   4569     1   0.14233 265014.560000
   4577   4578     1   0.15375 251793.120000
   4577   4588     1   0.15375 251793.120000
   4577   4595     1   0.14316 258236.480000
   4578   4580     1   0.15375 251793.120000
   4578   4598     1   0.14233 265014.560000
   4580   4581     1   0.15375 251793.120000
   4580   4587     1   0.14233 265014.560000
   4581   4582     1   0.15375 251793.120000
   4581   4600     1   0.14647 272713.120000
   4582   4586     1   0.14233 265014.560000
   4582   4595     1   0.14316 258236.480000
   4588   4593     1   0.14233 265014.560000
   4601   4603     1   0.14619 275056.160000
   4603   4605     1   0.15375 251793.120000
   4605   4609     1   0.14647 272713.120000
   4609   4610     1   0.14647 272713.120000
   4609   4611     1   0.14647 272713.120000
   4610   4621     1   0.15375 251793.120000
   4611   4613     1   0.15375 251793.120000
   4613   4617     1   0.15241 261918.400000
   4617   4618     1   0.12183 533627.360000
   4617   4649     1   0.13400 406935.840000
   4621   4624     1   0.15241 261918.400000
   4624   4625     1   0.12183 533627.360000
   4624   4673     1   0.13400 406935.840000
   4626   4627     1   0.15375 251793.120000
   4626   4637     1   0.15375 251793.120000
   4626   4644     1   0.14316 258236.480000
   4627   4629     1   0.15375 251793.120000
   4627   4647     1   0.14233 265014.560000
   4629   4630     1   0.15375 251793.120000
   4629   4636     1   0.14233 265014.560000
   4630   4631     1   0.15375 251793.120000
   4630   4649     1   0.14647 272713.120000
   4631   4635     1   0.14233 265014.560000
   4631   4644     1   0.14316 258236.480000
   4637   4642     1   0.14233 265014.560000
   4650   4651     1   0.15375 251793.120000
   4650   4661     1   0.15375 251793.120000
   4650   4668     1   0.14316 258236.480000
   4651   4653     1   0.15375 251793.120000
   4651   4671     1   0.14233 265014.560000
   4653   4654     1   0.15375 251793.120000
   4653   4660     1   0.14233 265014.560000
   4654   4655     1   0.15375 251793.120000
   4654   4673     1   0.14647 272713.120000
   4655   4659     1   0.14233 265014.560000
   4655   4668     1   0.14316 258236.480000
   4661   4666     1   0.14233 265014.560000
   4674   4676     1   0.14619 275056.160000
   4676   4678     1   0.15375 251793.120000
   4678   4682     1   0.14647 272713.120000
   4682   4683     1   0.14647 272713.120000
   4682   4684     1   0.14647 272713.120000
   4683   4694     1   0.15375 251793.120000
   4684   4686     1   0.15375 251793.120000
   4686   4690     1   0.15241 261918.400000
   4690   4691     1   0.12183 533627.360000
   4690   4722     1   0.13400 406935.840000
   4694   4697     1   0.15241 261918.400000
   4697   4698     1   0.12183 533627.360000
   4697   4746     1   0.13400 406935.840000
   4699   4700     1   0.15375 251793.120000
   4699   4710     1   0.15375 251793.120000
   4699   4717     1   0.14316 258236.480000
   4700   4702     1   0.15375 251793.120000
   4700   4720     1   0.14233 265014.560000
   4702   4703     1   0.15375 251793.120000
   4702   4709     1   0.14233 265014.560000
   4703   4704     1   0.15375 251793.120000
   4703   4722     1   0.14647 272713.120000
   4704   4708     1   0.14233 265014.560000
   4704   4717     1   0.14316 258236.480000
   4710   4715     1   0.14233 265014.560000
   4723   4724     1   0.15375 251793.120000
   4723   4734     1   0.15375 251793.120000
   4723   4741     1   0.14316 258236.480000
   4724   4726     1   0.15375 251793.120000
   4724   4744     1   0.14233 265014.560000
   4726   4727     1   0.15375 251793.120000
   4726   4733     1   0.14233 265014.560000
   4727   4728     1   0.15375 251793.120000
   4727   4746     1   0.14647 272713.120000
   4728   4732     1   0.14233 265014.560000
   4728   4741     1   0.14316 258236.480000
   4734   4739     1   0.14233 265014.560000
   4747   4749     1   0.14619 275056.160000
   4749   4751     1   0.15375 251793.120000
   4751   4755     1   0.14647 272713.120000
   4755   4756     1   0.14647 272713.120000
   4755   4757     1   0.14647 272713.120000
   4756   4767     1   0.15375 251793.120000
   4757   4759     1   0.15375 251793.120000
   4759   4763     1   0.15241 261918.400000
   4763   4764     1   0.12183 533627.360000
   4763   4795     1   0.13400 406935.840000
   4767   4770     1   0.15241 261918.400000
   4770   4771     1   0.12183 533627.360000
   4770   4819     1   0.13400 406935.840000
   4772   4773     1   0.15375 251793.120000
   4772   4783     1   0.15375 251793.120000
   4772   4790     1   0.14316 258236.480000
   4773   4775     1   0.15375 251793.120000
   4773   4793     1   0.14233 265014.560000
   4775   4776     1   0.15375 251793.120000
   4775   4782     1   0.14233 265014.560000
   4776   4777     1   0.15375 251793.120000
   4776   4795     1   0.14647 272713.120000
   4777   4781     1   0.14233 265014.560000
   4777   4790     1   0.14316 258236.480000
   4783   4788     1   0.14233 265014.560000
   4796   4797     1   0.15375 251793.120000
   4796   4807     1   0.15375 251793.120000
   4796   4814     1   0.14316 258236.480000
   4797   4799     1   0.15375 251793.120000
   4797   4817     1   0.14233 265014.560000
   4799   4800     1   0.15375 251793.120000
   4799   4806     1   0.14233 265014.560000
   4800   4801     1   0.15375 251793.120000
   4800   4819     1   0.14647 272713.120000
   4801   4805     1   0.14233 265014.560000
   4801   4814     1   0.14316 258236.480000
   4807   4812     1   0.14233 265014.560000
   4820   4822     1   0.14619 275056.160000
   4822   4824     1   0.15375 251793.120000
   4824   4828     1   0.14647 272713.120000
   4828   4829     1   0.14647 272713.120000
   4828   4830     1   0.14647 272713.120000
   4829   4840     1   0.15375 251793.120000
   4830   4832     1   0.15375 251793.120000
   4832   4836     1   0.15241 261918.400000
   4836   4837     1   0.12183 533627.360000
   4836   4868     1   0.13400 406935.840000
   4840   4843     1   0.15241 261918.400000
   4843   4844     1   0.12183 533627.360000
   4843   4892     1   0.13400 406935.840000
   4845   4846     1   0.15375 251793.120000
   4845   4856     1   0.15375 251793.120000
   4845   4863     1   0.14316 258236.480000
   4846   4848     1   0.15375 251793.120000
   4846   4866     1   0.14233 265014.560000
   4848   4849     1   0.15375 251793.120000
   4848   4855     1   0.14233 265014.560000
   4849   4850     1   0.15375 251793.120000
   4849   4868     1   0.14647 272713.120000
   4850   4854     1   0.14233 265014.560000
   4850   4863     1   0.14316 258236.480000
   4856   4861     1   0.14233 265014.560000
   4869   4870     1   0.15375 251793.120000
   4869   4880     1   0.15375 251793.120000
   4869   4887     1   0.14316 258236.480000
   4870   4872     1   0.15375 251793.120000
   4870   4890     1   0.14233 265014.560000
   4872   4873     1   0.15375 251793.120000
   4872   4879     1   0.14233 265014.560000
   4873   4874     1   0.15375 251793.120000
   4873   4892     1   0.14647 272713.120000
   4874   4878     1   0.14233 265014.560000
   4874   4887     1   0.14316 258236.480000
   4880   4885     1   0.14233 265014.560000
   4893   4895     1   0.14619 275056.160000
   4895   4897     1   0.15375 251793.120000
   4897   4901     1   0.14647 272713.120000
   4901   4902     1   0.14647 272713.120000
   4901   4903     1   0.14647 272713.120000
   4902   4913     1   0.15375 251793.120000
   4903   4905     1   0.15375 251793.120000
   4905   4909     1   0.15241 261918.400000
   4909   4910     1   0.12183 533627.360000
   4909   4941     1   0.13400 406935.840000
   4913   4916     1   0.15241 261918.400000
   4916   4917     1   0.12183 533627.360000
   4916   4965     1   0.13400 406935.840000
   4918   4919     1   0.15375 251793.120000
   4918   4929     1   0.15375 251793.120000
   4918   4936     1   0.14316 258236.480000
   4919   4921     1   0.15375 251793.120000
   4919   4939     1   0.14233 265014.560000
   4921   4922     1   0.15375 251793.120000
   4921   4928     1   0.14233 265014.560000
   4922   4923     1   0.15375 251793.120000
   4922   4941     1   0.14647 272713.120000
   4923   4927     1   0.14233 265014.560000
   4923   4936     1   0.14316 258236.480000
   4929   4934     1   0.14233 265014.560000
   4942   4943     1   0.15375 251793.120000
   4942   4953     1   0.15375 251793.120000
   4942   4960     1   0.14316 258236.480000
   4943   4945     1   0.15375 251793.120000
   4943   4963     1   0.14233 265014.560000
   4945   4946     1   0.15375 251793.120000
   4945   4952     1   0.14233 265014.560000
   4946   4947     1   0.15375 251793.120000
   4946   4965     1   0.14647 272713.120000
   4947   4951     1   0.14233 265014.560000
   4947   4960     1   0.14316 258236.480000
   4953   4958     1   0.14233 265014.560000
   4966   4968     1   0.14619 275056.160000
   4968   4970     1   0.15375 251793.120000
   4970   4974     1   0.14647 272713.120000
   4974   4975     1   0.14647 272713.120000
   4974   4976     1   0.14647 272713.120000
   4975   4986     1   0.15375 251793.120000
   4976   4978     1   0.15375 251793.120000
   4978   4982     1   0.15241 261918.400000
   4982   4983     1   0.12183 533627.360000
   4982   5014     1   0.13400 406935.840000
   4986   4989     1   0.15241 261918.400000
   4989   4990     1   0.12183 533627.360000
   4989   5038     1   0.13400 406935.840000
   4991   4992     1   0.15375 251793.120000
   4991   5002     1   0.15375 251793.120000
   4991   5009     1   0.14316 258236.480000
   4992   4994     1   0.15375 251793.120000
   4992   5012     1   0.14233 265014.560000
   4994   4995     1   0.15375 251793.120000
   4994   5001     1   0.14233 265014.560000
   4995   4996     1   0.15375 251793.120000
   4995   5014     1   0.14647 272713.120000
   4996   5000     1   0.14233 265014.560000
   4996   5009     1   0.14316 258236.480000
   5002   5007     1   0.14233 265014.560000
   5015   5016     1   0.15375 251793.120000
   5015   5026     1   0.15375 251793.120000
   5015   5033     1   0.14316 258236.480000
   5016   5018     1   0.15375 251793.120000
   5016   5036     1   0.14233 265014.560000
   5018   5019     1   0.15375 251793.120000
   5018   5025     1   0.14233 265014.560000
   5019   5020     1   0.15375 251793.120000
   5019   5038     1   0.14647 272713.120000
   5020   5024     1   0.14233 265014.560000
   5020   5033     1   0.14316 258236.480000
   5026   5031     1   0.14233 265014.560000
   5039   5041     1   0.14619 275056.160000
   5041   5043     1   0.15375 251793.120000
   5043   5047     1   0.14647 272713.120000
   5047   5048     1   0.14647 272713.120000
   5047   5049     1   0.14647 272713.120000
   5048   5059     1   0.15375 251793.120000
   5049   5051     1   0.15375 251793.120000
   5051   5055     1   0.15241 261918.400000
   5055   5056     1   0.12183 533627.360000
   5055   5087     1   0.13400 406935.840000
   5059   5062     1   0.15241 261918.400000
   5062   5063     1   0.12183 533627.360000
   5062   5111     1   0.13400 406935.840000
   5064   5065     1   0.15375 251793.120000
   5064   5075     1   0.15375 251793.120000
   5064   5082     1   0.14316 258236.480000
   5065   5067     1   0.15375 251793.120000
   5065   5085     1   0.14233 265014.560000
   5067   5068     1   0.15375 251793.120000
   5067   5074     1   0.14233 265014.560000
   5068   5069     1   0.15375 251793.120000
   5068   5087     1   0.14647 272713.120000
   5069   5073     1   0.14233 265014.560000
   5069   5082     1   0.14316 258236.480000
   5075   5080     1   0.14233 265014.560000
   5088   5089     1   0.15375 251793.120000
   5088   5099     1   0.15375 251793.120000
   5088   5106     1   0.14316 258236.480000
   5089   5091     1   0.15375 251793.120000
   5089   5109     1   0.14233 265014.560000
   5091   5092     1   0.15375 251793.120000
   5091   5098     1   0.14233 265014.560000
   5092   5093     1   0.15375 251793.120000
   5092   5111     1   0.14647 272713.120000
   5093   5097     1   0.14233 265014.560000
   5093   5106     1   0.14316 258236.480000
   5099   5104     1   0.14233 265014.560000
   5112   5114     1   0.14619 275056.160000
   5114   5116     1   0.15375 251793.120000
   5116   5120     1   0.14647 272713.120000
   5120   5121     1   0.14647 272713.120000
   5120   5122     1   0.14647 272713.120000
   5121   5132     1   0.15375 251793.120000
   5122   5124     1   0.15375 251793.120000
   5124   5128     1   0.15241 261918.400000
   5128   5129     1   0.12183 533627.360000
   5128   5160     1   0.13400 406935.840000
   5132   5135     1   0.15241 261918.400000
   5135   5136     1   0.12183 533627.360000
   5135   5184     1   0.13400 406935.840000
   5137   5138     1   0.15375 251793.120000
   5137   5148     1   0.15375 251793.120000
   5137   5155     1   0.14316 258236.480000
   5138   5140     1   0.15375 251793.120000
   5138   5158     1   0.14233 265014.560000
   5140   5141     1   0.15375 251793.120000
   5140   5147     1   0.14233 265014.560000
   5141   5142     1   0.15375 251793.120000
   5141   5160     1   0.14647 272713.120000
   5142   5146     1   0.14233 265014.560000
   5142   5155     1   0.14316 258236.480000
   5148   5153     1   0.14233 265014.560000
   5161   5162     1   0.15375 251793.120000
   5161   5172     1   0.15375 251793.120000
   5161   5179     1   0.14316 258236.480000
   5162   5164     1   0.15375 251793.120000
   5162   5182     1   0.14233 265014.560000
   5164   5165     1   0.15375 251793.120000
   5164   5171     1   0.14233 265014.560000
   5165   5166     1   0.15375 251793.120000
   5165   5184     1   0.14647 272713.120000
   5166   5170     1   0.14233 265014.560000
   5166   5179     1   0.14316 258236.480000
   5172   5177     1   0.14233 265014.560000
   5185   5187     1   0.14619 275056.160000
   5187   5189     1   0.15375 251793.120000
   5189   5193     1   0.14647 272713.120000
   5193   5194     1   0.14647 272713.120000
   5193   5195     1   0.14647 272713.120000
   5194   5205     1   0.15375 251793.120000
   5195   5197     1   0.15375 251793.120000
   5197   5201     1   0.15241 261918.400000
   5201   5202     1   0.12183 533627.360000
   5201   5233     1   0.13400 406935.840000
   5205   5208     1   0.15241 261918.400000
   5208   5209     1   0.12183 533627.360000
   5208   5257     1   0.13400 406935.840000
   5210   5211     1   0.15375 251793.120000
   5210   5221     1   0.15375 251793.120000
   5210   5228     1   0.14316 258236.480000
   5211   5213     1   0.15375 251793.120000
   5211   5231     1   0.14233 265014.560000
   5213   5214     1   0.15375 251793.120000
   5213   5220     1   0.14233 265014.560000
   5214   5215     1   0.15375 251793.120000
   5214   5233     1   0.14647 272713.120000
   5215   5219     1   0.14233 265014.560000
   5215   5228     1   0.14316 258236.480000
   5221   5226     1   0.14233 265014.560000
   5234   5235     1   0.15375 251793.120000
   5234   5245     1   0.15375 251793.120000
   5234   5252     1   0.14316 258236.480000
   5235   5237     1   0.15375 251793.120000
   5235   5255     1   0.14233 265014.560000
   5237   5238     1   0.15375 251793.120000
   5237   5244     1   0.14233 265014.560000
   5238   5239     1   0.15375 251793.120000
   5238   5257     1   0.14647 272713.120000
   5239   5243     1   0.14233 265014.560000
   5239   5252     1   0.14316 258236.480000
   5245   5250     1   0.14233 265014.560000
   5258   5260     1   0.14619 275056.160000
   5260   5262     1   0.15375 251793.120000
   5262   5266     1   0.14647 272713.120000
   5266   5267     1   0.14647 272713.120000
   5266   5268     1   0.14647 272713.120000
   5267   5278     1   0.15375 251793.120000
   5268   5270     1   0.15375 251793.120000
   5270   5274     1   0.15241 261918.400000
   5274   5275     1   0.12183 533627.360000
   5274   5306     1   0.13400 406935.840000
   5278   5281     1   0.15241 261918.400000
   5281   5282     1   0.12183 533627.360000
   5281   5330     1   0.13400 406935.840000
   5283   5284     1   0.15375 251793.120000
   5283   5294     1   0.15375 251793.120000
   5283   5301     1   0.14316 258236.480000
   5284   5286     1   0.15375 251793.120000
   5284   5304     1   0.14233 265014.560000
   5286   5287     1   0.15375 251793.120000
   5286   5293     1   0.14233 265014.560000
   5287   5288     1   0.15375 251793.120000
   5287   5306     1   0.14647 272713.120000
   5288   5292     1   0.14233 265014.560000
   5288   5301     1   0.14316 258236.480000
   5294   5299     1   0.14233 265014.560000
   5307   5308     1   0.15375 251793.120000
   5307   5318     1   0.15375 251793.120000
   5307   5325     1   0.14316 258236.480000
   5308   5310     1   0.15375 251793.120000
   5308   5328     1   0.14233 265014.560000
   5310   5311     1   0.15375 251793.120000
   5310   5317     1   0.14233 265014.560000
   5311   5312     1   0.15375 251793.120000
   5311   5330     1   0.14647 272713.120000
   5312   5316     1   0.14233 265014.560000
   5312   5325     1   0.14316 258236.480000
   5318   5323     1   0.14233 265014.560000
   5331   5333     1   0.14619 275056.160000
   5333   5335     1   0.15375 251793.120000
   5335   5339     1   0.14647 272713.120000
   5339   5340     1   0.14647 272713.120000
   5339   5341     1   0.14647 272713.120000
   5340   5351     1   0.15375 251793.120000
   5341   5343     1   0.15375 251793.120000
   5343   5347     1   0.15241 261918.400000
   5347   5348     1   0.12183 533627.360000
   5347   5379     1   0.13400 406935.840000
   5351   5354     1   0.15241 261918.400000
   5354   5355     1   0.12183 533627.360000
   5354   5403     1   0.13400 406935.840000
   5356   5357     1   0.15375 251793.120000
   5356   5367     1   0.15375 251793.120000
   5356   5374     1   0.14316 258236.480000
   5357   5359     1   0.15375 251793.120000
   5357   5377     1   0.14233 265014.560000
   5359   5360     1   0.15375 251793.120000
   5359   5366     1   0.14233 265014.560000
   5360   5361     1   0.15375 251793.120000
   5360   5379     1   0.14647 272713.120000
   5361   5365     1   0.14233 265014.560000
   5361   5374     1   0.14316 258236.480000
   5367   5372     1   0.14233 265014.560000
   5380   5381     1   0.15375 251793.120000
   5380   5391     1   0.15375 251793.120000
   5380   5398     1   0.14316 258236.480000
   5381   5383     1   0.15375 251793.120000
   5381   5401     1   0.14233 265014.560000
   5383   5384     1   0.15375 251793.120000
   5383   5390     1   0.14233 265014.560000
   5384   5385     1   0.15375 251793.120000
   5384   5403     1   0.14647 272713.120000
   5385   5389     1   0.14233 265014.560000
   5385   5398     1   0.14316 258236.480000
   5391   5396     1   0.14233 265014.560000
   5404   5406     1   0.14619 275056.160000
   5406   5408     1   0.15375 251793.120000
   5408   5412     1   0.14647 272713.120000
   5412   5413     1   0.14647 272713.120000
   5412   5414     1   0.14647 272713.120000
   5413   5424     1   0.15375 251793.120000
   5414   5416     1   0.15375 251793.120000
   5416   5420     1   0.15241 261918.400000
   5420   5421     1   0.12183 533627.360000
   5420   5452     1   0.13400 406935.840000
   5424   5427     1   0.15241 261918.400000
   5427   5428     1   0.12183 533627.360000
   5427   5476     1   0.13400 406935.840000
   5429   5430     1   0.15375 251793.120000
   5429   5440     1   0.15375 251793.120000
   5429   5447     1   0.14316 258236.480000
   5430   5432     1   0.15375 251793.120000
   5430   5450     1   0.14233 265014.560000
   5432   5433     1   0.15375 251793.120000
   5432   5439     1   0.14233 265014.560000
   5433   5434     1   0.15375 251793.120000
   5433   5452     1   0.14647 272713.120000
   5434   5438     1   0.14233 265014.560000
   5434   5447     1   0.14316 258236.480000
   5440   5445     1   0.14233 265014.560000
   5453   5454     1   0.15375 251793.120000
   5453   5464     1   0.15375 251793.120000
   5453   5471     1   0.14316 258236.480000
   5454   5456     1   0.15375 251793.120000
   5454   5474     1   0.14233 265014.560000
   5456   5457     1   0.15375 251793.120000
   5456   5463     1   0.14233 265014.560000
   5457   5458     1   0.15375 251793.120000
   5457   5476     1   0.14647 272713.120000
   5458   5462     1   0.14233 265014.560000
   5458   5471     1   0.14316 258236.480000
   5464   5469     1   0.14233 265014.560000
   5477   5479     1   0.14619 275056.160000
   5479   5481     1   0.15375 251793.120000
   5481   5485     1   0.14647 272713.120000
   5485   5486     1   0.14647 272713.120000
   5485   5487     1   0.14647 272713.120000
   5486   5497     1   0.15375 251793.120000
   5487   5489     1   0.15375 251793.120000
   5489   5493     1   0.15241 261918.400000
   5493   5494     1   0.12183 533627.360000
   5493   5525     1   0.13400 406935.840000
   5497   5500     1   0.15241 261918.400000
   5500   5501     1   0.12183 533627.360000
   5500   5549     1   0.13400 406935.840000
   5502   5503     1   0.15375 251793.120000
   5502   5513     1   0.15375 251793.120000
   5502   5520     1   0.14316 258236.480000
   5503   5505     1   0.15375 251793.120000
   5503   5523     1   0.14233 265014.560000
   5505   5506     1   0.15375 251793.120000
   5505   5512     1   0.14233 265014.560000
   5506   5507     1   0.15375 251793.120000
   5506   5525     1   0.14647 272713.120000
   5507   5511     1   0.14233 265014.560000
   5507   5520     1   0.14316 258236.480000
   5513   5518     1   0.14233 265014.560000
   5526   5527     1   0.15375 251793.120000
   5526   5537     1   0.15375 251793.120000
   5526   5544     1   0.14316 258236.480000
   5527   5529     1   0.15375 251793.120000
   5527   5547     1   0.14233 265014.560000
   5529   5530     1   0.15375 251793.120000
   5529   5536     1   0.14233 265014.560000
   5530   5531     1   0.15375 251793.120000
   5530   5549     1   0.14647 272713.120000
   5531   5535     1   0.14233 265014.560000
   5531   5544     1   0.14316 258236.480000
   5537   5542     1   0.14233 265014.560000
   5550   5552     1   0.14619 275056.160000
   5552   5554     1   0.15375 251793.120000
   5554   5558     1   0.14647 272713.120000
   5558   5559     1   0.14647 272713.120000
   5558   5560     1   0.14647 272713.120000
   5559   5570     1   0.15375 251793.120000
   5560   5562     1   0.15375 251793.120000
   5562   5566     1   0.15241 261918.400000
   5566   5567     1   0.12183 533627.360000
   5566   5598     1   0.13400 406935.840000
   5570   5573     1   0.15241 261918.400000
   5573   5574     1   0.12183 533627.360000
   5573   5622     1   0.13400 406935.840000
   5575   5576     1   0.15375 251793.120000
   5575   5586     1   0.15375 251793.120000
   5575   5593     1   0.14316 258236.480000
   5576   5578     1   0.15375 251793.120000
   5576   5596     1   0.14233 265014.560000
   5578   5579     1   0.15375 251793.120000
   5578   5585     1   0.14233 265014.560000
   5579   5580     1   0.15375 251793.120000
   5579   5598     1   0.14647 272713.120000
   5580   5584     1   0.14233 265014.560000
   5580   5593     1   0.14316 258236.480000
   5586   5591     1   0.14233 265014.560000
   5599   5600     1   0.15375 251793.120000
   5599   5610     1   0.15375 251793.120000
   5599   5617     1   0.14316 258236.480000
   5600   5602     1   0.15375 251793.120000
   5600   5620     1   0.14233 265014.560000
   5602   5603     1   0.15375 251793.120000
   5602   5609     1   0.14233 265014.560000
   5603   5604     1   0.15375 251793.120000
   5603   5622     1   0.14647 272713.120000
   5604   5608     1   0.14233 265014.560000
   5604   5617     1   0.14316 258236.480000
   5610   5615     1   0.14233 265014.560000
   5623   5625     1   0.14619 275056.160000
   5625   5627     1   0.15375 251793.120000
   5627   5631     1   0.14647 272713.120000
   5631   5632     1   0.14647 272713.120000
   5631   5633     1   0.14647 272713.120000
   5632   5643     1   0.15375 251793.120000
   5633   5635     1   0.15375 251793.120000
   5635   5639     1   0.15241 261918.400000
   5639   5640     1   0.12183 533627.360000
   5639   5671     1   0.13400 406935.840000
   5643   5646     1   0.15241 261918.400000
   5646   5647     1   0.12183 533627.360000
   5646   5695     1   0.13400 406935.840000
   5648   5649     1   0.15375 251793.120000
   5648   5659     1   0.15375 251793.120000
   5648   5666     1   0.14316 258236.480000
   5649   5651     1   0.15375 251793.120000
   5649   5669     1   0.14233 265014.560000
   5651   5652     1   0.15375 251793.120000
   5651   5658     1   0.14233 265014.560000
   5652   5653     1   0.15375 251793.120000
   5652   5671     1   0.14647 272713.120000
   5653   5657     1   0.14233 265014.560000
   5653   5666     1   0.14316 258236.480000
   5659   5664     1   0.14233 265014.560000
   5672   5673     1   0.15375 251793.120000
   5672   5683     1   0.15375 251793.120000
   5672   5690     1   0.14316 258236.480000
   5673   5675     1   0.15375 251793.120000
   5673   5693     1   0.14233 265014.560000
   5675   5676     1   0.15375 251793.120000
   5675   5682     1   0.14233 265014.560000
   5676   5677     1   0.15375 251793.120000
   5676   5695     1   0.14647 272713.120000
   5677   5681     1   0.14233 265014.560000
   5677   5690     1   0.14316 258236.480000
   5683   5688     1   0.14233 265014.560000
   5696   5698     1   0.14619 275056.160000
   5698   5700     1   0.15375 251793.120000
   5700   5704     1   0.14647 272713.120000
   5704   5705     1   0.14647 272713.120000
   5704   5706     1   0.14647 272713.120000
   5705   5716     1   0.15375 251793.120000
   5706   5708     1   0.15375 251793.120000
   5708   5712     1   0.15241 261918.400000
   5712   5713     1   0.12183 533627.360000
   5712   5744     1   0.13400 406935.840000
   5716   5719     1   0.15241 261918.400000
   5719   5720     1   0.12183 533627.360000
   5719   5768     1   0.13400 406935.840000
   5721   5722     1   0.15375 251793.120000
   5721   5732     1   0.15375 251793.120000
   5721   5739     1   0.14316 258236.480000
   5722   5724     1   0.15375 251793.120000
   5722   5742     1   0.14233 265014.560000
   5724   5725     1   0.15375 251793.120000
   5724   5731     1   0.14233 265014.560000
   5725   5726     1   0.15375 251793.120000
   5725   5744     1   0.14647 272713.120000
   5726   5730     1   0.14233 265014.560000
   5726   5739     1   0.14316 258236.480000
   5732   5737     1   0.14233 265014.560000
   5745   5746     1   0.15375 251793.120000
   5745   5756     1   0.15375 251793.120000
   5745   5763     1   0.14316 258236.480000
   5746   5748     1   0.15375 251793.120000
   5746   5766     1   0.14233 265014.560000
   5748   5749     1   0.15375 251793.120000
   5748   5755     1   0.14233 265014.560000
   5749   5750     1   0.15375 251793.120000
   5749   5768     1   0.14647 272713.120000
   5750   5754     1   0.14233 265014.560000
   5750   5763     1   0.14316 258236.480000
   5756   5761     1   0.14233 265014.560000
   5769   5771     1   0.14619 275056.160000
   5771   5773     1   0.15375 251793.120000
   5773   5777     1   0.14647 272713.120000
   5777   5778     1   0.14647 272713.120000
   5777   5779     1   0.14647 272713.120000
   5778   5789     1   0.15375 251793.120000
   5779   5781     1   0.15375 251793.120000
   5781   5785     1   0.15241 261918.400000
   5785   5786     1   0.12183 533627.360000
   5785   5817     1   0.13400 406935.840000
   5789   5792     1   0.15241 261918.400000
   5792   5793     1   0.12183 533627.360000
   5792   5841     1   0.13400 406935.840000
   5794   5795     1   0.15375 251793.120000
   5794   5805     1   0.15375 251793.120000
   5794   5812     1   0.14316 258236.480000
   5795   5797     1   0.15375 251793.120000
   5795   5815     1   0.14233 265014.560000
   5797   5798     1   0.15375 251793.120000
   5797   5804     1   0.14233 265014.560000
   5798   5799     1   0.15375 251793.120000
   5798   5817     1   0.14647 272713.120000
   5799   5803     1   0.14233 265014.560000
   5799   5812     1   0.14316 258236.480000
   5805   5810     1   0.14233 265014.560000
   5818   5819     1   0.15375 251793.120000
   5818   5829     1   0.15375 251793.120000
   5818   5836     1   0.14316 258236.480000
   5819   5821     1   0.15375 251793.120000
   5819   5839     1   0.14233 265014.560000
   5821   5822     1   0.15375 251793.120000
   5821   5828     1   0.14233 265014.560000
   5822   5823     1   0.15375 251793.120000
   5822   5841     1   0.14647 272713.120000
   5823   5827     1   0.14233 265014.560000
   5823   5836     1   0.14316 258236.480000
   5829   5834     1   0.14233 265014.560000
   5842   5844     1   0.14619 275056.160000
   5844   5846     1   0.15375 251793.120000
   5846   5850     1   0.14647 272713.120000
   5850   5851     1   0.14647 272713.120000
   5850   5852     1   0.14647 272713.120000
   5851   5862     1   0.15375 251793.120000
   5852   5854     1   0.15375 251793.120000
   5854   5858     1   0.15241 261918.400000
   5858   5859     1   0.12183 533627.360000
   5858   5890     1   0.13400 406935.840000
   5862   5865     1   0.15241 261918.400000
   5865   5866     1   0.12183 533627.360000
   5865   5914     1   0.13400 406935.840000
   5867   5868     1   0.15375 251793.120000
   5867   5878     1   0.15375 251793.120000
   5867   5885     1   0.14316 258236.480000
   5868   5870     1   0.15375 251793.120000
   5868   5888     1   0.14233 265014.560000
   5870   5871     1   0.15375 251793.120000
   5870   5877     1   0.14233 265014.560000
   5871   5872     1   0.15375 251793.120000
   5871   5890     1   0.14647 272713.120000
   5872   5876     1   0.14233 265014.560000
   5872   5885     1   0.14316 258236.480000
   5878   5883     1   0.14233 265014.560000
   5891   5892     1   0.15375 251793.120000
   5891   5902     1   0.15375 251793.120000
   5891   5909     1   0.14316 258236.480000
   5892   5894     1   0.15375 251793.120000
   5892   5912     1   0.14233 265014.560000
   5894   5895     1   0.15375 251793.120000
   5894   5901     1   0.14233 265014.560000
   5895   5896     1   0.15375 251793.120000
   5895   5914     1   0.14647 272713.120000
   5896   5900     1   0.14233 265014.560000
   5896   5909     1   0.14316 258236.480000
   5902   5907     1   0.14233 265014.560000
   5915   5917     1   0.14619 275056.160000
   5917   5919     1   0.15375 251793.120000
   5919   5923     1   0.14647 272713.120000
   5923   5924     1   0.14647 272713.120000
   5923   5925     1   0.14647 272713.120000
   5924   5935     1   0.15375 251793.120000
   5925   5927     1   0.15375 251793.120000
   5927   5931     1   0.15241 261918.400000
   5931   5932     1   0.12183 533627.360000
   5931   5963     1   0.13400 406935.840000
   5935   5938     1   0.15241 261918.400000
   5938   5939     1   0.12183 533627.360000
   5938   5987     1   0.13400 406935.840000
   5940   5941     1   0.15375 251793.120000
   5940   5951     1   0.15375 251793.120000
   5940   5958     1   0.14316 258236.480000
   5941   5943     1   0.15375 251793.120000
   5941   5961     1   0.14233 265014.560000
   5943   5944     1   0.15375 251793.120000
   5943   5950     1   0.14233 265014.560000
   5944   5945     1   0.15375 251793.120000
   5944   5963     1   0.14647 272713.120000
   5945   5949     1   0.14233 265014.560000
   5945   5958     1   0.14316 258236.480000
   5951   5956     1   0.14233 265014.560000
   5964   5965     1   0.15375 251793.120000
   5964   5975     1   0.15375 251793.120000
   5964   5982     1   0.14316 258236.480000
   5965   5967     1   0.15375 251793.120000
   5965   5985     1   0.14233 265014.560000
   5967   5968     1   0.15375 251793.120000
   5967   5974     1   0.14233 265014.560000
   5968   5969     1   0.15375 251793.120000
   5968   5987     1   0.14647 272713.120000
   5969   5973     1   0.14233 265014.560000
   5969   5982     1   0.14316 258236.480000
   5975   5980     1   0.14233 265014.560000
   5988   5990     1   0.14619 275056.160000
   5990   5992     1   0.15375 251793.120000
   5992   5996     1   0.14647 272713.120000
   5996   5997     1   0.14647 272713.120000
   5996   5998     1   0.14647 272713.120000
   5997   6008     1   0.15375 251793.120000
   5998   6000     1   0.15375 251793.120000
   6000   6004     1   0.15241 261918.400000
   6004   6005     1   0.12183 533627.360000
   6004   6036     1   0.13400 406935.840000
   6008   6011     1   0.15241 261918.400000
   6011   6012     1   0.12183 533627.360000
   6011   6060     1   0.13400 406935.840000
   6013   6014     1   0.15375 251793.120000
   6013   6024     1   0.15375 251793.120000
   6013   6031     1   0.14316 258236.480000
   6014   6016     1   0.15375 251793.120000
   6014   6034     1   0.14233 265014.560000
   6016   6017     1   0.15375 251793.120000
   6016   6023     1   0.14233 265014.560000
   6017   6018     1   0.15375 251793.120000
   6017   6036     1   0.14647 272713.120000
   6018   6022     1   0.14233 265014.560000
   6018   6031     1   0.14316 258236.480000
   6024   6029     1   0.14233 265014.560000
   6037   6038     1   0.15375 251793.120000
   6037   6048     1   0.15375 251793.120000
   6037   6055     1   0.14316 258236.480000
   6038   6040     1   0.15375 251793.120000
   6038   6058     1   0.14233 265014.560000
   6040   6041     1   0.15375 251793.120000
   6040   6047     1   0.14233 265014.560000
   6041   6042     1   0.15375 251793.120000
   6041   6060     1   0.14647 272713.120000
   6042   6046     1   0.14233 265014.560000
   6042   6055     1   0.14316 258236.480000
   6048   6053     1   0.14233 265014.560000
   6061   6063     1   0.14619 275056.160000
   6063   6065     1   0.15375 251793.120000
   6065   6069     1   0.14647 272713.120000
   6069   6070     1   0.14647 272713.120000
   6069   6071     1   0.14647 272713.120000
   6070   6081     1   0.15375 251793.120000
   6071   6073     1   0.15375 251793.120000
   6073   6077     1   0.15241 261918.400000
   6077   6078     1   0.12183 533627.360000
   6077   6109     1   0.13400 406935.840000
   6081   6084     1   0.15241 261918.400000
   6084   6085     1   0.12183 533627.360000
   6084   6133     1   0.13400 406935.840000
   6086   6087     1   0.15375 251793.120000
   6086   6097     1   0.15375 251793.120000
   6086   6104     1   0.14316 258236.480000
   6087   6089     1   0.15375 251793.120000
   6087   6107     1   0.14233 265014.560000
   6089   6090     1   0.15375 251793.120000
   6089   6096     1   0.14233 265014.560000
   6090   6091     1   0.15375 251793.120000
   6090   6109     1   0.14647 272713.120000
   6091   6095     1   0.14233 265014.560000
   6091   6104     1   0.14316 258236.480000
   6097   6102     1   0.14233 265014.560000
   6110   6111     1   0.15375 251793.120000
   6110   6121     1   0.15375 251793.120000
   6110   6128     1   0.14316 258236.480000
   6111   6113     1   0.15375 251793.120000
   6111   6131     1   0.14233 265014.560000
   6113   6114     1   0.15375 251793.120000
   6113   6120     1   0.14233 265014.560000
   6114   6115     1   0.15375 251793.120000
   6114   6133     1   0.14647 272713.120000
   6115   6119     1   0.14233 265014.560000
   6115   6128     1   0.14316 258236.480000
   6121   6126     1   0.14233 265014.560000
   6134   6136     1   0.14619 275056.160000
   6136   6138     1   0.15375 251793.120000
   6138   6142     1   0.14647 272713.120000
   6142   6143     1   0.14647 272713.120000
   6142   6144     1   0.14647 272713.120000
   6143   6154     1   0.15375 251793.120000
   6144   6146     1   0.15375 251793.120000
   6146   6150     1   0.15241 261918.400000
   6150   6151     1   0.12183 533627.360000
   6150   6182     1   0.13400 406935.840000
   6154   6157     1   0.15241 261918.400000
   6157   6158     1   0.12183 533627.360000
   6157   6206     1   0.13400 406935.840000
   6159   6160     1   0.15375 251793.120000
   6159   6170     1   0.15375 251793.120000
   6159   6177     1   0.14316 258236.480000
   6160   6162     1   0.15375 251793.120000
   6160   6180     1   0.14233 265014.560000
   6162   6163     1   0.15375 251793.120000
   6162   6169     1   0.14233 265014.560000
   6163   6164     1   0.15375 251793.120000
   6163   6182     1   0.14647 272713.120000
   6164   6168     1   0.14233 265014.560000
   6164   6177     1   0.14316 258236.480000
   6170   6175     1   0.14233 265014.560000
   6183   6184     1   0.15375 251793.120000
   6183   6194     1   0.15375 251793.120000
   6183   6201     1   0.14316 258236.480000
   6184   6186     1   0.15375 251793.120000
   6184   6204     1   0.14233 265014.560000
   6186   6187     1   0.15375 251793.120000
   6186   6193     1   0.14233 265014.560000
   6187   6188     1   0.15375 251793.120000
   6187   6206     1   0.14647 272713.120000
   6188   6192     1   0.14233 265014.560000
   6188   6201     1   0.14316 258236.480000
   6194   6199     1   0.14233 265014.560000
   6207   6209     1   0.14619 275056.160000
   6209   6211     1   0.15375 251793.120000
   6211   6215     1   0.14647 272713.120000
   6215   6216     1   0.14647 272713.120000
   6215   6217     1   0.14647 272713.120000
   6216   6227     1   0.15375 251793.120000
   6217   6219     1   0.15375 251793.120000
   6219   6223     1   0.15241 261918.400000
   6223   6224     1   0.12183 533627.360000
   6223   6255     1   0.13400 406935.840000
   6227   6230     1   0.15241 261918.400000
   6230   6231     1   0.12183 533627.360000
   6230   6279     1   0.13400 406935.840000
   6232   6233     1   0.15375 251793.120000
   6232   6243     1   0.15375 251793.120000
   6232   6250     1   0.14316 258236.480000
   6233   6235     1   0.15375 251793.120000
   6233   6253     1   0.14233 265014.560000
   6235   6236     1   0.15375 251793.120000
   6235   6242     1   0.14233 265014.560000
   6236   6237     1   0.15375 251793.120000
   6236   6255     1   0.14647 272713.120000
   6237   6241     1   0.14233 265014.560000
   6237   6250     1   0.14316 258236.480000
   6243   6248     1   0.14233 265014.560000
   6256   6257     1   0.15375 251793.120000
   6256   6267     1   0.15375 251793.120000
   6256   6274     1   0.14316 258236.480000
   6257   6259     1   0.15375 251793.120000
   6257   6277     1   0.14233 265014.560000
   6259   6260     1   0.15375 251793.120000
   6259   6266     1   0.14233 265014.560000
   6260   6261     1   0.15375 251793.120000
   6260   6279     1   0.14647 272713.120000
   6261   6265     1   0.14233 265014.560000
   6261   6274     1   0.14316 258236.480000
   6267   6272     1   0.14233 265014.560000
   6280   6282     1   0.14619 275056.160000
   6282   6284     1   0.15375 251793.120000
   6284   6288     1   0.14647 272713.120000
   6288   6289     1   0.14647 272713.120000
   6288   6290     1   0.14647 272713.120000
   6289   6300     1   0.15375 251793.120000
   6290   6292     1   0.15375 251793.120000
   6292   6296     1   0.15241 261918.400000
   6296   6297     1   0.12183 533627.360000
   6296   6328     1   0.13400 406935.840000
   6300   6303     1   0.15241 261918.400000
   6303   6304     1   0.12183 533627.360000
   6303   6352     1   0.13400 406935.840000
   6305   6306     1   0.15375 251793.120000
   6305   6316     1   0.15375 251793.120000
   6305   6323     1   0.14316 258236.480000
   6306   6308     1   0.15375 251793.120000
   6306   6326     1   0.14233 265014.560000
   6308   6309     1   0.15375 251793.120000
   6308   6315     1   0.14233 265014.560000
   6309   6310     1   0.15375 251793.120000
   6309   6328     1   0.14647 272713.120000
   6310   6314     1   0.14233 265014.560000
   6310   6323     1   0.14316 258236.480000
   6316   6321     1   0.14233 265014.560000
   6329   6330     1   0.15375 251793.120000
   6329   6340     1   0.15375 251793.120000
   6329   6347     1   0.14316 258236.480000
   6330   6332     1   0.15375 251793.120000
   6330   6350     1   0.14233 265014.560000
   6332   6333     1   0.15375 251793.120000
   6332   6339     1   0.14233 265014.560000
   6333   6334     1   0.15375 251793.120000
   6333   6352     1   0.14647 272713.120000
   6334   6338     1   0.14233 265014.560000
   6334   6347     1   0.14316 258236.480000
   6340   6345     1   0.14233 265014.560000
   6353   6355     1   0.14619 275056.160000
   6355   6357     1   0.15375 251793.120000
   6357   6361     1   0.14647 272713.120000
   6361   6362     1   0.14647 272713.120000
   6361   6363     1   0.14647 272713.120000
   6362   6373     1   0.15375 251793.120000
   6363   6365     1   0.15375 251793.120000
   6365   6369     1   0.15241 261918.400000
   6369   6370     1   0.12183 533627.360000
   6369   6401     1   0.13400 406935.840000
   6373   6376     1   0.15241 261918.400000
   6376   6377     1   0.12183 533627.360000
   6376   6425     1   0.13400 406935.840000
   6378   6379     1   0.15375 251793.120000
   6378   6389     1   0.15375 251793.120000
   6378   6396     1   0.14316 258236.480000
   6379   6381     1   0.15375 251793.120000
   6379   6399     1   0.14233 265014.560000
   6381   6382     1   0.15375 251793.120000
   6381   6388     1   0.14233 265014.560000
   6382   6383     1   0.15375 251793.120000
   6382   6401     1   0.14647 272713.120000
   6383   6387     1   0.14233 265014.560000
   6383   6396     1   0.14316 258236.480000
   6389   6394     1   0.14233 265014.560000
   6402   6403     1   0.15375 251793.120000
   6402   6413     1   0.15375 251793.120000
   6402   6420     1   0.14316 258236.480000
   6403   6405     1   0.15375 251793.120000
   6403   6423     1   0.14233 265014.560000
   6405   6406     1   0.15375 251793.120000
   6405   6412     1   0.14233 265014.560000
   6406   6407     1   0.15375 251793.120000
   6406   6425     1   0.14647 272713.120000
   6407   6411     1   0.14233 265014.560000
   6407   6420     1   0.14316 258236.480000
   6413   6418     1   0.14233 265014.560000
   6426   6428     1   0.14619 275056.160000
   6428   6430     1   0.15375 251793.120000
   6430   6434     1   0.14647 272713.120000
   6434   6435     1   0.14647 272713.120000
   6434   6436     1   0.14647 272713.120000
   6435   6446     1   0.15375 251793.120000
   6436   6438     1   0.15375 251793.120000
   6438   6442     1   0.15241 261918.400000
   6442   6443     1   0.12183 533627.360000
   6442   6474     1   0.13400 406935.840000
   6446   6449     1   0.15241 261918.400000
   6449   6450     1   0.12183 533627.360000
   6449   6498     1   0.13400 406935.840000
   6451   6452     1   0.15375 251793.120000
   6451   6462     1   0.15375 251793.120000
   6451   6469     1   0.14316 258236.480000
   6452   6454     1   0.15375 251793.120000
   6452   6472     1   0.14233 265014.560000
   6454   6455     1   0.15375 251793.120000
   6454   6461     1   0.14233 265014.560000
   6455   6456     1   0.15375 251793.120000
   6455   6474     1   0.14647 272713.120000
   6456   6460     1   0.14233 265014.560000
   6456   6469     1   0.14316 258236.480000
   6462   6467     1   0.14233 265014.560000
   6475   6476     1   0.15375 251793.120000
   6475   6486     1   0.15375 251793.120000
   6475   6493     1   0.14316 258236.480000
   6476   6478     1   0.15375 251793.120000
   6476   6496     1   0.14233 265014.560000
   6478   6479     1   0.15375 251793.120000
   6478   6485     1   0.14233 265014.560000
   6479   6480     1   0.15375 251793.120000
   6479   6498     1   0.14647 272713.120000
   6480   6484     1   0.14233 265014.560000
   6480   6493     1   0.14316 258236.480000
   6486   6491     1   0.14233 265014.560000
   6499   6501     1   0.14619 275056.160000
   6501   6503     1   0.15375 251793.120000
   6503   6507     1   0.14647 272713.120000
   6507   6508     1   0.14647 272713.120000
   6507   6509     1   0.14647 272713.120000
   6508   6519     1   0.15375 251793.120000
   6509   6511     1   0.15375 251793.120000
   6511   6515     1   0.15241 261918.400000
   6515   6516     1   0.12183 533627.360000
   6515   6547     1   0.13400 406935.840000
   6519   6522     1   0.15241 261918.400000
   6522   6523     1   0.12183 533627.360000
   6522   6571     1   0.13400 406935.840000
   6524   6525     1   0.15375 251793.120000
   6524   6535     1   0.15375 251793.120000
   6524   6542     1   0.14316 258236.480000
   6525   6527     1   0.15375 251793.120000
   6525   6545     1   0.14233 265014.560000
   6527   6528     1   0.15375 251793.120000
   6527   6534     1   0.14233 265014.560000
   6528   6529     1   0.15375 251793.120000
   6528   6547     1   0.14647 272713.120000
   6529   6533     1   0.14233 265014.560000
   6529   6542     1   0.14316 258236.480000
   6535   6540     1   0.14233 265014.560000
   6548   6549     1   0.15375 251793.120000
   6548   6559     1   0.15375 251793.120000
   6548   6566     1   0.14316 258236.480000
   6549   6551     1   0.15375 251793.120000
   6549   6569     1   0.14233 265014.560000
   6551   6552     1   0.15375 251793.120000
   6551   6558     1   0.14233 265014.560000
   6552   6553     1   0.15375 251793.120000
   6552   6571     1   0.14647 272713.120000
   6553   6557     1   0.14233 265014.560000
   6553   6566     1   0.14316 258236.480000
   6559   6564     1   0.14233 265014.560000
   6572   6574     1   0.14619 275056.160000
   6574   6576     1   0.15375 251793.120000
   6576   6580     1   0.14647 272713.120000
   6580   6581     1   0.14647 272713.120000
   6580   6582     1   0.14647 272713.120000
   6581   6592     1   0.15375 251793.120000
   6582   6584     1   0.15375 251793.120000
   6584   6588     1   0.15241 261918.400000
   6588   6589     1   0.12183 533627.360000
   6588   6620     1   0.13400 406935.840000
   6592   6595     1   0.15241 261918.400000
   6595   6596     1   0.12183 533627.360000
   6595   6644     1   0.13400 406935.840000
   6597   6598     1   0.15375 251793.120000
   6597   6608     1   0.15375 251793.120000
   6597   6615     1   0.14316 258236.480000
   6598   6600     1   0.15375 251793.120000
   6598   6618     1   0.14233 265014.560000
   6600   6601     1   0.15375 251793.120000
   6600   6607     1   0.14233 265014.560000
   6601   6602     1   0.15375 251793.120000
   6601   6620     1   0.14647 272713.120000
   6602   6606     1   0.14233 265014.560000
   6602   6615     1   0.14316 258236.480000
   6608   6613     1   0.14233 265014.560000
   6621   6622     1   0.15375 251793.120000
   6621   6632     1   0.15375 251793.120000
   6621   6639     1   0.14316 258236.480000
   6622   6624     1   0.15375 251793.120000
   6622   6642     1   0.14233 265014.560000
   6624   6625     1   0.15375 251793.120000
   6624   6631     1   0.14233 265014.560000
   6625   6626     1   0.15375 251793.120000
   6625   6644     1   0.14647 272713.120000
   6626   6630     1   0.14233 265014.560000
   6626   6639     1   0.14316 258236.480000
   6632   6637     1   0.14233 265014.560000
   6645   6647     1   0.14619 275056.160000
   6647   6649     1   0.15375 251793.120000
   6649   6653     1   0.14647 272713.120000
   6653   6654     1   0.14647 272713.120000
   6653   6655     1   0.14647 272713.120000
   6654   6665     1   0.15375 251793.120000
   6655   6657     1   0.15375 251793.120000
   6657   6661     1   0.15241 261918.400000
   6661   6662     1   0.12183 533627.360000
   6661   6693     1   0.13400 406935.840000
   6665   6668     1   0.15241 261918.400000
   6668   6669     1   0.12183 533627.360000
   6668   6717     1   0.13400 406935.840000
   6670   6671     1   0.15375 251793.120000
   6670   6681     1   0.15375 251793.120000
   6670   6688     1   0.14316 258236.480000
   6671   6673     1   0.15375 251793.120000
   6671   6691     1   0.14233 265014.560000
   6673   6674     1   0.15375 251793.120000
   6673   6680     1   0.14233 265014.560000
   6674   6675     1   0.15375 251793.120000
   6674   6693     1   0.14647 272713.120000
   6675   6679     1   0.14233 265014.560000
   6675   6688     1   0.14316 258236.480000
   6681   6686     1   0.14233 265014.560000
   6694   6695     1   0.15375 251793.120000
   6694   6705     1   0.15375 251793.120000
   6694   6712     1   0.14316 258236.480000
   6695   6697     1   0.15375 251793.120000
   6695   6715     1   0.14233 265014.560000
   6697   6698     1   0.15375 251793.120000
   6697   6704     1   0.14233 265014.560000
   6698   6699     1   0.15375 251793.120000
   6698   6717     1   0.14647 272713.120000
   6699   6703     1   0.14233 265014.560000
   6699   6712     1   0.14316 258236.480000
   6705   6710     1   0.14233 265014.560000
   6718   6720     1   0.14619 275056.160000
   6720   6722     1   0.15375 251793.120000
   6722   6726     1   0.14647 272713.120000
   6726   6727     1   0.14647 272713.120000
   6726   6728     1   0.14647 272713.120000
   6727   6738     1   0.15375 251793.120000
   6728   6730     1   0.15375 251793.120000
   6730   6734     1   0.15241 261918.400000
   6734   6735     1   0.12183 533627.360000
   6734   6766     1   0.13400 406935.840000
   6738   6741     1   0.15241 261918.400000
   6741   6742     1   0.12183 533627.360000
   6741   6790     1   0.13400 406935.840000
   6743   6744     1   0.15375 251793.120000
   6743   6754     1   0.15375 251793.120000
   6743   6761     1   0.14316 258236.480000
   6744   6746     1   0.15375 251793.120000
   6744   6764     1   0.14233 265014.560000
   6746   6747     1   0.15375 251793.120000
   6746   6753     1   0.14233 265014.560000
   6747   6748     1   0.15375 251793.120000
   6747   6766     1   0.14647 272713.120000
   6748   6752     1   0.14233 265014.560000
   6748   6761     1   0.14316 258236.480000
   6754   6759     1   0.14233 265014.560000
   6767   6768     1   0.15375 251793.120000
   6767   6778     1   0.15375 251793.120000
   6767   6785     1   0.14316 258236.480000
   6768   6770     1   0.15375 251793.120000
   6768   6788     1   0.14233 265014.560000
   6770   6771     1   0.15375 251793.120000
   6770   6777     1   0.14233 265014.560000
   6771   6772     1   0.15375 251793.120000
   6771   6790     1   0.14647 272713.120000
   6772   6776     1   0.14233 265014.560000
   6772   6785     1   0.14316 258236.480000
   6778   6783     1   0.14233 265014.560000
   6791   6793     1   0.14619 275056.160000
   6793   6795     1   0.15375 251793.120000
   6795   6799     1   0.14647 272713.120000
   6799   6800     1   0.14647 272713.120000
   6799   6801     1   0.14647 272713.120000
   6800   6811     1   0.15375 251793.120000
   6801   6803     1   0.15375 251793.120000
   6803   6807     1   0.15241 261918.400000
   6807   6808     1   0.12183 533627.360000
   6807   6839     1   0.13400 406935.840000
   6811   6814     1   0.15241 261918.400000
   6814   6815     1   0.12183 533627.360000
   6814   6863     1   0.13400 406935.840000
   6816   6817     1   0.15375 251793.120000
   6816   6827     1   0.15375 251793.120000
   6816   6834     1   0.14316 258236.480000
   6817   6819     1   0.15375 251793.120000
   6817   6837     1   0.14233 265014.560000
   6819   6820     1   0.15375 251793.120000
   6819   6826     1   0.14233 265014.560000
   6820   6821     1   0.15375 251793.120000
   6820   6839     1   0.14647 272713.120000
   6821   6825     1   0.14233 265014.560000
   6821   6834     1   0.14316 258236.480000
   6827   6832     1   0.14233 265014.560000
   6840   6841     1   0.15375 251793.120000
   6840   6851     1   0.15375 251793.120000
   6840   6858     1   0.14316 258236.480000
   6841   6843     1   0.15375 251793.120000
   6841   6861     1   0.14233 265014.560000
   6843   6844     1   0.15375 251793.120000
   6843   6850     1   0.14233 265014.560000
   6844   6845     1   0.15375 251793.120000
   6844   6863     1   0.14647 272713.120000
   6845   6849     1   0.14233 265014.560000
   6845   6858     1   0.14316 258236.480000
   6851   6856     1   0.14233 265014.560000
   6864   6866     1   0.14619 275056.160000
   6866   6868     1   0.15375 251793.120000
   6868   6872     1   0.14647 272713.120000
   6872   6873     1   0.14647 272713.120000
   6872   6874     1   0.14647 272713.120000
   6873   6884     1   0.15375 251793.120000
   6874   6876     1   0.15375 251793.120000
   6876   6880     1   0.15241 261918.400000
   6880   6881     1   0.12183 533627.360000
   6880   6912     1   0.13400 406935.840000
   6884   6887     1   0.15241 261918.400000
   6887   6888     1   0.12183 533627.360000
   6887   6936     1   0.13400 406935.840000
   6889   6890     1   0.15375 251793.120000
   6889   6900     1   0.15375 251793.120000
   6889   6907     1   0.14316 258236.480000
   6890   6892     1   0.15375 251793.120000
   6890   6910     1   0.14233 265014.560000
   6892   6893     1   0.15375 251793.120000
   6892   6899     1   0.14233 265014.560000
   6893   6894     1   0.15375 251793.120000
   6893   6912     1   0.14647 272713.120000
   6894   6898     1   0.14233 265014.560000
   6894   6907     1   0.14316 258236.480000
   6900   6905     1   0.14233 265014.560000
   6913   6914     1   0.15375 251793.120000
   6913   6924     1   0.15375 251793.120000
   6913   6931     1   0.14316 258236.480000
   6914   6916     1   0.15375 251793.120000
   6914   6934     1   0.14233 265014.560000
   6916   6917     1   0.15375 251793.120000
   6916   6923     1   0.14233 265014.560000
   6917   6918     1   0.15375 251793.120000
   6917   6936     1   0.14647 272713.120000
   6918   6922     1   0.14233 265014.560000
   6918   6931     1   0.14316 258236.480000
   6924   6929     1   0.14233 265014.560000
   6937   6939     1   0.14619 275056.160000
   6939   6941     1   0.15375 251793.120000
   6941   6945     1   0.14647 272713.120000
   6945   6946     1   0.14647 272713.120000
   6945   6947     1   0.14647 272713.120000
   6946   6957     1   0.15375 251793.120000
   6947   6949     1   0.15375 251793.120000
   6949   6953     1   0.15241 261918.400000
   6953   6954     1   0.12183 533627.360000
   6953   6985     1   0.13400 406935.840000
   6957   6960     1   0.15241 261918.400000
   6960   6961     1   0.12183 533627.360000
   6960   7009     1   0.13400 406935.840000
   6962   6963     1   0.15375 251793.120000
   6962   6973     1   0.15375 251793.120000
   6962   6980     1   0.14316 258236.480000
   6963   6965     1   0.15375 251793.120000
   6963   6983     1   0.14233 265014.560000
   6965   6966     1   0.15375 251793.120000
   6965   6972     1   0.14233 265014.560000
   6966   6967     1   0.15375 251793.120000
   6966   6985     1   0.14647 272713.120000
   6967   6971     1   0.14233 265014.560000
   6967   6980     1   0.14316 258236.480000
   6973   6978     1   0.14233 265014.560000
   6986   6987     1   0.15375 251793.120000
   6986   6997     1   0.15375 251793.120000
   6986   7004     1   0.14316 258236.480000
   6987   6989     1   0.15375 251793.120000
   6987   7007     1   0.14233 265014.560000
   6989   6990     1   0.15375 251793.120000
   6989   6996     1   0.14233 265014.560000
   6990   6991     1   0.15375 251793.120000
   6990   7009     1   0.14647 272713.120000
   6991   6995     1   0.14233 265014.560000
   6991   7004     1   0.14316 258236.480000
   6997   7002     1   0.14233 265014.560000
   7010   7012     1   0.14619 275056.160000
   7012   7014     1   0.15375 251793.120000
   7014   7018     1   0.14647 272713.120000
   7018   7019     1   0.14647 272713.120000
   7018   7020     1   0.14647 272713.120000
   7019   7030     1   0.15375 251793.120000
   7020   7022     1   0.15375 251793.120000
   7022   7026     1   0.15241 261918.400000
   7026   7027     1   0.12183 533627.360000
   7026   7058     1   0.13400 406935.840000
   7030   7033     1   0.15241 261918.400000
   7033   7034     1   0.12183 533627.360000
   7033   7082     1   0.13400 406935.840000
   7035   7036     1   0.15375 251793.120000
   7035   7046     1   0.15375 251793.120000
   7035   7053     1   0.14316 258236.480000
   7036   7038     1   0.15375 251793.120000
   7036   7056     1   0.14233 265014.560000
   7038   7039     1   0.15375 251793.120000
   7038   7045     1   0.14233 265014.560000
   7039   7040     1   0.15375 251793.120000
   7039   7058     1   0.14647 272713.120000
   7040   7044     1   0.14233 265014.560000
   7040   7053     1   0.14316 258236.480000
   7046   7051     1   0.14233 265014.560000
   7059   7060     1   0.15375 251793.120000
   7059   7070     1   0.15375 251793.120000
   7059   7077     1   0.14316 258236.480000
   7060   7062     1   0.15375 251793.120000
   7060   7080     1   0.14233 265014.560000
   7062   7063     1   0.15375 251793.120000
   7062   7069     1   0.14233 265014.560000
   7063   7064     1   0.15375 251793.120000
   7063   7082     1   0.14647 272713.120000
   7064   7068     1   0.14233 265014.560000
   7064   7077     1   0.14316 258236.480000
   7070   7075     1   0.14233 265014.560000
   7083   7085     1   0.14619 275056.160000
   7085   7087     1   0.15375 251793.120000
   7087   7091     1   0.14647 272713.120000
   7091   7092     1   0.14647 272713.120000
   7091   7093     1   0.14647 272713.120000
   7092   7103     1   0.15375 251793.120000
   7093   7095     1   0.15375 251793.120000
   7095   7099     1   0.15241 261918.400000
   7099   7100     1   0.12183 533627.360000
   7099   7131     1   0.13400 406935.840000
   7103   7106     1   0.15241 261918.400000
   7106   7107     1   0.12183 533627.360000
   7106   7155     1   0.13400 406935.840000
   7108   7109     1   0.15375 251793.120000
   7108   7119     1   0.15375 251793.120000
   7108   7126     1   0.14316 258236.480000
   7109   7111     1   0.15375 251793.120000
   7109   7129     1   0.14233 265014.560000
   7111   7112     1   0.15375 251793.120000
   7111   7118     1   0.14233 265014.560000
   7112   7113     1   0.15375 251793.120000
   7112   7131     1   0.14647 272713.120000
   7113   7117     1   0.14233 265014.560000
   7113   7126     1   0.14316 258236.480000
   7119   7124     1   0.14233 265014.560000
   7132   7133     1   0.15375 251793.120000
   7132   7143     1   0.15375 251793.120000
   7132   7150     1   0.14316 258236.480000
   7133   7135     1   0.15375 251793.120000
   7133   7153     1   0.14233 265014.560000
   7135   7136     1   0.15375 251793.120000
   7135   7142     1   0.14233 265014.560000
   7136   7137     1   0.15375 251793.120000
   7136   7155     1   0.14647 272713.120000
   7137   7141     1   0.14233 265014.560000
   7137   7150     1   0.14316 258236.480000
   7143   7148     1   0.14233 265014.560000
   7156   7158     1   0.14619 275056.160000
   7158   7160     1   0.15375 251793.120000
   7160   7164     1   0.14647 272713.120000
   7164   7165     1   0.14647 272713.120000
   7164   7166     1   0.14647 272713.120000
   7165   7176     1   0.15375 251793.120000
   7166   7168     1   0.15375 251793.120000
   7168   7172     1   0.15241 261918.400000
   7172   7173     1   0.12183 533627.360000
   7172   7204     1   0.13400 406935.840000
   7176   7179     1   0.15241 261918.400000
   7179   7180     1   0.12183 533627.360000
   7179   7228     1   0.13400 406935.840000
   7181   7182     1   0.15375 251793.120000
   7181   7192     1   0.15375 251793.120000
   7181   7199     1   0.14316 258236.480000
   7182   7184     1   0.15375 251793.120000
   7182   7202     1   0.14233 265014.560000
   7184   7185     1   0.15375 251793.120000
   7184   7191     1   0.14233 265014.560000
   7185   7186     1   0.15375 251793.120000
   7185   7204     1   0.14647 272713.120000
   7186   7190     1   0.14233 265014.560000
   7186   7199     1   0.14316 258236.480000
   7192   7197     1   0.14233 265014.560000
   7205   7206     1   0.15375 251793.120000
   7205   7216     1   0.15375 251793.120000
   7205   7223     1   0.14316 258236.480000
   7206   7208     1   0.15375 251793.120000
   7206   7226     1   0.14233 265014.560000
   7208   7209     1   0.15375 251793.120000
   7208   7215     1   0.14233 265014.560000
   7209   7210     1   0.15375 251793.120000
   7209   7228     1   0.14647 272713.120000
   7210   7214     1   0.14233 265014.560000
   7210   7223     1   0.14316 258236.480000
   7216   7221     1   0.14233 265014.560000
   7229   7231     1   0.14619 275056.160000
   7231   7233     1   0.15375 251793.120000
   7233   7237     1   0.14647 272713.120000
   7237   7238     1   0.14647 272713.120000
   7237   7239     1   0.14647 272713.120000
   7238   7249     1   0.15375 251793.120000
   7239   7241     1   0.15375 251793.120000
   7241   7245     1   0.15241 261918.400000
   7245   7246     1   0.12183 533627.360000
   7245   7277     1   0.13400 406935.840000
   7249   7252     1   0.15241 261918.400000
   7252   7253     1   0.12183 533627.360000
   7252   7301     1   0.13400 406935.840000
   7254   7255     1   0.15375 251793.120000
   7254   7265     1   0.15375 251793.120000
   7254   7272     1   0.14316 258236.480000
   7255   7257     1   0.15375 251793.120000
   7255   7275     1   0.14233 265014.560000
   7257   7258     1   0.15375 251793.120000
   7257   7264     1   0.14233 265014.560000
   7258   7259     1   0.15375 251793.120000
   7258   7277     1   0.14647 272713.120000
   7259   7263     1   0.14233 265014.560000
   7259   7272     1   0.14316 258236.480000
   7265   7270     1   0.14233 265014.560000
   7278   7279     1   0.15375 251793.120000
   7278   7289     1   0.15375 251793.120000
   7278   7296     1   0.14316 258236.480000
   7279   7281     1   0.15375 251793.120000
   7279   7299     1   0.14233 265014.560000
   7281   7282     1   0.15375 251793.120000
   7281   7288     1   0.14233 265014.560000
   7282   7283     1   0.15375 251793.120000
   7282   7301     1   0.14647 272713.120000
   7283   7287     1   0.14233 265014.560000
   7283   7296     1   0.14316 258236.480000
   7289   7294     1   0.14233 265014.560000
   7302   7304     1   0.14619 275056.160000
   7304   7306     1   0.15375 251793.120000
   7306   7310     1   0.14647 272713.120000
   7310   7311     1   0.14647 272713.120000
   7310   7312     1   0.14647 272713.120000
   7311   7322     1   0.15375 251793.120000
   7312   7314     1   0.15375 251793.120000
   7314   7318     1   0.15241 261918.400000
   7318   7319     1   0.12183 533627.360000
   7318   7350     1   0.13400 406935.840000
   7322   7325     1   0.15241 261918.400000
   7325   7326     1   0.12183 533627.360000
   7325   7374     1   0.13400 406935.840000
   7327   7328     1   0.15375 251793.120000
   7327   7338     1   0.15375 251793.120000
   7327   7345     1   0.14316 258236.480000
   7328   7330     1   0.15375 251793.120000
   7328   7348     1   0.14233 265014.560000
   7330   7331     1   0.15375 251793.120000
   7330   7337     1   0.14233 265014.560000
   7331   7332     1   0.15375 251793.120000
   7331   7350     1   0.14647 272713.120000
   7332   7336     1   0.14233 265014.560000
   7332   7345     1   0.14316 258236.480000
   7338   7343     1   0.14233 265014.560000
   7351   7352     1   0.15375 251793.120000
   7351   7362     1   0.15375 251793.120000
   7351   7369     1   0.14316 258236.480000
   7352   7354     1   0.15375 251793.120000
   7352   7372     1   0.14233 265014.560000
   7354   7355     1   0.15375 251793.120000
   7354   7361     1   0.14233 265014.560000
   7355   7356     1   0.15375 251793.120000
   7355   7374     1   0.14647 272713.120000
   7356   7360     1   0.14233 265014.560000
   7356   7369     1   0.14316 258236.480000
   7362   7367     1   0.14233 265014.560000
   7375   7377     1   0.14619 275056.160000
   7377   7379     1   0.15375 251793.120000
   7379   7383     1   0.14647 272713.120000
   7383   7384     1   0.14647 272713.120000
   7383   7385     1   0.14647 272713.120000
   7384   7395     1   0.15375 251793.120000
   7385   7387     1   0.15375 251793.120000
   7387   7391     1   0.15241 261918.400000
   7391   7392     1   0.12183 533627.360000
   7391   7423     1   0.13400 406935.840000
   7395   7398     1   0.15241 261918.400000
   7398   7399     1   0.12183 533627.360000
   7398   7447     1   0.13400 406935.840000
   7400   7401     1   0.15375 251793.120000
   7400   7411     1   0.15375 251793.120000
   7400   7418     1   0.14316 258236.480000
   7401   7403     1   0.15375 251793.120000
   7401   7421     1   0.14233 265014.560000
   7403   7404     1   0.15375 251793.120000
   7403   7410     1   0.14233 265014.560000
   7404   7405     1   0.15375 251793.120000
   7404   7423     1   0.14647 272713.120000
   7405   7409     1   0.14233 265014.560000
   7405   7418     1   0.14316 258236.480000
   7411   7416     1   0.14233 265014.560000
   7424   7425     1   0.15375 251793.120000
   7424   7435     1   0.15375 251793.120000
   7424   7442     1   0.14316 258236.480000
   7425   7427     1   0.15375 251793.120000
   7425   7445     1   0.14233 265014.560000
   7427   7428     1   0.15375 251793.120000
   7427   7434     1   0.14233 265014.560000
   7428   7429     1   0.15375 251793.120000
   7428   7447     1   0.14647 272713.120000
   7429   7433     1   0.14233 265014.560000
   7429   7442     1   0.14316 258236.480000
   7435   7440     1   0.14233 265014.560000
   7448   7450     1   0.14619 275056.160000
   7450   7452     1   0.15375 251793.120000
   7452   7456     1   0.14647 272713.120000
   7456   7457     1   0.14647 272713.120000
   7456   7458     1   0.14647 272713.120000
   7457   7468     1   0.15375 251793.120000
   7458   7460     1   0.15375 251793.120000
   7460   7464     1   0.15241 261918.400000
   7464   7465     1   0.12183 533627.360000
   7464   7496     1   0.13400 406935.840000
   7468   7471     1   0.15241 261918.400000
   7471   7472     1   0.12183 533627.360000
   7471   7520     1   0.13400 406935.840000
   7473   7474     1   0.15375 251793.120000
   7473   7484     1   0.15375 251793.120000
   7473   7491     1   0.14316 258236.480000
   7474   7476     1   0.15375 251793.120000
   7474   7494     1   0.14233 265014.560000
   7476   7477     1   0.15375 251793.120000
   7476   7483     1   0.14233 265014.560000
   7477   7478     1   0.15375 251793.120000
   7477   7496     1   0.14647 272713.120000
   7478   7482     1   0.14233 265014.560000
   7478   7491     1   0.14316 258236.480000
   7484   7489     1   0.14233 265014.560000
   7497   7498     1   0.15375 251793.120000
   7497   7508     1   0.15375 251793.120000
   7497   7515     1   0.14316 258236.480000
   7498   7500     1   0.15375 251793.120000
   7498   7518     1   0.14233 265014.560000
   7500   7501     1   0.15375 251793.120000
   7500   7507     1   0.14233 265014.560000
   7501   7502     1   0.15375 251793.120000
   7501   7520     1   0.14647 272713.120000
   7502   7506     1   0.14233 265014.560000
   7502   7515     1   0.14316 258236.480000
   7508   7513     1   0.14233 265014.560000
   7521   7523     1   0.14619 275056.160000
   7523   7525     1   0.15375 251793.120000
   7525   7529     1   0.14647 272713.120000
   7529   7530     1   0.14647 272713.120000
   7529   7531     1   0.14647 272713.120000
   7530   7541     1   0.15375 251793.120000
   7531   7533     1   0.15375 251793.120000
   7533   7537     1   0.15241 261918.400000
   7537   7538     1   0.12183 533627.360000
   7537   7569     1   0.13400 406935.840000
   7541   7544     1   0.15241 261918.400000
   7544   7545     1   0.12183 533627.360000
   7544   7593     1   0.13400 406935.840000
   7546   7547     1   0.15375 251793.120000
   7546   7557     1   0.15375 251793.120000
   7546   7564     1   0.14316 258236.480000
   7547   7549     1   0.15375 251793.120000
   7547   7567     1   0.14233 265014.560000
   7549   7550     1   0.15375 251793.120000
   7549   7556     1   0.14233 265014.560000
   7550   7551     1   0.15375 251793.120000
   7550   7569     1   0.14647 272713.120000
   7551   7555     1   0.14233 265014.560000
   7551   7564     1   0.14316 258236.480000
   7557   7562     1   0.14233 265014.560000
   7570   7571     1   0.15375 251793.120000
   7570   7581     1   0.15375 251793.120000
   7570   7588     1   0.14316 258236.480000
   7571   7573     1   0.15375 251793.120000
   7571   7591     1   0.14233 265014.560000
   7573   7574     1   0.15375 251793.120000
   7573   7580     1   0.14233 265014.560000
   7574   7575     1   0.15375 251793.120000
   7574   7593     1   0.14647 272713.120000
   7575   7579     1   0.14233 265014.560000
   7575   7588     1   0.14316 258236.480000
   7581   7586     1   0.14233 265014.560000
   7594   7596     1   0.14619 275056.160000
   7596   7598     1   0.15375 251793.120000
   7598   7602     1   0.14647 272713.120000
   7602   7603     1   0.14647 272713.120000
   7602   7604     1   0.14647 272713.120000
   7603   7614     1   0.15375 251793.120000
   7604   7606     1   0.15375 251793.120000
   7606   7610     1   0.15241 261918.400000
   7610   7611     1   0.12183 533627.360000
   7610   7642     1   0.13400 406935.840000
   7614   7617     1   0.15241 261918.400000
   7617   7618     1   0.12183 533627.360000
   7617   7666     1   0.13400 406935.840000
   7619   7620     1   0.15375 251793.120000
   7619   7630     1   0.15375 251793.120000
   7619   7637     1   0.14316 258236.480000
   7620   7622     1   0.15375 251793.120000
   7620   7640     1   0.14233 265014.560000
   7622   7623     1   0.15375 251793.120000
   7622   7629     1   0.14233 265014.560000
   7623   7624     1   0.15375 251793.120000
   7623   7642     1   0.14647 272713.120000
   7624   7628     1   0.14233 265014.560000
   7624   7637     1   0.14316 258236.480000
   7630   7635     1   0.14233 265014.560000
   7643   7644     1   0.15375 251793.120000
   7643   7654     1   0.15375 251793.120000
   7643   7661     1   0.14316 258236.480000
   7644   7646     1   0.15375 251793.120000
   7644   7664     1   0.14233 265014.560000
   7646   7647     1   0.15375 251793.120000
   7646   7653     1   0.14233 265014.560000
   7647   7648     1   0.15375 251793.120000
   7647   7666     1   0.14647 272713.120000
   7648   7652     1   0.14233 265014.560000
   7648   7661     1   0.14316 258236.480000
   7654   7659     1   0.14233 265014.560000
   7667   7669     1   0.14619 275056.160000
   7669   7671     1   0.15375 251793.120000
   7671   7675     1   0.14647 272713.120000
   7675   7676     1   0.14647 272713.120000
   7675   7677     1   0.14647 272713.120000
   7676   7687     1   0.15375 251793.120000
   7677   7679     1   0.15375 251793.120000
   7679   7683     1   0.15241 261918.400000
   7683   7684     1   0.12183 533627.360000
   7683   7715     1   0.13400 406935.840000
   7687   7690     1   0.15241 261918.400000
   7690   7691     1   0.12183 533627.360000
   7690   7739     1   0.13400 406935.840000
   7692   7693     1   0.15375 251793.120000
   7692   7703     1   0.15375 251793.120000
   7692   7710     1   0.14316 258236.480000
   7693   7695     1   0.15375 251793.120000
   7693   7713     1   0.14233 265014.560000
   7695   7696     1   0.15375 251793.120000
   7695   7702     1   0.14233 265014.560000
   7696   7697     1   0.15375 251793.120000
   7696   7715     1   0.14647 272713.120000
   7697   7701     1   0.14233 265014.560000
   7697   7710     1   0.14316 258236.480000
   7703   7708     1   0.14233 265014.560000
   7716   7717     1   0.15375 251793.120000
   7716   7727     1   0.15375 251793.120000
   7716   7734     1   0.14316 258236.480000
   7717   7719     1   0.15375 251793.120000
   7717   7737     1   0.14233 265014.560000
   7719   7720     1   0.15375 251793.120000
   7719   7726     1   0.14233 265014.560000
   7720   7721     1   0.15375 251793.120000
   7720   7739     1   0.14647 272713.120000
   7721   7725     1   0.14233 265014.560000
   7721   7734     1   0.14316 258236.480000
   7727   7732     1   0.14233 265014.560000
   7740   7742     1   0.14619 275056.160000
   7742   7744     1   0.15375 251793.120000
   7744   7748     1   0.14647 272713.120000
   7748   7749     1   0.14647 272713.120000
   7748   7750     1   0.14647 272713.120000
   7749   7760     1   0.15375 251793.120000
   7750   7752     1   0.15375 251793.120000
   7752   7756     1   0.15241 261918.400000
   7756   7757     1   0.12183 533627.360000
   7756   7788     1   0.13400 406935.840000
   7760   7763     1   0.15241 261918.400000
   7763   7764     1   0.12183 533627.360000
   7763   7812     1   0.13400 406935.840000
   7765   7766     1   0.15375 251793.120000
   7765   7776     1   0.15375 251793.120000
   7765   7783     1   0.14316 258236.480000
   7766   7768     1   0.15375 251793.120000
   7766   7786     1   0.14233 265014.560000
   7768   7769     1   0.15375 251793.120000
   7768   7775     1   0.14233 265014.560000
   7769   7770     1   0.15375 251793.120000
   7769   7788     1   0.14647 272713.120000
   7770   7774     1   0.14233 265014.560000
   7770   7783     1   0.14316 258236.480000
   7776   7781     1   0.14233 265014.560000
   7789   7790     1   0.15375 251793.120000
   7789   7800     1   0.15375 251793.120000
   7789   7807     1   0.14316 258236.480000
   7790   7792     1   0.15375 251793.120000
   7790   7810     1   0.14233 265014.560000
   7792   7793     1   0.15375 251793.120000
   7792   7799     1   0.14233 265014.560000
   7793   7794     1   0.15375 251793.120000
   7793   7812     1   0.14647 272713.120000
   7794   7798     1   0.14233 265014.560000
   7794   7807     1   0.14316 258236.480000
   7800   7805     1   0.14233 265014.560000
   7813   7815     1   0.14619 275056.160000
   7815   7817     1   0.15375 251793.120000
   7817   7821     1   0.14647 272713.120000
   7821   7822     1   0.14647 272713.120000
   7821   7823     1   0.14647 272713.120000
   7822   7833     1   0.15375 251793.120000
   7823   7825     1   0.15375 251793.120000
   7825   7829     1   0.15241 261918.400000
   7829   7830     1   0.12183 533627.360000
   7829   7861     1   0.13400 406935.840000
   7833   7836     1   0.15241 261918.400000
   7836   7837     1   0.12183 533627.360000
   7836   7885     1   0.13400 406935.840000
   7838   7839     1   0.15375 251793.120000
   7838   7849     1   0.15375 251793.120000
   7838   7856     1   0.14316 258236.480000
   7839   7841     1   0.15375 251793.120000
   7839   7859     1   0.14233 265014.560000
   7841   7842     1   0.15375 251793.120000
   7841   7848     1   0.14233 265014.560000
   7842   7843     1   0.15375 251793.120000
   7842   7861     1   0.14647 272713.120000
   7843   7847     1   0.14233 265014.560000
   7843   7856     1   0.14316 258236.480000
   7849   7854     1   0.14233 265014.560000
   7862   7863     1   0.15375 251793.120000
   7862   7873     1   0.15375 251793.120000
   7862   7880     1   0.14316 258236.480000
   7863   7865     1   0.15375 251793.120000
   7863   7883     1   0.14233 265014.560000
   7865   7866     1   0.15375 251793.120000
   7865   7872     1   0.14233 265014.560000
   7866   7867     1   0.15375 251793.120000
   7866   7885     1   0.14647 272713.120000
   7867   7871     1   0.14233 265014.560000
   7867   7880     1   0.14316 258236.480000
   7873   7878     1   0.14233 265014.560000
   7886   7888     1   0.14619 275056.160000
   7888   7890     1   0.15375 251793.120000
   7890   7894     1   0.14647 272713.120000
   7894   7895     1   0.14647 272713.120000
   7894   7896     1   0.14647 272713.120000
   7895   7906     1   0.15375 251793.120000
   7896   7898     1   0.15375 251793.120000
   7898   7902     1   0.15241 261918.400000
   7902   7903     1   0.12183 533627.360000
   7902   7934     1   0.13400 406935.840000
   7906   7909     1   0.15241 261918.400000
   7909   7910     1   0.12183 533627.360000
   7909   7958     1   0.13400 406935.840000
   7911   7912     1   0.15375 251793.120000
   7911   7922     1   0.15375 251793.120000
   7911   7929     1   0.14316 258236.480000
   7912   7914     1   0.15375 251793.120000
   7912   7932     1   0.14233 265014.560000
   7914   7915     1   0.15375 251793.120000
   7914   7921     1   0.14233 265014.560000
   7915   7916     1   0.15375 251793.120000
   7915   7934     1   0.14647 272713.120000
   7916   7920     1   0.14233 265014.560000
   7916   7929     1   0.14316 258236.480000
   7922   7927     1   0.14233 265014.560000
   7935   7936     1   0.15375 251793.120000
   7935   7946     1   0.15375 251793.120000
   7935   7953     1   0.14316 258236.480000
   7936   7938     1   0.15375 251793.120000
   7936   7956     1   0.14233 265014.560000
   7938   7939     1   0.15375 251793.120000
   7938   7945     1   0.14233 265014.560000
   7939   7940     1   0.15375 251793.120000
   7939   7958     1   0.14647 272713.120000
   7940   7944     1   0.14233 265014.560000
   7940   7953     1   0.14316 258236.480000
   7946   7951     1   0.14233 265014.560000
   7959   7961     1   0.14619 275056.160000
   7961   7963     1   0.15375 251793.120000
   7963   7967     1   0.14647 272713.120000
   7967   7968     1   0.14647 272713.120000
   7967   7969     1   0.14647 272713.120000
   7968   7979     1   0.15375 251793.120000
   7969   7971     1   0.15375 251793.120000
   7971   7975     1   0.15241 261918.400000
   7975   7976     1   0.12183 533627.360000
   7975   8007     1   0.13400 406935.840000
   7979   7982     1   0.15241 261918.400000
   7982   7983     1   0.12183 533627.360000
   7982   8031     1   0.13400 406935.840000
   7984   7985     1   0.15375 251793.120000
   7984   7995     1   0.15375 251793.120000
   7984   8002     1   0.14316 258236.480000
   7985   7987     1   0.15375 251793.120000
   7985   8005     1   0.14233 265014.560000
   7987   7988     1   0.15375 251793.120000
   7987   7994     1   0.14233 265014.560000
   7988   7989     1   0.15375 251793.120000
   7988   8007     1   0.14647 272713.120000
   7989   7993     1   0.14233 265014.560000
   7989   8002     1   0.14316 258236.480000
   7995   8000     1   0.14233 265014.560000
   8008   8009     1   0.15375 251793.120000
   8008   8019     1   0.15375 251793.120000
   8008   8026     1   0.14316 258236.480000
   8009   8011     1   0.15375 251793.120000
   8009   8029     1   0.14233 265014.560000
   8011   8012     1   0.15375 251793.120000
   8011   8018     1   0.14233 265014.560000
   8012   8013     1   0.15375 251793.120000
   8012   8031     1   0.14647 272713.120000
   8013   8017     1   0.14233 265014.560000
   8013   8026     1   0.14316 258236.480000
   8019   8024     1   0.14233 265014.560000
   8032   8034     1   0.14619 275056.160000
   8034   8036     1   0.15375 251793.120000
   8036   8040     1   0.14647 272713.120000
   8040   8041     1   0.14647 272713.120000
   8040   8042     1   0.14647 272713.120000
   8041   8052     1   0.15375 251793.120000
   8042   8044     1   0.15375 251793.120000
   8044   8048     1   0.15241 261918.400000
   8048   8049     1   0.12183 533627.360000
   8048   8080     1   0.13400 406935.840000
   8052   8055     1   0.15241 261918.400000
   8055   8056     1   0.12183 533627.360000
   8055   8104     1   0.13400 406935.840000
   8057   8058     1   0.15375 251793.120000
   8057   8068     1   0.15375 251793.120000
   8057   8075     1   0.14316 258236.480000
   8058   8060     1   0.15375 251793.120000
   8058   8078     1   0.14233 265014.560000
   8060   8061     1   0.15375 251793.120000
   8060   8067     1   0.14233 265014.560000
   8061   8062     1   0.15375 251793.120000
   8061   8080     1   0.14647 272713.120000
   8062   8066     1   0.14233 265014.560000
   8062   8075     1   0.14316 258236.480000
   8068   8073     1   0.14233 265014.560000
   8081   8082     1   0.15375 251793.120000
   8081   8092     1   0.15375 251793.120000
   8081   8099     1   0.14316 258236.480000
   8082   8084     1   0.15375 251793.120000
   8082   8102     1   0.14233 265014.560000
   8084   8085     1   0.15375 251793.120000
   8084   8091     1   0.14233 265014.560000
   8085   8086     1   0.15375 251793.120000
   8085   8104     1   0.14647 272713.120000
   8086   8090     1   0.14233 265014.560000
   8086   8099     1   0.14316 258236.480000
   8092   8097     1   0.14233 265014.560000
   8105   8107     1   0.14619 275056.160000
   8107   8109     1   0.15375 251793.120000
   8109   8113     1   0.14647 272713.120000
   8113   8114     1   0.14647 272713.120000
   8113   8115     1   0.14647 272713.120000
   8114   8125     1   0.15375 251793.120000
   8115   8117     1   0.15375 251793.120000
   8117   8121     1   0.15241 261918.400000
   8121   8122     1   0.12183 533627.360000
   8121   8153     1   0.13400 406935.840000
   8125   8128     1   0.15241 261918.400000
   8128   8129     1   0.12183 533627.360000
   8128   8177     1   0.13400 406935.840000
   8130   8131     1   0.15375 251793.120000
   8130   8141     1   0.15375 251793.120000
   8130   8148     1   0.14316 258236.480000
   8131   8133     1   0.15375 251793.120000
   8131   8151     1   0.14233 265014.560000
   8133   8134     1   0.15375 251793.120000
   8133   8140     1   0.14233 265014.560000
   8134   8135     1   0.15375 251793.120000
   8134   8153     1   0.14647 272713.120000
   8135   8139     1   0.14233 265014.560000
   8135   8148     1   0.14316 258236.480000
   8141   8146     1   0.14233 265014.560000
   8154   8155     1   0.15375 251793.120000
   8154   8165     1   0.15375 251793.120000
   8154   8172     1   0.14316 258236.480000
   8155   8157     1   0.15375 251793.120000
   8155   8175     1   0.14233 265014.560000
   8157   8158     1   0.15375 251793.120000
   8157   8164     1   0.14233 265014.560000
   8158   8159     1   0.15375 251793.120000
   8158   8177     1   0.14647 272713.120000
   8159   8163     1   0.14233 265014.560000
   8159   8172     1   0.14316 258236.480000
   8165   8170     1   0.14233 265014.560000
   8178   8180     1   0.14619 275056.160000
   8180   8182     1   0.15375 251793.120000
   8182   8186     1   0.14647 272713.120000
   8186   8187     1   0.14647 272713.120000
   8186   8188     1   0.14647 272713.120000
   8187   8198     1   0.15375 251793.120000
   8188   8190     1   0.15375 251793.120000
   8190   8194     1   0.15241 261918.400000
   8194   8195     1   0.12183 533627.360000
   8194   8226     1   0.13400 406935.840000
   8198   8201     1   0.15241 261918.400000
   8201   8202     1   0.12183 533627.360000
   8201   8250     1   0.13400 406935.840000
   8203   8204     1   0.15375 251793.120000
   8203   8214     1   0.15375 251793.120000
   8203   8221     1   0.14316 258236.480000
   8204   8206     1   0.15375 251793.120000
   8204   8224     1   0.14233 265014.560000
   8206   8207     1   0.15375 251793.120000
   8206   8213     1   0.14233 265014.560000
   8207   8208     1   0.15375 251793.120000
   8207   8226     1   0.14647 272713.120000
   8208   8212     1   0.14233 265014.560000
   8208   8221     1   0.14316 258236.480000
   8214   8219     1   0.14233 265014.560000
   8227   8228     1   0.15375 251793.120000
   8227   8238     1   0.15375 251793.120000
   8227   8245     1   0.14316 258236.480000
   8228   8230     1   0.15375 251793.120000
   8228   8248     1   0.14233 265014.560000
   8230   8231     1   0.15375 251793.120000
   8230   8237     1   0.14233 265014.560000
   8231   8232     1   0.15375 251793.120000
   8231   8250     1   0.14647 272713.120000
   8232   8236     1   0.14233 265014.560000
   8232   8245     1   0.14316 258236.480000
   8238   8243     1   0.14233 265014.560000
   8251   8253     1   0.14619 275056.160000
   8253   8255     1   0.15375 251793.120000
   8255   8259     1   0.14647 272713.120000
   8259   8260     1   0.14647 272713.120000
   8259   8261     1   0.14647 272713.120000
   8260   8271     1   0.15375 251793.120000
   8261   8263     1   0.15375 251793.120000
   8263   8267     1   0.15241 261918.400000
   8267   8268     1   0.12183 533627.360000
   8267   8299     1   0.13400 406935.840000
   8271   8274     1   0.15241 261918.400000
   8274   8275     1   0.12183 533627.360000
   8274   8323     1   0.13400 406935.840000
   8276   8277     1   0.15375 251793.120000
   8276   8287     1   0.15375 251793.120000
   8276   8294     1   0.14316 258236.480000
   8277   8279     1   0.15375 251793.120000
   8277   8297     1   0.14233 265014.560000
   8279   8280     1   0.15375 251793.120000
   8279   8286     1   0.14233 265014.560000
   8280   8281     1   0.15375 251793.120000
   8280   8299     1   0.14647 272713.120000
   8281   8285     1   0.14233 265014.560000
   8281   8294     1   0.14316 258236.480000
   8287   8292     1   0.14233 265014.560000
   8300   8301     1   0.15375 251793.120000
   8300   8311     1   0.15375 251793.120000
   8300   8318     1   0.14316 258236.480000
   8301   8303     1   0.15375 251793.120000
   8301   8321     1   0.14233 265014.560000
   8303   8304     1   0.15375 251793.120000
   8303   8310     1   0.14233 265014.560000
   8304   8305     1   0.15375 251793.120000
   8304   8323     1   0.14647 272713.120000
   8305   8309     1   0.14233 265014.560000
   8305   8318     1   0.14316 258236.480000
   8311   8316     1   0.14233 265014.560000
   8324   8326     1   0.14619 275056.160000
   8326   8328     1   0.15375 251793.120000
   8328   8332     1   0.14647 272713.120000
   8332   8333     1   0.14647 272713.120000
   8332   8334     1   0.14647 272713.120000
   8333   8344     1   0.15375 251793.120000
   8334   8336     1   0.15375 251793.120000
   8336   8340     1   0.15241 261918.400000
   8340   8341     1   0.12183 533627.360000
   8340   8372     1   0.13400 406935.840000
   8344   8347     1   0.15241 261918.400000
   8347   8348     1   0.12183 533627.360000
   8347   8396     1   0.13400 406935.840000
   8349   8350     1   0.15375 251793.120000
   8349   8360     1   0.15375 251793.120000
   8349   8367     1   0.14316 258236.480000
   8350   8352     1   0.15375 251793.120000
   8350   8370     1   0.14233 265014.560000
   8352   8353     1   0.15375 251793.120000
   8352   8359     1   0.14233 265014.560000
   8353   8354     1   0.15375 251793.120000
   8353   8372     1   0.14647 272713.120000
   8354   8358     1   0.14233 265014.560000
   8354   8367     1   0.14316 258236.480000
   8360   8365     1   0.14233 265014.560000
   8373   8374     1   0.15375 251793.120000
   8373   8384     1   0.15375 251793.120000
   8373   8391     1   0.14316 258236.480000
   8374   8376     1   0.15375 251793.120000
   8374   8394     1   0.14233 265014.560000
   8376   8377     1   0.15375 251793.120000
   8376   8383     1   0.14233 265014.560000
   8377   8378     1   0.15375 251793.120000
   8377   8396     1   0.14647 272713.120000
   8378   8382     1   0.14233 265014.560000
   8378   8391     1   0.14316 258236.480000
   8384   8389     1   0.14233 265014.560000
   8397   8399     1   0.14619 275056.160000
   8399   8401     1   0.15375 251793.120000
   8401   8405     1   0.14647 272713.120000
   8405   8406     1   0.14647 272713.120000
   8405   8407     1   0.14647 272713.120000
   8406   8417     1   0.15375 251793.120000
   8407   8409     1   0.15375 251793.120000
   8409   8413     1   0.15241 261918.400000
   8413   8414     1   0.12183 533627.360000
   8413   8445     1   0.13400 406935.840000
   8417   8420     1   0.15241 261918.400000
   8420   8421     1   0.12183 533627.360000
   8420   8469     1   0.13400 406935.840000
   8422   8423     1   0.15375 251793.120000
   8422   8433     1   0.15375 251793.120000
   8422   8440     1   0.14316 258236.480000
   8423   8425     1   0.15375 251793.120000
   8423   8443     1   0.14233 265014.560000
   8425   8426     1   0.15375 251793.120000
   8425   8432     1   0.14233 265014.560000
   8426   8427     1   0.15375 251793.120000
   8426   8445     1   0.14647 272713.120000
   8427   8431     1   0.14233 265014.560000
   8427   8440     1   0.14316 258236.480000
   8433   8438     1   0.14233 265014.560000
   8446   8447     1   0.15375 251793.120000
   8446   8457     1   0.15375 251793.120000
   8446   8464     1   0.14316 258236.480000
   8447   8449     1   0.15375 251793.120000
   8447   8467     1   0.14233 265014.560000
   8449   8450     1   0.15375 251793.120000
   8449   8456     1   0.14233 265014.560000
   8450   8451     1   0.15375 251793.120000
   8450   8469     1   0.14647 272713.120000
   8451   8455     1   0.14233 265014.560000
   8451   8464     1   0.14316 258236.480000
   8457   8462     1   0.14233 265014.560000
   8470   8472     1   0.14619 275056.160000
   8472   8474     1   0.15375 251793.120000
   8474   8478     1   0.14647 272713.120000
   8478   8479     1   0.14647 272713.120000
   8478   8480     1   0.14647 272713.120000
   8479   8490     1   0.15375 251793.120000
   8480   8482     1   0.15375 251793.120000
   8482   8486     1   0.15241 261918.400000
   8486   8487     1   0.12183 533627.360000
   8486   8518     1   0.13400 406935.840000
   8490   8493     1   0.15241 261918.400000
   8493   8494     1   0.12183 533627.360000
   8493   8542     1   0.13400 406935.840000
   8495   8496     1   0.15375 251793.120000
   8495   8506     1   0.15375 251793.120000
   8495   8513     1   0.14316 258236.480000
   8496   8498     1   0.15375 251793.120000
   8496   8516     1   0.14233 265014.560000
   8498   8499     1   0.15375 251793.120000
   8498   8505     1   0.14233 265014.560000
   8499   8500     1   0.15375 251793.120000
   8499   8518     1   0.14647 272713.120000
   8500   8504     1   0.14233 265014.560000
   8500   8513     1   0.14316 258236.480000
   8506   8511     1   0.14233 265014.560000
   8519   8520     1   0.15375 251793.120000
   8519   8530     1   0.15375 251793.120000
   8519   8537     1   0.14316 258236.480000
   8520   8522     1   0.15375 251793.120000
   8520   8540     1   0.14233 265014.560000
   8522   8523     1   0.15375 251793.120000
   8522   8529     1   0.14233 265014.560000
   8523   8524     1   0.15375 251793.120000
   8523   8542     1   0.14647 272713.120000
   8524   8528     1   0.14233 265014.560000
   8524   8537     1   0.14316 258236.480000
   8530   8535     1   0.14233 265014.560000
   8543   8545     1   0.14619 275056.160000
   8545   8547     1   0.15375 251793.120000
   8547   8551     1   0.14647 272713.120000
   8551   8552     1   0.14647 272713.120000
   8551   8553     1   0.14647 272713.120000
   8552   8563     1   0.15375 251793.120000
   8553   8555     1   0.15375 251793.120000
   8555   8559     1   0.15241 261918.400000
   8559   8560     1   0.12183 533627.360000
   8559   8591     1   0.13400 406935.840000
   8563   8566     1   0.15241 261918.400000
   8566   8567     1   0.12183 533627.360000
   8566   8615     1   0.13400 406935.840000
   8568   8569     1   0.15375 251793.120000
   8568   8579     1   0.15375 251793.120000
   8568   8586     1   0.14316 258236.480000
   8569   8571     1   0.15375 251793.120000
   8569   8589     1   0.14233 265014.560000
   8571   8572     1   0.15375 251793.120000
   8571   8578     1   0.14233 265014.560000
   8572   8573     1   0.15375 251793.120000
   8572   8591     1   0.14647 272713.120000
   8573   8577     1   0.14233 265014.560000
   8573   8586     1   0.14316 258236.480000
   8579   8584     1   0.14233 265014.560000
   8592   8593     1   0.15375 251793.120000
   8592   8603     1   0.15375 251793.120000
   8592   8610     1   0.14316 258236.480000
   8593   8595     1   0.15375 251793.120000
   8593   8613     1   0.14233 265014.560000
   8595   8596     1   0.15375 251793.120000
   8595   8602     1   0.14233 265014.560000
   8596   8597     1   0.15375 251793.120000
   8596   8615     1   0.14647 272713.120000
   8597   8601     1   0.14233 265014.560000
   8597   8610     1   0.14316 258236.480000
   8603   8608     1   0.14233 265014.560000
   8616   8618     1   0.14619 275056.160000
   8618   8620     1   0.15375 251793.120000
   8620   8624     1   0.14647 272713.120000
   8624   8625     1   0.14647 272713.120000
   8624   8626     1   0.14647 272713.120000
   8625   8636     1   0.15375 251793.120000
   8626   8628     1   0.15375 251793.120000
   8628   8632     1   0.15241 261918.400000
   8632   8633     1   0.12183 533627.360000
   8632   8664     1   0.13400 406935.840000
   8636   8639     1   0.15241 261918.400000
   8639   8640     1   0.12183 533627.360000
   8639   8688     1   0.13400 406935.840000
   8641   8642     1   0.15375 251793.120000
   8641   8652     1   0.15375 251793.120000
   8641   8659     1   0.14316 258236.480000
   8642   8644     1   0.15375 251793.120000
   8642   8662     1   0.14233 265014.560000
   8644   8645     1   0.15375 251793.120000
   8644   8651     1   0.14233 265014.560000
   8645   8646     1   0.15375 251793.120000
   8645   8664     1   0.14647 272713.120000
   8646   8650     1   0.14233 265014.560000
   8646   8659     1   0.14316 258236.480000
   8652   8657     1   0.14233 265014.560000
   8665   8666     1   0.15375 251793.120000
   8665   8676     1   0.15375 251793.120000
   8665   8683     1   0.14316 258236.480000
   8666   8668     1   0.15375 251793.120000
   8666   8686     1   0.14233 265014.560000
   8668   8669     1   0.15375 251793.120000
   8668   8675     1   0.14233 265014.560000
   8669   8670     1   0.15375 251793.120000
   8669   8688     1   0.14647 272713.120000
   8670   8674     1   0.14233 265014.560000
   8670   8683     1   0.14316 258236.480000
   8676   8681     1   0.14233 265014.560000
   8689   8691     1   0.14619 275056.160000
   8691   8693     1   0.15375 251793.120000
   8693   8697     1   0.14647 272713.120000
   8697   8698     1   0.14647 272713.120000
   8697   8699     1   0.14647 272713.120000
   8698   8709     1   0.15375 251793.120000
   8699   8701     1   0.15375 251793.120000
   8701   8705     1   0.15241 261918.400000
   8705   8706     1   0.12183 533627.360000
   8705   8737     1   0.13400 406935.840000
   8709   8712     1   0.15241 261918.400000
   8712   8713     1   0.12183 533627.360000
   8712   8761     1   0.13400 406935.840000
   8714   8715     1   0.15375 251793.120000
   8714   8725     1   0.15375 251793.120000
   8714   8732     1   0.14316 258236.480000
   8715   8717     1   0.15375 251793.120000
   8715   8735     1   0.14233 265014.560000
   8717   8718     1   0.15375 251793.120000
   8717   8724     1   0.14233 265014.560000
   8718   8719     1   0.15375 251793.120000
   8718   8737     1   0.14647 272713.120000
   8719   8723     1   0.14233 265014.560000
   8719   8732     1   0.14316 258236.480000
   8725   8730     1   0.14233 265014.560000
   8738   8739     1   0.15375 251793.120000
   8738   8749     1   0.15375 251793.120000
   8738   8756     1   0.14316 258236.480000
   8739   8741     1   0.15375 251793.120000
   8739   8759     1   0.14233 265014.560000
   8741   8742     1   0.15375 251793.120000
   8741   8748     1   0.14233 265014.560000
   8742   8743     1   0.15375 251793.120000
   8742   8761     1   0.14647 272713.120000
   8743   8747     1   0.14233 265014.560000
   8743   8756     1   0.14316 258236.480000
   8749   8754     1   0.14233 265014.560000
   8762   8764     1   0.14619 275056.160000
   8764   8766     1   0.15375 251793.120000
   8766   8770     1   0.14647 272713.120000
   8770   8771     1   0.14647 272713.120000
   8770   8772     1   0.14647 272713.120000
   8771   8782     1   0.15375 251793.120000
   8772   8774     1   0.15375 251793.120000
   8774   8778     1   0.15241 261918.400000
   8778   8779     1   0.12183 533627.360000
   8778   8810     1   0.13400 406935.840000
   8782   8785     1   0.15241 261918.400000
   8785   8786     1   0.12183 533627.360000
   8785   8834     1   0.13400 406935.840000
   8787   8788     1   0.15375 251793.120000
   8787   8798     1   0.15375 251793.120000
   8787   8805     1   0.14316 258236.480000
   8788   8790     1   0.15375 251793.120000
   8788   8808     1   0.14233 265014.560000
   8790   8791     1   0.15375 251793.120000
   8790   8797     1   0.14233 265014.560000
   8791   8792     1   0.15375 251793.120000
   8791   8810     1   0.14647 272713.120000
   8792   8796     1   0.14233 265014.560000
   8792   8805     1   0.14316 258236.480000
   8798   8803     1   0.14233 265014.560000
   8811   8812     1   0.15375 251793.120000
   8811   8822     1   0.15375 251793.120000
   8811   8829     1   0.14316 258236.480000
   8812   8814     1   0.15375 251793.120000
   8812   8832     1   0.14233 265014.560000
   8814   8815     1   0.15375 251793.120000
   8814   8821     1   0.14233 265014.560000
   8815   8816     1   0.15375 251793.120000
   8815   8834     1   0.14647 272713.120000
   8816   8820     1   0.14233 265014.560000
   8816   8829     1   0.14316 258236.480000
   8822   8827     1   0.14233 265014.560000
   8835   8837     1   0.14619 275056.160000
   8837   8839     1   0.15375 251793.120000
   8839   8843     1   0.14647 272713.120000
   8843   8844     1   0.14647 272713.120000
   8843   8845     1   0.14647 272713.120000
   8844   8855     1   0.15375 251793.120000
   8845   8847     1   0.15375 251793.120000
   8847   8851     1   0.15241 261918.400000
   8851   8852     1   0.12183 533627.360000
   8851   8883     1   0.13400 406935.840000
   8855   8858     1   0.15241 261918.400000
   8858   8859     1   0.12183 533627.360000
   8858   8907     1   0.13400 406935.840000
   8860   8861     1   0.15375 251793.120000
   8860   8871     1   0.15375 251793.120000
   8860   8878     1   0.14316 258236.480000
   8861   8863     1   0.15375 251793.120000
   8861   8881     1   0.14233 265014.560000
   8863   8864     1   0.15375 251793.120000
   8863   8870     1   0.14233 265014.560000
   8864   8865     1   0.15375 251793.120000
   8864   8883     1   0.14647 272713.120000
   8865   8869     1   0.14233 265014.560000
   8865   8878     1   0.14316 258236.480000
   8871   8876     1   0.14233 265014.560000
   8884   8885     1   0.15375 251793.120000
   8884   8895     1   0.15375 251793.120000
   8884   8902     1   0.14316 258236.480000
   8885   8887     1   0.15375 251793.120000
   8885   8905     1   0.14233 265014.560000
   8887   8888     1   0.15375 251793.120000
   8887   8894     1   0.14233 265014.560000
   8888   8889     1   0.15375 251793.120000
   8888   8907     1   0.14647 272713.120000
   8889   8893     1   0.14233 265014.560000
   8889   8902     1   0.14316 258236.480000
   8895   8900     1   0.14233 265014.560000
   8908   8910     1   0.14619 275056.160000
   8910   8912     1   0.15375 251793.120000
   8912   8916     1   0.14647 272713.120000
   8916   8917     1   0.14647 272713.120000
   8916   8918     1   0.14647 272713.120000
   8917   8928     1   0.15375 251793.120000
   8918   8920     1   0.15375 251793.120000
   8920   8924     1   0.15241 261918.400000
   8924   8925     1   0.12183 533627.360000
   8924   8956     1   0.13400 406935.840000
   8928   8931     1   0.15241 261918.400000
   8931   8932     1   0.12183 533627.360000
   8931   8980     1   0.13400 406935.840000
   8933   8934     1   0.15375 251793.120000
   8933   8944     1   0.15375 251793.120000
   8933   8951     1   0.14316 258236.480000
   8934   8936     1   0.15375 251793.120000
   8934   8954     1   0.14233 265014.560000
   8936   8937     1   0.15375 251793.120000
   8936   8943     1   0.14233 265014.560000
   8937   8938     1   0.15375 251793.120000
   8937   8956     1   0.14647 272713.120000
   8938   8942     1   0.14233 265014.560000
   8938   8951     1   0.14316 258236.480000
   8944   8949     1   0.14233 265014.560000
   8957   8958     1   0.15375 251793.120000
   8957   8968     1   0.15375 251793.120000
   8957   8975     1   0.14316 258236.480000
   8958   8960     1   0.15375 251793.120000
   8958   8978     1   0.14233 265014.560000
   8960   8961     1   0.15375 251793.120000
   8960   8967     1   0.14233 265014.560000
   8961   8962     1   0.15375 251793.120000
   8961   8980     1   0.14647 272713.120000
   8962   8966     1   0.14233 265014.560000
   8962   8975     1   0.14316 258236.480000
   8968   8973     1   0.14233 265014.560000
   8981   8983     1   0.14619 275056.160000
   8983   8985     1   0.15375 251793.120000
   8985   8989     1   0.14647 272713.120000
   8989   8990     1   0.14647 272713.120000
   8989   8991     1   0.14647 272713.120000
   8990   9001     1   0.15375 251793.120000
   8991   8993     1   0.15375 251793.120000
   8993   8997     1   0.15241 261918.400000
   8997   8998     1   0.12183 533627.360000
   8997   9029     1   0.13400 406935.840000
   9001   9004     1   0.15241 261918.400000
   9004   9005     1   0.12183 533627.360000
   9004   9053     1   0.13400 406935.840000
   9006   9007     1   0.15375 251793.120000
   9006   9017     1   0.15375 251793.120000
   9006   9024     1   0.14316 258236.480000
   9007   9009     1   0.15375 251793.120000
   9007   9027     1   0.14233 265014.560000
   9009   9010     1   0.15375 251793.120000
   9009   9016     1   0.14233 265014.560000
   9010   9011     1   0.15375 251793.120000
   9010   9029     1   0.14647 272713.120000
   9011   9015     1   0.14233 265014.560000
   9011   9024     1   0.14316 258236.480000
   9017   9022     1   0.14233 265014.560000
   9030   9031     1   0.15375 251793.120000
   9030   9041     1   0.15375 251793.120000
   9030   9048     1   0.14316 258236.480000
   9031   9033     1   0.15375 251793.120000
   9031   9051     1   0.14233 265014.560000
   9033   9034     1   0.15375 251793.120000
   9033   9040     1   0.14233 265014.560000
   9034   9035     1   0.15375 251793.120000
   9034   9053     1   0.14647 272713.120000
   9035   9039     1   0.14233 265014.560000
   9035   9048     1   0.14316 258236.480000
   9041   9046     1   0.14233 265014.560000
   9054   9056     1   0.14619 275056.160000
   9056   9058     1   0.15375 251793.120000
   9058   9062     1   0.14647 272713.120000
   9062   9063     1   0.14647 272713.120000
   9062   9064     1   0.14647 272713.120000
   9063   9074     1   0.15375 251793.120000
   9064   9066     1   0.15375 251793.120000
   9066   9070     1   0.15241 261918.400000
   9070   9071     1   0.12183 533627.360000
   9070   9102     1   0.13400 406935.840000
   9074   9077     1   0.15241 261918.400000
   9077   9078     1   0.12183 533627.360000
   9077   9126     1   0.13400 406935.840000
   9079   9080     1   0.15375 251793.120000
   9079   9090     1   0.15375 251793.120000
   9079   9097     1   0.14316 258236.480000
   9080   9082     1   0.15375 251793.120000
   9080   9100     1   0.14233 265014.560000
   9082   9083     1   0.15375 251793.120000
   9082   9089     1   0.14233 265014.560000
   9083   9084     1   0.15375 251793.120000
   9083   9102     1   0.14647 272713.120000
   9084   9088     1   0.14233 265014.560000
   9084   9097     1   0.14316 258236.480000
   9090   9095     1   0.14233 265014.560000
   9103   9104     1   0.15375 251793.120000
   9103   9114     1   0.15375 251793.120000
   9103   9121     1   0.14316 258236.480000
   9104   9106     1   0.15375 251793.120000
   9104   9124     1   0.14233 265014.560000
   9106   9107     1   0.15375 251793.120000
   9106   9113     1   0.14233 265014.560000
   9107   9108     1   0.15375 251793.120000
   9107   9126     1   0.14647 272713.120000
   9108   9112     1   0.14233 265014.560000
   9108   9121     1   0.14316 258236.480000
   9114   9119     1   0.14233 265014.560000
   9127   9129     1   0.14619 275056.160000
   9129   9131     1   0.15375 251793.120000
   9131   9135     1   0.14647 272713.120000
   9135   9136     1   0.14647 272713.120000
   9135   9137     1   0.14647 272713.120000
   9136   9147     1   0.15375 251793.120000
   9137   9139     1   0.15375 251793.120000
   9139   9143     1   0.15241 261918.400000
   9143   9144     1   0.12183 533627.360000
   9143   9175     1   0.13400 406935.840000
   9147   9150     1   0.15241 261918.400000
   9150   9151     1   0.12183 533627.360000
   9150   9199     1   0.13400 406935.840000
   9152   9153     1   0.15375 251793.120000
   9152   9163     1   0.15375 251793.120000
   9152   9170     1   0.14316 258236.480000
   9153   9155     1   0.15375 251793.120000
   9153   9173     1   0.14233 265014.560000
   9155   9156     1   0.15375 251793.120000
   9155   9162     1   0.14233 265014.560000
   9156   9157     1   0.15375 251793.120000
   9156   9175     1   0.14647 272713.120000
   9157   9161     1   0.14233 265014.560000
   9157   9170     1   0.14316 258236.480000
   9163   9168     1   0.14233 265014.560000
   9176   9177     1   0.15375 251793.120000
   9176   9187     1   0.15375 251793.120000
   9176   9194     1   0.14316 258236.480000
   9177   9179     1   0.15375 251793.120000
   9177   9197     1   0.14233 265014.560000
   9179   9180     1   0.15375 251793.120000
   9179   9186     1   0.14233 265014.560000
   9180   9181     1   0.15375 251793.120000
   9180   9199     1   0.14647 272713.120000
   9181   9185     1   0.14233 265014.560000
   9181   9194     1   0.14316 258236.480000
   9187   9192     1   0.14233 265014.560000
   9200   9202     1   0.14619 275056.160000
   9202   9204     1   0.15375 251793.120000
   9204   9208     1   0.14647 272713.120000
   9208   9209     1   0.14647 272713.120000
   9208   9210     1   0.14647 272713.120000
   9209   9220     1   0.15375 251793.120000
   9210   9212     1   0.15375 251793.120000
   9212   9216     1   0.15241 261918.400000
   9216   9217     1   0.12183 533627.360000
   9216   9248     1   0.13400 406935.840000
   9220   9223     1   0.15241 261918.400000
   9223   9224     1   0.12183 533627.360000
   9223   9272     1   0.13400 406935.840000
   9225   9226     1   0.15375 251793.120000
   9225   9236     1   0.15375 251793.120000
   9225   9243     1   0.14316 258236.480000
   9226   9228     1   0.15375 251793.120000
   9226   9246     1   0.14233 265014.560000
   9228   9229     1   0.15375 251793.120000
   9228   9235     1   0.14233 265014.560000
   9229   9230     1   0.15375 251793.120000
   9229   9248     1   0.14647 272713.120000
   9230   9234     1   0.14233 265014.560000
   9230   9243     1   0.14316 258236.480000
   9236   9241     1   0.14233 265014.560000
   9249   9250     1   0.15375 251793.120000
   9249   9260     1   0.15375 251793.120000
   9249   9267     1   0.14316 258236.480000
   9250   9252     1   0.15375 251793.120000
   9250   9270     1   0.14233 265014.560000
   9252   9253     1   0.15375 251793.120000
   9252   9259     1   0.14233 265014.560000
   9253   9254     1   0.15375 251793.120000
   9253   9272     1   0.14647 272713.120000
   9254   9258     1   0.14233 265014.560000
   9254   9267     1   0.14316 258236.480000
   9260   9265     1   0.14233 265014.560000
   9273   9275     1   0.14619 275056.160000
   9275   9277     1   0.15375 251793.120000
   9277   9281     1   0.14647 272713.120000
   9281   9282     1   0.14647 272713.120000
   9281   9283     1   0.14647 272713.120000
   9282   9293     1   0.15375 251793.120000
   9283   9285     1   0.15375 251793.120000
   9285   9289     1   0.15241 261918.400000
   9289   9290     1   0.12183 533627.360000
   9289   9321     1   0.13400 406935.840000
   9293   9296     1   0.15241 261918.400000
   9296   9297     1   0.12183 533627.360000
   9296   9345     1   0.13400 406935.840000
   9298   9299     1   0.15375 251793.120000
   9298   9309     1   0.15375 251793.120000
   9298   9316     1   0.14316 258236.480000
   9299   9301     1   0.15375 251793.120000
   9299   9319     1   0.14233 265014.560000
   9301   9302     1   0.15375 251793.120000
   9301   9308     1   0.14233 265014.560000
   9302   9303     1   0.15375 251793.120000
   9302   9321     1   0.14647 272713.120000
   9303   9307     1   0.14233 265014.560000
   9303   9316     1   0.14316 258236.480000
   9309   9314     1   0.14233 265014.560000
   9322   9323     1   0.15375 251793.120000
   9322   9333     1   0.15375 251793.120000
   9322   9340     1   0.14316 258236.480000
   9323   9325     1   0.15375 251793.120000
   9323   9343     1   0.14233 265014.560000
   9325   9326     1   0.15375 251793.120000
   9325   9332     1   0.14233 265014.560000
   9326   9327     1   0.15375 251793.120000
   9326   9345     1   0.14647 272713.120000
   9327   9331     1   0.14233 265014.560000
   9327   9340     1   0.14316 258236.480000
   9333   9338     1   0.14233 265014.560000
   9346   9348     1   0.14619 275056.160000
   9348   9350     1   0.15375 251793.120000
   9350   9354     1   0.14647 272713.120000
   9354   9355     1   0.14647 272713.120000
   9354   9356     1   0.14647 272713.120000
   9355   9366     1   0.15375 251793.120000
   9356   9358     1   0.15375 251793.120000
   9358   9362     1   0.15241 261918.400000
   9362   9363     1   0.12183 533627.360000
   9362   9394     1   0.13400 406935.840000
   9366   9369     1   0.15241 261918.400000
   9369   9370     1   0.12183 533627.360000
   9369   9418     1   0.13400 406935.840000
   9371   9372     1   0.15375 251793.120000
   9371   9382     1   0.15375 251793.120000
   9371   9389     1   0.14316 258236.480000
   9372   9374     1   0.15375 251793.120000
   9372   9392     1   0.14233 265014.560000
   9374   9375     1   0.15375 251793.120000
   9374   9381     1   0.14233 265014.560000
   9375   9376     1   0.15375 251793.120000
   9375   9394     1   0.14647 272713.120000
   9376   9380     1   0.14233 265014.560000
   9376   9389     1   0.14316 258236.480000
   9382   9387     1   0.14233 265014.560000
   9395   9396     1   0.15375 251793.120000
   9395   9406     1   0.15375 251793.120000
   9395   9413     1   0.14316 258236.480000
   9396   9398     1   0.15375 251793.120000
   9396   9416     1   0.14233 265014.560000
   9398   9399     1   0.15375 251793.120000
   9398   9405     1   0.14233 265014.560000
   9399   9400     1   0.15375 251793.120000
   9399   9418     1   0.14647 272713.120000
   9400   9404     1   0.14233 265014.560000
   9400   9413     1   0.14316 258236.480000
   9406   9411     1   0.14233 265014.560000
   9419   9421     1   0.14619 275056.160000
   9421   9423     1   0.15375 251793.120000
   9423   9427     1   0.14647 272713.120000
   9427   9428     1   0.14647 272713.120000
   9427   9429     1   0.14647 272713.120000
   9428   9439     1   0.15375 251793.120000
   9429   9431     1   0.15375 251793.120000
   9431   9435     1   0.15241 261918.400000
   9435   9436     1   0.12183 533627.360000
   9435   9467     1   0.13400 406935.840000
   9439   9442     1   0.15241 261918.400000
   9442   9443     1   0.12183 533627.360000
   9442   9491     1   0.13400 406935.840000
   9444   9445     1   0.15375 251793.120000
   9444   9455     1   0.15375 251793.120000
   9444   9462     1   0.14316 258236.480000
   9445   9447     1   0.15375 251793.120000
   9445   9465     1   0.14233 265014.560000
   9447   9448     1   0.15375 251793.120000
   9447   9454     1   0.14233 265014.560000
   9448   9449     1   0.15375 251793.120000
   9448   9467     1   0.14647 272713.120000
   9449   9453     1   0.14233 265014.560000
   9449   9462     1   0.14316 258236.480000
   9455   9460     1   0.14233 265014.560000
   9468   9469     1   0.15375 251793.120000
   9468   9479     1   0.15375 251793.120000
   9468   9486     1   0.14316 258236.480000
   9469   9471     1   0.15375 251793.120000
   9469   9489     1   0.14233 265014.560000
   9471   9472     1   0.15375 251793.120000
   9471   9478     1   0.14233 265014.560000
   9472   9473     1   0.15375 251793.120000
   9472   9491     1   0.14647 272713.120000
   9473   9477     1   0.14233 265014.560000
   9473   9486     1   0.14316 258236.480000
   9479   9484     1   0.14233 265014.560000
   9492   9494     1   0.14619 275056.160000
   9494   9496     1   0.15375 251793.120000
   9496   9500     1   0.14647 272713.120000
   9500   9501     1   0.14647 272713.120000
   9500   9502     1   0.14647 272713.120000
   9501   9512     1   0.15375 251793.120000
   9502   9504     1   0.15375 251793.120000
   9504   9508     1   0.15241 261918.400000
   9508   9509     1   0.12183 533627.360000
   9508   9540     1   0.13400 406935.840000
   9512   9515     1   0.15241 261918.400000
   9515   9516     1   0.12183 533627.360000
   9515   9564     1   0.13400 406935.840000
   9517   9518     1   0.15375 251793.120000
   9517   9528     1   0.15375 251793.120000
   9517   9535     1   0.14316 258236.480000
   9518   9520     1   0.15375 251793.120000
   9518   9538     1   0.14233 265014.560000
   9520   9521     1   0.15375 251793.120000
   9520   9527     1   0.14233 265014.560000
   9521   9522     1   0.15375 251793.120000
   9521   9540     1   0.14647 272713.120000
   9522   9526     1   0.14233 265014.560000
   9522   9535     1   0.14316 258236.480000
   9528   9533     1   0.14233 265014.560000
   9541   9542     1   0.15375 251793.120000
   9541   9552     1   0.15375 251793.120000
   9541   9559     1   0.14316 258236.480000
   9542   9544     1   0.15375 251793.120000
   9542   9562     1   0.14233 265014.560000
   9544   9545     1   0.15375 251793.120000
   9544   9551     1   0.14233 265014.560000
   9545   9546     1   0.15375 251793.120000
   9545   9564     1   0.14647 272713.120000
   9546   9550     1   0.14233 265014.560000
   9546   9559     1   0.14316 258236.480000
   9552   9557     1   0.14233 265014.560000
   9565   9567     1   0.14619 275056.160000
   9567   9569     1   0.15375 251793.120000
   9569   9573     1   0.14647 272713.120000
   9573   9574     1   0.14647 272713.120000
   9573   9575     1   0.14647 272713.120000
   9574   9585     1   0.15375 251793.120000
   9575   9577     1   0.15375 251793.120000
   9577   9581     1   0.15241 261918.400000
   9581   9582     1   0.12183 533627.360000
   9581   9613     1   0.13400 406935.840000
   9585   9588     1   0.15241 261918.400000
   9588   9589     1   0.12183 533627.360000
   9588   9637     1   0.13400 406935.840000
   9590   9591     1   0.15375 251793.120000
   9590   9601     1   0.15375 251793.120000
   9590   9608     1   0.14316 258236.480000
   9591   9593     1   0.15375 251793.120000
   9591   9611     1   0.14233 265014.560000
   9593   9594     1   0.15375 251793.120000
   9593   9600     1   0.14233 265014.560000
   9594   9595     1   0.15375 251793.120000
   9594   9613     1   0.14647 272713.120000
   9595   9599     1   0.14233 265014.560000
   9595   9608     1   0.14316 258236.480000
   9601   9606     1   0.14233 265014.560000
   9614   9615     1   0.15375 251793.120000
   9614   9625     1   0.15375 251793.120000
   9614   9632     1   0.14316 258236.480000
   9615   9617     1   0.15375 251793.120000
   9615   9635     1   0.14233 265014.560000
   9617   9618     1   0.15375 251793.120000
   9617   9624     1   0.14233 265014.560000
   9618   9619     1   0.15375 251793.120000
   9618   9637     1   0.14647 272713.120000
   9619   9623     1   0.14233 265014.560000
   9619   9632     1   0.14316 258236.480000
   9625   9630     1   0.14233 265014.560000
   9638   9640     1   0.14619 275056.160000
   9640   9642     1   0.15375 251793.120000
   9642   9646     1   0.14647 272713.120000
   9646   9647     1   0.14647 272713.120000
   9646   9648     1   0.14647 272713.120000
   9647   9658     1   0.15375 251793.120000
   9648   9650     1   0.15375 251793.120000
   9650   9654     1   0.15241 261918.400000
   9654   9655     1   0.12183 533627.360000
   9654   9686     1   0.13400 406935.840000
   9658   9661     1   0.15241 261918.400000
   9661   9662     1   0.12183 533627.360000
   9661   9710     1   0.13400 406935.840000
   9663   9664     1   0.15375 251793.120000
   9663   9674     1   0.15375 251793.120000
   9663   9681     1   0.14316 258236.480000
   9664   9666     1   0.15375 251793.120000
   9664   9684     1   0.14233 265014.560000
   9666   9667     1   0.15375 251793.120000
   9666   9673     1   0.14233 265014.560000
   9667   9668     1   0.15375 251793.120000
   9667   9686     1   0.14647 272713.120000
   9668   9672     1   0.14233 265014.560000
   9668   9681     1   0.14316 258236.480000
   9674   9679     1   0.14233 265014.560000
   9687   9688     1   0.15375 251793.120000
   9687   9698     1   0.15375 251793.120000
   9687   9705     1   0.14316 258236.480000
   9688   9690     1   0.15375 251793.120000
   9688   9708     1   0.14233 265014.560000
   9690   9691     1   0.15375 251793.120000
   9690   9697     1   0.14233 265014.560000
   9691   9692     1   0.15375 251793.120000
   9691   9710     1   0.14647 272713.120000
   9692   9696     1   0.14233 265014.560000
   9692   9705     1   0.14316 258236.480000
   9698   9703     1   0.14233 265014.560000
   9711   9713     1   0.14619 275056.160000
   9713   9715     1   0.15375 251793.120000
   9715   9719     1   0.14647 272713.120000
   9719   9720     1   0.14647 272713.120000
   9719   9721     1   0.14647 272713.120000
   9720   9731     1   0.15375 251793.120000
   9721   9723     1   0.15375 251793.120000
   9723   9727     1   0.15241 261918.400000
   9727   9728     1   0.12183 533627.360000
   9727   9759     1   0.13400 406935.840000
   9731   9734     1   0.15241 261918.400000
   9734   9735     1   0.12183 533627.360000
   9734   9783     1   0.13400 406935.840000
   9736   9737     1   0.15375 251793.120000
   9736   9747     1   0.15375 251793.120000
   9736   9754     1   0.14316 258236.480000
   9737   9739     1   0.15375 251793.120000
   9737   9757     1   0.14233 265014.560000
   9739   9740     1   0.15375 251793.120000
   9739   9746     1   0.14233 265014.560000
   9740   9741     1   0.15375 251793.120000
   9740   9759     1   0.14647 272713.120000
   9741   9745     1   0.14233 265014.560000
   9741   9754     1   0.14316 258236.480000
   9747   9752     1   0.14233 265014.560000
   9760   9761     1   0.15375 251793.120000
   9760   9771     1   0.15375 251793.120000
   9760   9778     1   0.14316 258236.480000
   9761   9763     1   0.15375 251793.120000
   9761   9781     1   0.14233 265014.560000
   9763   9764     1   0.15375 251793.120000
   9763   9770     1   0.14233 265014.560000
   9764   9765     1   0.15375 251793.120000
   9764   9783     1   0.14647 272713.120000
   9765   9769     1   0.14233 265014.560000
   9765   9778     1   0.14316 258236.480000
   9771   9776     1   0.14233 265014.560000
   9784   9786     1   0.14619 275056.160000
   9786   9788     1   0.15375 251793.120000
   9788   9792     1   0.14647 272713.120000
   9792   9793     1   0.14647 272713.120000
   9792   9794     1   0.14647 272713.120000
   9793   9804     1   0.15375 251793.120000
   9794   9796     1   0.15375 251793.120000
   9796   9800     1   0.15241 261918.400000
   9800   9801     1   0.12183 533627.360000
   9800   9832     1   0.13400 406935.840000
   9804   9807     1   0.15241 261918.400000
   9807   9808     1   0.12183 533627.360000
   9807   9856     1   0.13400 406935.840000
   9809   9810     1   0.15375 251793.120000
   9809   9820     1   0.15375 251793.120000
   9809   9827     1   0.14316 258236.480000
   9810   9812     1   0.15375 251793.120000
   9810   9830     1   0.14233 265014.560000
   9812   9813     1   0.15375 251793.120000
   9812   9819     1   0.14233 265014.560000
   9813   9814     1   0.15375 251793.120000
   9813   9832     1   0.14647 272713.120000
   9814   9818     1   0.14233 265014.560000
   9814   9827     1   0.14316 258236.480000
   9820   9825     1   0.14233 265014.560000
   9833   9834     1   0.15375 251793.120000
   9833   9844     1   0.15375 251793.120000
   9833   9851     1   0.14316 258236.480000
   9834   9836     1   0.15375 251793.120000
   9834   9854     1   0.14233 265014.560000
   9836   9837     1   0.15375 251793.120000
   9836   9843     1   0.14233 265014.560000
   9837   9838     1   0.15375 251793.120000
   9837   9856     1   0.14647 272713.120000
   9838   9842     1   0.14233 265014.560000
   9838   9851     1   0.14316 258236.480000
   9844   9849     1   0.14233 265014.560000
   9857   9859     1   0.14619 275056.160000
   9859   9861     1   0.15375 251793.120000
   9861   9865     1   0.14647 272713.120000
   9865   9866     1   0.14647 272713.120000
   9865   9867     1   0.14647 272713.120000
   9866   9877     1   0.15375 251793.120000
   9867   9869     1   0.15375 251793.120000
   9869   9873     1   0.15241 261918.400000
   9873   9874     1   0.12183 533627.360000
   9873   9905     1   0.13400 406935.840000
   9877   9880     1   0.15241 261918.400000
   9880   9881     1   0.12183 533627.360000
   9880   9929     1   0.13400 406935.840000
   9882   9883     1   0.15375 251793.120000
   9882   9893     1   0.15375 251793.120000
   9882   9900     1   0.14316 258236.480000
   9883   9885     1   0.15375 251793.120000
   9883   9903     1   0.14233 265014.560000
   9885   9886     1   0.15375 251793.120000
   9885   9892     1   0.14233 265014.560000
   9886   9887     1   0.15375 251793.120000
   9886   9905     1   0.14647 272713.120000
   9887   9891     1   0.14233 265014.560000
   9887   9900     1   0.14316 258236.480000
   9893   9898     1   0.14233 265014.560000
   9906   9907     1   0.15375 251793.120000
   9906   9917     1   0.15375 251793.120000
   9906   9924     1   0.14316 258236.480000
   9907   9909     1   0.15375 251793.120000
   9907   9927     1   0.14233 265014.560000
   9909   9910     1   0.15375 251793.120000
   9909   9916     1   0.14233 265014.560000
   9910   9911     1   0.15375 251793.120000
   9910   9929     1   0.14647 272713.120000
   9911   9915     1   0.14233 265014.560000
   9911   9924     1   0.14316 258236.480000
   9917   9922     1   0.14233 265014.560000
   9930   9932     1   0.14619 275056.160000
   9932   9934     1   0.15375 251793.120000
   9934   9938     1   0.14647 272713.120000
   9938   9939     1   0.14647 272713.120000
   9938   9940     1   0.14647 272713.120000
   9939   9950     1   0.15375 251793.120000
   9940   9942     1   0.15375 251793.120000
   9942   9946     1   0.15241 261918.400000
   9946   9947     1   0.12183 533627.360000
   9946   9978     1   0.13400 406935.840000
   9950   9953     1   0.15241 261918.400000
   9953   9954     1   0.12183 533627.360000
   9953  10002     1   0.13400 406935.840000
   9955   9956     1   0.15375 251793.120000
   9955   9966     1   0.15375 251793.120000
   9955   9973     1   0.14316 258236.480000
   9956   9958     1   0.15375 251793.120000
   9956   9976     1   0.14233 265014.560000
   9958   9959     1   0.15375 251793.120000
   9958   9965     1   0.14233 265014.560000
   9959   9960     1   0.15375 251793.120000
   9959   9978     1   0.14647 272713.120000
   9960   9964     1   0.14233 265014.560000
   9960   9973     1   0.14316 258236.480000
   9966   9971     1   0.14233 265014.560000
   9979   9980     1   0.15375 251793.120000
   9979   9990     1   0.15375 251793.120000
   9979   9997     1   0.14316 258236.480000
   9980   9982     1   0.15375 251793.120000
   9980  10000     1   0.14233 265014.560000
   9982   9983     1   0.15375 251793.120000
   9982   9989     1   0.14233 265014.560000
   9983   9984     1   0.15375 251793.120000
   9983  10002     1   0.14647 272713.120000
   9984   9988     1   0.14233 265014.560000
   9984   9997     1   0.14316 258236.480000
   9990   9995     1   0.14233 265014.560000
  10003  10005     1   0.14619 275056.160000
  10005  10007     1   0.15375 251793.120000
  10007  10011     1   0.14647 272713.120000
  10011  10012     1   0.14647 272713.120000
  10011  10013     1   0.14647 272713.120000
  10012  10023     1   0.15375 251793.120000
  10013  10015     1   0.15375 251793.120000
  10015  10019     1   0.15241 261918.400000
  10019  10020     1   0.12183 533627.360000
  10019  10051     1   0.13400 406935.840000
  10023  10026     1   0.15241 261918.400000
  10026  10027     1   0.12183 533627.360000
  10026  10075     1   0.13400 406935.840000
  10028  10029     1   0.15375 251793.120000
  10028  10039     1   0.15375 251793.120000
  10028  10046     1   0.14316 258236.480000
  10029  10031     1   0.15375 251793.120000
  10029  10049     1   0.14233 265014.560000
  10031  10032     1   0.15375 251793.120000
  10031  10038     1   0.14233 265014.560000
  10032  10033     1   0.15375 251793.120000
  10032  10051     1   0.14647 272713.120000
  10033  10037     1   0.14233 265014.560000
  10033  10046     1   0.14316 258236.480000
  10039  10044     1   0.14233 265014.560000
  10052  10053     1   0.15375 251793.120000
  10052  10063     1   0.15375 251793.120000
  10052  10070     1   0.14316 258236.480000
  10053  10055     1   0.15375 251793.120000
  10053  10073     1   0.14233 265014.560000
  10055  10056     1   0.15375 251793.120000
  10055  10062     1   0.14233 265014.560000
  10056  10057     1   0.15375 251793.120000
  10056  10075     1   0.14647 272713.120000
  10057  10061     1   0.14233 265014.560000
  10057  10070     1   0.14316 258236.480000
  10063  10068     1   0.14233 265014.560000
  10076  10078     1   0.14619 275056.160000
  10078  10080     1   0.15375 251793.120000
  10080  10084     1   0.14647 272713.120000
  10084  10085     1   0.14647 272713.120000
  10084  10086     1   0.14647 272713.120000
  10085  10096     1   0.15375 251793.120000
  10086  10088     1   0.15375 251793.120000
  10088  10092     1   0.15241 261918.400000
  10092  10093     1   0.12183 533627.360000
  10092  10124     1   0.13400 406935.840000
  10096  10099     1   0.15241 261918.400000
  10099  10100     1   0.12183 533627.360000
  10099  10148     1   0.13400 406935.840000
  10101  10102     1   0.15375 251793.120000
  10101  10112     1   0.15375 251793.120000
  10101  10119     1   0.14316 258236.480000
  10102  10104     1   0.15375 251793.120000
  10102  10122     1   0.14233 265014.560000
  10104  10105     1   0.15375 251793.120000
  10104  10111     1   0.14233 265014.560000
  10105  10106     1   0.15375 251793.120000
  10105  10124     1   0.14647 272713.120000
  10106  10110     1   0.14233 265014.560000
  10106  10119     1   0.14316 258236.480000
  10112  10117     1   0.14233 265014.560000
  10125  10126     1   0.15375 251793.120000
  10125  10136     1   0.15375 251793.120000
  10125  10143     1   0.14316 258236.480000
  10126  10128     1   0.15375 251793.120000
  10126  10146     1   0.14233 265014.560000
  10128  10129     1   0.15375 251793.120000
  10128  10135     1   0.14233 265014.560000
  10129  10130     1   0.15375 251793.120000
  10129  10148     1   0.14647 272713.120000
  10130  10134     1   0.14233 265014.560000
  10130  10143     1   0.14316 258236.480000
  10136  10141     1   0.14233 265014.560000
  10149  10151     1   0.14619 275056.160000
  10151  10153     1   0.15375 251793.120000
  10153  10157     1   0.14647 272713.120000
  10157  10158     1   0.14647 272713.120000
  10157  10159     1   0.14647 272713.120000
  10158  10169     1   0.15375 251793.120000
  10159  10161     1   0.15375 251793.120000
  10161  10165     1   0.15241 261918.400000
  10165  10166     1   0.12183 533627.360000
  10165  10197     1   0.13400 406935.840000
  10169  10172     1   0.15241 261918.400000
  10172  10173     1   0.12183 533627.360000
  10172  10221     1   0.13400 406935.840000
  10174  10175     1   0.15375 251793.120000
  10174  10185     1   0.15375 251793.120000
  10174  10192     1   0.14316 258236.480000
  10175  10177     1   0.15375 251793.120000
  10175  10195     1   0.14233 265014.560000
  10177  10178     1   0.15375 251793.120000
  10177  10184     1   0.14233 265014.560000
  10178  10179     1   0.15375 251793.120000
  10178  10197     1   0.14647 272713.120000
  10179  10183     1   0.14233 265014.560000
  10179  10192     1   0.14316 258236.480000
  10185  10190     1   0.14233 265014.560000
  10198  10199     1   0.15375 251793.120000
  10198  10209     1   0.15375 251793.120000
  10198  10216     1   0.14316 258236.480000
  10199  10201     1   0.15375 251793.120000
  10199  10219     1   0.14233 265014.560000
  10201  10202     1   0.15375 251793.120000
  10201  10208     1   0.14233 265014.560000
  10202  10203     1   0.15375 251793.120000
  10202  10221     1   0.14647 272713.120000
  10203  10207     1   0.14233 265014.560000
  10203  10216     1   0.14316 258236.480000
  10209  10214     1   0.14233 265014.560000
  10222  10224     1   0.14619 275056.160000
  10224  10226     1   0.15375 251793.120000
  10226  10230     1   0.14647 272713.120000
  10230  10231     1   0.14647 272713.120000
  10230  10232     1   0.14647 272713.120000
  10231  10242     1   0.15375 251793.120000
  10232  10234     1   0.15375 251793.120000
  10234  10238     1   0.15241 261918.400000
  10238  10239     1   0.12183 533627.360000
  10238  10270     1   0.13400 406935.840000
  10242  10245     1   0.15241 261918.400000
  10245  10246     1   0.12183 533627.360000
  10245  10294     1   0.13400 406935.840000
  10247  10248     1   0.15375 251793.120000
  10247  10258     1   0.15375 251793.120000
  10247  10265     1   0.14316 258236.480000
  10248  10250     1   0.15375 251793.120000
  10248  10268     1   0.14233 265014.560000
  10250  10251     1   0.15375 251793.120000
  10250  10257     1   0.14233 265014.560000
  10251  10252     1   0.15375 251793.120000
  10251  10270     1   0.14647 272713.120000
  10252  10256     1   0.14233 265014.560000
  10252  10265     1   0.14316 258236.480000
  10258  10263     1   0.14233 265014.560000
  10271  10272     1   0.15375 251793.120000
  10271  10282     1   0.15375 251793.120000
  10271  10289     1   0.14316 258236.480000
  10272  10274     1   0.15375 251793.120000
  10272  10292     1   0.14233 265014.560000
  10274  10275     1   0.15375 251793.120000
  10274  10281     1   0.14233 265014.560000
  10275  10276     1   0.15375 251793.120000
  10275  10294     1   0.14647 272713.120000
  10276  10280     1   0.14233 265014.560000
  10276  10289     1   0.14316 258236.480000
  10282  10287     1   0.14233 265014.560000
  10295  10297     1   0.14619 275056.160000
  10297  10299     1   0.15375 251793.120000
  10299  10303     1   0.14647 272713.120000
  10303  10304     1   0.14647 272713.120000
  10303  10305     1   0.14647 272713.120000
  10304  10315     1   0.15375 251793.120000
  10305  10307     1   0.15375 251793.120000
  10307  10311     1   0.15241 261918.400000
  10311  10312     1   0.12183 533627.360000
  10311  10343     1   0.13400 406935.840000
  10315  10318     1   0.15241 261918.400000
  10318  10319     1   0.12183 533627.360000
  10318  10367     1   0.13400 406935.840000
  10320  10321     1   0.15375 251793.120000
  10320  10331     1   0.15375 251793.120000
  10320  10338     1   0.14316 258236.480000
  10321  10323     1   0.15375 251793.120000
  10321  10341     1   0.14233 265014.560000
  10323  10324     1   0.15375 251793.120000
  10323  10330     1   0.14233 265014.560000
  10324  10325     1   0.15375 251793.120000
  10324  10343     1   0.14647 272713.120000
  10325  10329     1   0.14233 265014.560000
  10325  10338     1   0.14316 258236.480000
  10331  10336     1   0.14233 265014.560000
  10344  10345     1   0.15375 251793.120000
  10344  10355     1   0.15375 251793.120000
  10344  10362     1   0.14316 258236.480000
  10345  10347     1   0.15375 251793.120000
  10345  10365     1   0.14233 265014.560000
  10347  10348     1   0.15375 251793.120000
  10347  10354     1   0.14233 265014.560000
  10348  10349     1   0.15375 251793.120000
  10348  10367     1   0.14647 272713.120000
  10349  10353     1   0.14233 265014.560000
  10349  10362     1   0.14316 258236.480000
  10355  10360     1   0.14233 265014.560000
  10368  10370     1   0.14619 275056.160000
  10370  10372     1   0.15375 251793.120000
  10372  10376     1   0.14647 272713.120000
  10376  10377     1   0.14647 272713.120000
  10376  10378     1   0.14647 272713.120000
  10377  10388     1   0.15375 251793.120000
  10378  10380     1   0.15375 251793.120000
  10380  10384     1   0.15241 261918.400000
  10384  10385     1   0.12183 533627.360000
  10384  10416     1   0.13400 406935.840000
  10388  10391     1   0.15241 261918.400000
  10391  10392     1   0.12183 533627.360000
  10391  10440     1   0.13400 406935.840000
  10393  10394     1   0.15375 251793.120000
  10393  10404     1   0.15375 251793.120000
  10393  10411     1   0.14316 258236.480000
  10394  10396     1   0.15375 251793.120000
  10394  10414     1   0.14233 265014.560000
  10396  10397     1   0.15375 251793.120000
  10396  10403     1   0.14233 265014.560000
  10397  10398     1   0.15375 251793.120000
  10397  10416     1   0.14647 272713.120000
  10398  10402     1   0.14233 265014.560000
  10398  10411     1   0.14316 258236.480000
  10404  10409     1   0.14233 265014.560000
  10417  10418     1   0.15375 251793.120000
  10417  10428     1   0.15375 251793.120000
  10417  10435     1   0.14316 258236.480000
  10418  10420     1   0.15375 251793.120000
  10418  10438     1   0.14233 265014.560000
  10420  10421     1   0.15375 251793.120000
  10420  10427     1   0.14233 265014.560000
  10421  10422     1   0.15375 251793.120000
  10421  10440     1   0.14647 272713.120000
  10422  10426     1   0.14233 265014.560000
  10422  10435     1   0.14316 258236.480000
  10428  10433     1   0.14233 265014.560000
  10441  10443     1   0.14619 275056.160000
  10443  10445     1   0.15375 251793.120000
  10445  10449     1   0.14647 272713.120000
  10449  10450     1   0.14647 272713.120000
  10449  10451     1   0.14647 272713.120000
  10450  10461     1   0.15375 251793.120000
  10451  10453     1   0.15375 251793.120000
  10453  10457     1   0.15241 261918.400000
  10457  10458     1   0.12183 533627.360000
  10457  10489     1   0.13400 406935.840000
  10461  10464     1   0.15241 261918.400000
  10464  10465     1   0.12183 533627.360000
  10464  10513     1   0.13400 406935.840000
  10466  10467     1   0.15375 251793.120000
  10466  10477     1   0.15375 251793.120000
  10466  10484     1   0.14316 258236.480000
  10467  10469     1   0.15375 251793.120000
  10467  10487     1   0.14233 265014.560000
  10469  10470     1   0.15375 251793.120000
  10469  10476     1   0.14233 265014.560000
  10470  10471     1   0.15375 251793.120000
  10470  10489     1   0.14647 272713.120000
  10471  10475     1   0.14233 265014.560000
  10471  10484     1   0.14316 258236.480000
  10477  10482     1   0.14233 265014.560000
  10490  10491     1   0.15375 251793.120000
  10490  10501     1   0.15375 251793.120000
  10490  10508     1   0.14316 258236.480000
  10491  10493     1   0.15375 251793.120000
  10491  10511     1   0.14233 265014.560000
  10493  10494     1   0.15375 251793.120000
  10493  10500     1   0.14233 265014.560000
  10494  10495     1   0.15375 251793.120000
  10494  10513     1   0.14647 272713.120000
  10495  10499     1   0.14233 265014.560000
  10495  10508     1   0.14316 258236.480000
  10501  10506     1   0.14233 265014.560000
  10514  10516     1   0.14619 275056.160000
  10516  10518     1   0.15375 251793.120000
  10518  10522     1   0.14647 272713.120000
  10522  10523     1   0.14647 272713.120000
  10522  10524     1   0.14647 272713.120000
  10523  10534     1   0.15375 251793.120000
  10524  10526     1   0.15375 251793.120000
  10526  10530     1   0.15241 261918.400000
  10530  10531     1   0.12183 533627.360000
  10530  10562     1   0.13400 406935.840000
  10534  10537     1   0.15241 261918.400000
  10537  10538     1   0.12183 533627.360000
  10537  10586     1   0.13400 406935.840000
  10539  10540     1   0.15375 251793.120000
  10539  10550     1   0.15375 251793.120000
  10539  10557     1   0.14316 258236.480000
  10540  10542     1   0.15375 251793.120000
  10540  10560     1   0.14233 265014.560000
  10542  10543     1   0.15375 251793.120000
  10542  10549     1   0.14233 265014.560000
  10543  10544     1   0.15375 251793.120000
  10543  10562     1   0.14647 272713.120000
  10544  10548     1   0.14233 265014.560000
  10544  10557     1   0.14316 258236.480000
  10550  10555     1   0.14233 265014.560000
  10563  10564     1   0.15375 251793.120000
  10563  10574     1   0.15375 251793.120000
  10563  10581     1   0.14316 258236.480000
  10564  10566     1   0.15375 251793.120000
  10564  10584     1   0.14233 265014.560000
  10566  10567     1   0.15375 251793.120000
  10566  10573     1   0.14233 265014.560000
  10567  10568     1   0.15375 251793.120000
  10567  10586     1   0.14647 272713.120000
  10568  10572     1   0.14233 265014.560000
  10568  10581     1   0.14316 258236.480000
  10574  10579     1   0.14233 265014.560000
  10587  10589     1   0.14619 275056.160000
  10589  10591     1   0.15375 251793.120000
  10591  10595     1   0.14647 272713.120000
  10595  10596     1   0.14647 272713.120000
  10595  10597     1   0.14647 272713.120000
  10596  10607     1   0.15375 251793.120000
  10597  10599     1   0.15375 251793.120000
  10599  10603     1   0.15241 261918.400000
  10603  10604     1   0.12183 533627.360000
  10603  10635     1   0.13400 406935.840000
  10607  10610     1   0.15241 261918.400000
  10610  10611     1   0.12183 533627.360000
  10610  10659     1   0.13400 406935.840000
  10612  10613     1   0.15375 251793.120000
  10612  10623     1   0.15375 251793.120000
  10612  10630     1   0.14316 258236.480000
  10613  10615     1   0.15375 251793.120000
  10613  10633     1   0.14233 265014.560000
  10615  10616     1   0.15375 251793.120000
  10615  10622     1   0.14233 265014.560000
  10616  10617     1   0.15375 251793.120000
  10616  10635     1   0.14647 272713.120000
  10617  10621     1   0.14233 265014.560000
  10617  10630     1   0.14316 258236.480000
  10623  10628     1   0.14233 265014.560000
  10636  10637     1   0.15375 251793.120000
  10636  10647     1   0.15375 251793.120000
  10636  10654     1   0.14316 258236.480000
  10637  10639     1   0.15375 251793.120000
  10637  10657     1   0.14233 265014.560000
  10639  10640     1   0.15375 251793.120000
  10639  10646     1   0.14233 265014.560000
  10640  10641     1   0.15375 251793.120000
  10640  10659     1   0.14647 272713.120000
  10641  10645     1   0.14233 265014.560000
  10641  10654     1   0.14316 258236.480000
  10647  10652     1   0.14233 265014.560000
  10660  10662     1   0.14619 275056.160000
  10662  10664     1   0.15375 251793.120000
  10664  10668     1   0.14647 272713.120000
  10668  10669     1   0.14647 272713.120000
  10668  10670     1   0.14647 272713.120000
  10669  10680     1   0.15375 251793.120000
  10670  10672     1   0.15375 251793.120000
  10672  10676     1   0.15241 261918.400000
  10676  10677     1   0.12183 533627.360000
  10676  10708     1   0.13400 406935.840000
  10680  10683     1   0.15241 261918.400000
  10683  10684     1   0.12183 533627.360000
  10683  10732     1   0.13400 406935.840000
  10685  10686     1   0.15375 251793.120000
  10685  10696     1   0.15375 251793.120000
  10685  10703     1   0.14316 258236.480000
  10686  10688     1   0.15375 251793.120000
  10686  10706     1   0.14233 265014.560000
  10688  10689     1   0.15375 251793.120000
  10688  10695     1   0.14233 265014.560000
  10689  10690     1   0.15375 251793.120000
  10689  10708     1   0.14647 272713.120000
  10690  10694     1   0.14233 265014.560000
  10690  10703     1   0.14316 258236.480000
  10696  10701     1   0.14233 265014.560000
  10709  10710     1   0.15375 251793.120000
  10709  10720     1   0.15375 251793.120000
  10709  10727     1   0.14316 258236.480000
  10710  10712     1   0.15375 251793.120000
  10710  10730     1   0.14233 265014.560000
  10712  10713     1   0.15375 251793.120000
  10712  10719     1   0.14233 265014.560000
  10713  10714     1   0.15375 251793.120000
  10713  10732     1   0.14647 272713.120000
  10714  10718     1   0.14233 265014.560000
  10714  10727     1   0.14316 258236.480000
  10720  10725     1   0.14233 265014.560000
  10733  10735     1   0.14619 275056.160000
  10735  10737     1   0.15375 251793.120000
  10737  10741     1   0.14647 272713.120000
  10741  10742     1   0.14647 272713.120000
  10741  10743     1   0.14647 272713.120000
  10742  10753     1   0.15375 251793.120000
  10743  10745     1   0.15375 251793.120000
  10745  10749     1   0.15241 261918.400000
  10749  10750     1   0.12183 533627.360000
  10749  10781     1   0.13400 406935.840000
  10753  10756     1   0.15241 261918.400000
  10756  10757     1   0.12183 533627.360000
  10756  10805     1   0.13400 406935.840000
  10758  10759     1   0.15375 251793.120000
  10758  10769     1   0.15375 251793.120000
  10758  10776     1   0.14316 258236.480000
  10759  10761     1   0.15375 251793.120000
  10759  10779     1   0.14233 265014.560000
  10761  10762     1   0.15375 251793.120000
  10761  10768     1   0.14233 265014.560000
  10762  10763     1   0.15375 251793.120000
  10762  10781     1   0.14647 272713.120000
  10763  10767     1   0.14233 265014.560000
  10763  10776     1   0.14316 258236.480000
  10769  10774     1   0.14233 265014.560000
  10782  10783     1   0.15375 251793.120000
  10782  10793     1   0.15375 251793.120000
  10782  10800     1   0.14316 258236.480000
  10783  10785     1   0.15375 251793.120000
  10783  10803     1   0.14233 265014.560000
  10785  10786     1   0.15375 251793.120000
  10785  10792     1   0.14233 265014.560000
  10786  10787     1   0.15375 251793.120000
  10786  10805     1   0.14647 272713.120000
  10787  10791     1   0.14233 265014.560000
  10787  10800     1   0.14316 258236.480000
  10793  10798     1   0.14233 265014.560000
  10806  10808     1   0.14619 275056.160000
  10808  10810     1   0.15375 251793.120000
  10810  10814     1   0.14647 272713.120000
  10814  10815     1   0.14647 272713.120000
  10814  10816     1   0.14647 272713.120000
  10815  10826     1   0.15375 251793.120000
  10816  10818     1   0.15375 251793.120000
  10818  10822     1   0.15241 261918.400000
  10822  10823     1   0.12183 533627.360000
  10822  10854     1   0.13400 406935.840000
  10826  10829     1   0.15241 261918.400000
  10829  10830     1   0.12183 533627.360000
  10829  10878     1   0.13400 406935.840000
  10831  10832     1   0.15375 251793.120000
  10831  10842     1   0.15375 251793.120000
  10831  10849     1   0.14316 258236.480000
  10832  10834     1   0.15375 251793.120000
  10832  10852     1   0.14233 265014.560000
  10834  10835     1   0.15375 251793.120000
  10834  10841     1   0.14233 265014.560000
  10835  10836     1   0.15375 251793.120000
  10835  10854     1   0.14647 272713.120000
  10836  10840     1   0.14233 265014.560000
  10836  10849     1   0.14316 258236.480000
  10842  10847     1   0.14233 265014.560000
  10855  10856     1   0.15375 251793.120000
  10855  10866     1   0.15375 251793.120000
  10855  10873     1   0.14316 258236.480000
  10856  10858     1   0.15375 251793.120000
  10856  10876     1   0.14233 265014.560000
  10858  10859     1   0.15375 251793.120000
  10858  10865     1   0.14233 265014.560000
  10859  10860     1   0.15375 251793.120000
  10859  10878     1   0.14647 272713.120000
  10860  10864     1   0.14233 265014.560000
  10860  10873     1   0.14316 258236.480000
  10866  10871     1   0.14233 265014.560000
  10879  10881     1   0.14619 275056.160000
  10881  10883     1   0.15375 251793.120000
  10883  10887     1   0.14647 272713.120000
  10887  10888     1   0.14647 272713.120000
  10887  10889     1   0.14647 272713.120000
  10888  10899     1   0.15375 251793.120000
  10889  10891     1   0.15375 251793.120000
  10891  10895     1   0.15241 261918.400000
  10895  10896     1   0.12183 533627.360000
  10895  10927     1   0.13400 406935.840000
  10899  10902     1   0.15241 261918.400000
  10902  10903     1   0.12183 533627.360000
  10902  10951     1   0.13400 406935.840000
  10904  10905     1   0.15375 251793.120000
  10904  10915     1   0.15375 251793.120000
  10904  10922     1   0.14316 258236.480000
  10905  10907     1   0.15375 251793.120000
  10905  10925     1   0.14233 265014.560000
  10907  10908     1   0.15375 251793.120000
  10907  10914     1   0.14233 265014.560000
  10908  10909     1   0.15375 251793.120000
  10908  10927     1   0.14647 272713.120000
  10909  10913     1   0.14233 265014.560000
  10909  10922     1   0.14316 258236.480000
  10915  10920     1   0.14233 265014.560000
  10928  10929     1   0.15375 251793.120000
  10928  10939     1   0.15375 251793.120000
  10928  10946     1   0.14316 258236.480000
  10929  10931     1   0.15375 251793.120000
  10929  10949     1   0.14233 265014.560000
  10931  10932     1   0.15375 251793.120000
  10931  10938     1   0.14233 265014.560000
  10932  10933     1   0.15375 251793.120000
  10932  10951     1   0.14647 272713.120000
  10933  10937     1   0.14233 265014.560000
  10933  10946     1   0.14316 258236.480000
  10939  10944     1   0.14233 265014.560000
  10952  10954     1   0.14619 275056.160000
  10954  10956     1   0.15375 251793.120000
  10956  10960     1   0.14647 272713.120000
  10960  10961     1   0.14647 272713.120000
  10960  10962     1   0.14647 272713.120000
  10961  10972     1   0.15375 251793.120000
  10962  10964     1   0.15375 251793.120000
  10964  10968     1   0.15241 261918.400000
  10968  10969     1   0.12183 533627.360000
  10968  11000     1   0.13400 406935.840000
  10972  10975     1   0.15241 261918.400000
  10975  10976     1   0.12183 533627.360000
  10975  11024     1   0.13400 406935.840000
  10977  10978     1   0.15375 251793.120000
  10977  10988     1   0.15375 251793.120000
  10977  10995     1   0.14316 258236.480000
  10978  10980     1   0.15375 251793.120000
  10978  10998     1   0.14233 265014.560000
  10980  10981     1   0.15375 251793.120000
  10980  10987     1   0.14233 265014.560000
  10981  10982     1   0.15375 251793.120000
  10981  11000     1   0.14647 272713.120000
  10982  10986     1   0.14233 265014.560000
  10982  10995     1   0.14316 258236.480000
  10988  10993     1   0.14233 265014.560000
  11001  11002     1   0.15375 251793.120000
  11001  11012     1   0.15375 251793.120000
  11001  11019     1   0.14316 258236.480000
  11002  11004     1   0.15375 251793.120000
  11002  11022     1   0.14233 265014.560000
  11004  11005     1   0.15375 251793.120000
  11004  11011     1   0.14233 265014.560000
  11005  11006     1   0.15375 251793.120000
  11005  11024     1   0.14647 272713.120000
  11006  11010     1   0.14233 265014.560000
  11006  11019     1   0.14316 258236.480000
  11012  11017     1   0.14233 265014.560000
  11025  11027     1   0.14619 275056.160000
  11027  11029     1   0.15375 251793.120000
  11029  11033     1   0.14647 272713.120000
  11033  11034     1   0.14647 272713.120000
  11033  11035     1   0.14647 272713.120000
  11034  11045     1   0.15375 251793.120000
  11035  11037     1   0.15375 251793.120000
  11037  11041     1   0.15241 261918.400000
  11041  11042     1   0.12183 533627.360000
  11041  11073     1   0.13400 406935.840000
  11045  11048     1   0.15241 261918.400000
  11048  11049     1   0.12183 533627.360000
  11048  11097     1   0.13400 406935.840000
  11050  11051     1   0.15375 251793.120000
  11050  11061     1   0.15375 251793.120000
  11050  11068     1   0.14316 258236.480000
  11051  11053     1   0.15375 251793.120000
  11051  11071     1   0.14233 265014.560000
  11053  11054     1   0.15375 251793.120000
  11053  11060     1   0.14233 265014.560000
  11054  11055     1   0.15375 251793.120000
  11054  11073     1   0.14647 272713.120000
  11055  11059     1   0.14233 265014.560000
  11055  11068     1   0.14316 258236.480000
  11061  11066     1   0.14233 265014.560000
  11074  11075     1   0.15375 251793.120000
  11074  11085     1   0.15375 251793.120000
  11074  11092     1   0.14316 258236.480000
  11075  11077     1   0.15375 251793.120000
  11075  11095     1   0.14233 265014.560000
  11077  11078     1   0.15375 251793.120000
  11077  11084     1   0.14233 265014.560000
  11078  11079     1   0.15375 251793.120000
  11078  11097     1   0.14647 272713.120000
  11079  11083     1   0.14233 265014.560000
  11079  11092     1   0.14316 258236.480000
  11085  11090     1   0.14233 265014.560000
  11098  11100     1   0.14619 275056.160000
  11100  11102     1   0.15375 251793.120000
  11102  11106     1   0.14647 272713.120000
  11106  11107     1   0.14647 272713.120000
  11106  11108     1   0.14647 272713.120000
  11107  11118     1   0.15375 251793.120000
  11108  11110     1   0.15375 251793.120000
  11110  11114     1   0.15241 261918.400000
  11114  11115     1   0.12183 533627.360000
  11114  11146     1   0.13400 406935.840000
  11118  11121     1   0.15241 261918.400000
  11121  11122     1   0.12183 533627.360000
  11121  11170     1   0.13400 406935.840000
  11123  11124     1   0.15375 251793.120000
  11123  11134     1   0.15375 251793.120000
  11123  11141     1   0.14316 258236.480000
  11124  11126     1   0.15375 251793.120000
  11124  11144     1   0.14233 265014.560000
  11126  11127     1   0.15375 251793.120000
  11126  11133     1   0.14233 265014.560000
  11127  11128     1   0.15375 251793.120000
  11127  11146     1   0.14647 272713.120000
  11128  11132     1   0.14233 265014.560000
  11128  11141     1   0.14316 258236.480000
  11134  11139     1   0.14233 265014.560000
  11147  11148     1   0.15375 251793.120000
  11147  11158     1   0.15375 251793.120000
  11147  11165     1   0.14316 258236.480000
  11148  11150     1   0.15375 251793.120000
  11148  11168     1   0.14233 265014.560000
  11150  11151     1   0.15375 251793.120000
  11150  11157     1   0.14233 265014.560000
  11151  11152     1   0.15375 251793.120000
  11151  11170     1   0.14647 272713.120000
  11152  11156     1   0.14233 265014.560000
  11152  11165     1   0.14316 258236.480000
  11158  11163     1   0.14233 265014.560000
  11171  11173     1   0.14619 275056.160000
  11173  11175     1   0.15375 251793.120000
  11175  11179     1   0.14647 272713.120000
  11179  11180     1   0.14647 272713.120000
  11179  11181     1   0.14647 272713.120000
  11180  11191     1   0.15375 251793.120000
  11181  11183     1   0.15375 251793.120000
  11183  11187     1   0.15241 261918.400000
  11187  11188     1   0.12183 533627.360000
  11187  11219     1   0.13400 406935.840000
  11191  11194     1   0.15241 261918.400000
  11194  11195     1   0.12183 533627.360000
  11194  11243     1   0.13400 406935.840000
  11196  11197     1   0.15375 251793.120000
  11196  11207     1   0.15375 251793.120000
  11196  11214     1   0.14316 258236.480000
  11197  11199     1   0.15375 251793.120000
  11197  11217     1   0.14233 265014.560000
  11199  11200     1   0.15375 251793.120000
  11199  11206     1   0.14233 265014.560000
  11200  11201     1   0.15375 251793.120000
  11200  11219     1   0.14647 272713.120000
  11201  11205     1   0.14233 265014.560000
  11201  11214     1   0.14316 258236.480000
  11207  11212     1   0.14233 265014.560000
  11220  11221     1   0.15375 251793.120000
  11220  11231     1   0.15375 251793.120000
  11220  11238     1   0.14316 258236.480000
  11221  11223     1   0.15375 251793.120000
  11221  11241     1   0.14233 265014.560000
  11223  11224     1   0.15375 251793.120000
  11223  11230     1   0.14233 265014.560000
  11224  11225     1   0.15375 251793.120000
  11224  11243     1   0.14647 272713.120000
  11225  11229     1   0.14233 265014.560000
  11225  11238     1   0.14316 258236.480000
  11231  11236     1   0.14233 265014.560000
  11244  11246     1   0.14619 275056.160000
  11246  11248     1   0.15375 251793.120000
  11248  11252     1   0.14647 272713.120000
  11252  11253     1   0.14647 272713.120000
  11252  11254     1   0.14647 272713.120000
  11253  11264     1   0.15375 251793.120000
  11254  11256     1   0.15375 251793.120000
  11256  11260     1   0.15241 261918.400000
  11260  11261     1   0.12183 533627.360000
  11260  11292     1   0.13400 406935.840000
  11264  11267     1   0.15241 261918.400000
  11267  11268     1   0.12183 533627.360000
  11267  11316     1   0.13400 406935.840000
  11269  11270     1   0.15375 251793.120000
  11269  11280     1   0.15375 251793.120000
  11269  11287     1   0.14316 258236.480000
  11270  11272     1   0.15375 251793.120000
  11270  11290     1   0.14233 265014.560000
  11272  11273     1   0.15375 251793.120000
  11272  11279     1   0.14233 265014.560000
  11273  11274     1   0.15375 251793.120000
  11273  11292     1   0.14647 272713.120000
  11274  11278     1   0.14233 265014.560000
  11274  11287     1   0.14316 258236.480000
  11280  11285     1   0.14233 265014.560000
  11293  11294     1   0.15375 251793.120000
  11293  11304     1   0.15375 251793.120000
  11293  11311     1   0.14316 258236.480000
  11294  11296     1   0.15375 251793.120000
  11294  11314     1   0.14233 265014.560000
  11296  11297     1   0.15375 251793.120000
  11296  11303     1   0.14233 265014.560000
  11297  11298     1   0.15375 251793.120000
  11297  11316     1   0.14647 272713.120000
  11298  11302     1   0.14233 265014.560000
  11298  11311     1   0.14316 258236.480000
  11304  11309     1   0.14233 265014.560000
  11317  11319     1   0.14619 275056.160000
  11319  11321     1   0.15375 251793.120000
  11321  11325     1   0.14647 272713.120000
  11325  11326     1   0.14647 272713.120000
  11325  11327     1   0.14647 272713.120000
  11326  11337     1   0.15375 251793.120000
  11327  11329     1   0.15375 251793.120000
  11329  11333     1   0.15241 261918.400000
  11333  11334     1   0.12183 533627.360000
  11333  11365     1   0.13400 406935.840000
  11337  11340     1   0.15241 261918.400000
  11340  11341     1   0.12183 533627.360000
  11340  11389     1   0.13400 406935.840000
  11342  11343     1   0.15375 251793.120000
  11342  11353     1   0.15375 251793.120000
  11342  11360     1   0.14316 258236.480000
  11343  11345     1   0.15375 251793.120000
  11343  11363     1   0.14233 265014.560000
  11345  11346     1   0.15375 251793.120000
  11345  11352     1   0.14233 265014.560000
  11346  11347     1   0.15375 251793.120000
  11346  11365     1   0.14647 272713.120000
  11347  11351     1   0.14233 265014.560000
  11347  11360     1   0.14316 258236.480000
  11353  11358     1   0.14233 265014.560000
  11366  11367     1   0.15375 251793.120000
  11366  11377     1   0.15375 251793.120000
  11366  11384     1   0.14316 258236.480000
  11367  11369     1   0.15375 251793.120000
  11367  11387     1   0.14233 265014.560000
  11369  11370     1   0.15375 251793.120000
  11369  11376     1   0.14233 265014.560000
  11370  11371     1   0.15375 251793.120000
  11370  11389     1   0.14647 272713.120000
  11371  11375     1   0.14233 265014.560000
  11371  11384     1   0.14316 258236.480000
  11377  11382     1   0.14233 265014.560000
  11390  11392     1   0.14619 275056.160000
  11392  11394     1   0.15375 251793.120000
  11394  11398     1   0.14647 272713.120000
  11398  11399     1   0.14647 272713.120000
  11398  11400     1   0.14647 272713.120000
  11399  11410     1   0.15375 251793.120000
  11400  11402     1   0.15375 251793.120000
  11402  11406     1   0.15241 261918.400000
  11406  11407     1   0.12183 533627.360000
  11406  11438     1   0.13400 406935.840000
  11410  11413     1   0.15241 261918.400000
  11413  11414     1   0.12183 533627.360000
  11413  11462     1   0.13400 406935.840000
  11415  11416     1   0.15375 251793.120000
  11415  11426     1   0.15375 251793.120000
  11415  11433     1   0.14316 258236.480000
  11416  11418     1   0.15375 251793.120000
  11416  11436     1   0.14233 265014.560000
  11418  11419     1   0.15375 251793.120000
  11418  11425     1   0.14233 265014.560000
  11419  11420     1   0.15375 251793.120000
  11419  11438     1   0.14647 272713.120000
  11420  11424     1   0.14233 265014.560000
  11420  11433     1   0.14316 258236.480000
  11426  11431     1   0.14233 265014.560000
  11439  11440     1   0.15375 251793.120000
  11439  11450     1   0.15375 251793.120000
  11439  11457     1   0.14316 258236.480000
  11440  11442     1   0.15375 251793.120000
  11440  11460     1   0.14233 265014.560000
  11442  11443     1   0.15375 251793.120000
  11442  11449     1   0.14233 265014.560000
  11443  11444     1   0.15375 251793.120000
  11443  11462     1   0.14647 272713.120000
  11444  11448     1   0.14233 265014.560000
  11444  11457     1   0.14316 258236.480000
  11450  11455     1   0.14233 265014.560000
  11463  11465     1   0.14619 275056.160000
  11465  11467     1   0.15375 251793.120000
  11467  11471     1   0.14647 272713.120000
  11471  11472     1   0.14647 272713.120000
  11471  11473     1   0.14647 272713.120000
  11472  11483     1   0.15375 251793.120000
  11473  11475     1   0.15375 251793.120000
  11475  11479     1   0.15241 261918.400000
  11479  11480     1   0.12183 533627.360000
  11479  11511     1   0.13400 406935.840000
  11483  11486     1   0.15241 261918.400000
  11486  11487     1   0.12183 533627.360000
  11486  11535     1   0.13400 406935.840000
  11488  11489     1   0.15375 251793.120000
  11488  11499     1   0.15375 251793.120000
  11488  11506     1   0.14316 258236.480000
  11489  11491     1   0.15375 251793.120000
  11489  11509     1   0.14233 265014.560000
  11491  11492     1   0.15375 251793.120000
  11491  11498     1   0.14233 265014.560000
  11492  11493     1   0.15375 251793.120000
  11492  11511     1   0.14647 272713.120000
  11493  11497     1   0.14233 265014.560000
  11493  11506     1   0.14316 258236.480000
  11499  11504     1   0.14233 265014.560000
  11512  11513     1   0.15375 251793.120000
  11512  11523     1   0.15375 251793.120000
  11512  11530     1   0.14316 258236.480000
  11513  11515     1   0.15375 251793.120000
  11513  11533     1   0.14233 265014.560000
  11515  11516     1   0.15375 251793.120000
  11515  11522     1   0.14233 265014.560000
  11516  11517     1   0.15375 251793.120000
  11516  11535     1   0.14647 272713.120000
  11517  11521     1   0.14233 265014.560000
  11517  11530     1   0.14316 258236.480000
  11523  11528     1   0.14233 265014.560000
  11536  11538     1   0.14619 275056.160000
  11538  11540     1   0.15375 251793.120000
  11540  11544     1   0.14647 272713.120000
  11544  11545     1   0.14647 272713.120000
  11544  11546     1   0.14647 272713.120000
  11545  11556     1   0.15375 251793.120000
  11546  11548     1   0.15375 251793.120000
  11548  11552     1   0.15241 261918.400000
  11552  11553     1   0.12183 533627.360000
  11552  11584     1   0.13400 406935.840000
  11556  11559     1   0.15241 261918.400000
  11559  11560     1   0.12183 533627.360000
  11559  11608     1   0.13400 406935.840000
  11561  11562     1   0.15375 251793.120000
  11561  11572     1   0.15375 251793.120000
  11561  11579     1   0.14316 258236.480000
  11562  11564     1   0.15375 251793.120000
  11562  11582     1   0.14233 265014.560000
  11564  11565     1   0.15375 251793.120000
  11564  11571     1   0.14233 265014.560000
  11565  11566     1   0.15375 251793.120000
  11565  11584     1   0.14647 272713.120000
  11566  11570     1   0.14233 265014.560000
  11566  11579     1   0.14316 258236.480000
  11572  11577     1   0.14233 265014.560000
  11585  11586     1   0.15375 251793.120000
  11585  11596     1   0.15375 251793.120000
  11585  11603     1   0.14316 258236.480000
  11586  11588     1   0.15375 251793.120000
  11586  11606     1   0.14233 265014.560000
  11588  11589     1   0.15375 251793.120000
  11588  11595     1   0.14233 265014.560000
  11589  11590     1   0.15375 251793.120000
  11589  11608     1   0.14647 272713.120000
  11590  11594     1   0.14233 265014.560000
  11590  11603     1   0.14316 258236.480000
  11596  11601     1   0.14233 265014.560000
  11609  11611     1   0.14619 275056.160000
  11611  11613     1   0.15375 251793.120000
  11613  11617     1   0.14647 272713.120000
  11617  11618     1   0.14647 272713.120000
  11617  11619     1   0.14647 272713.120000
  11618  11629     1   0.15375 251793.120000
  11619  11621     1   0.15375 251793.120000
  11621  11625     1   0.15241 261918.400000
  11625  11626     1   0.12183 533627.360000
  11625  11657     1   0.13400 406935.840000
  11629  11632     1   0.15241 261918.400000
  11632  11633     1   0.12183 533627.360000
  11632  11681     1   0.13400 406935.840000
  11634  11635     1   0.15375 251793.120000
  11634  11645     1   0.15375 251793.120000
  11634  11652     1   0.14316 258236.480000
  11635  11637     1   0.15375 251793.120000
  11635  11655     1   0.14233 265014.560000
  11637  11638     1   0.15375 251793.120000
  11637  11644     1   0.14233 265014.560000
  11638  11639     1   0.15375 251793.120000
  11638  11657     1   0.14647 272713.120000
  11639  11643     1   0.14233 265014.560000
  11639  11652     1   0.14316 258236.480000
  11645  11650     1   0.14233 265014.560000
  11658  11659     1   0.15375 251793.120000
  11658  11669     1   0.15375 251793.120000
  11658  11676     1   0.14316 258236.480000
  11659  11661     1   0.15375 251793.120000
  11659  11679     1   0.14233 265014.560000
  11661  11662     1   0.15375 251793.120000
  11661  11668     1   0.14233 265014.560000
  11662  11663     1   0.15375 251793.120000
  11662  11681     1   0.14647 272713.120000
  11663  11667     1   0.14233 265014.560000
  11663  11676     1   0.14316 258236.480000
  11669  11674     1   0.14233 265014.560000
  11682  11684     1   0.14619 275056.160000
  11684  11686     1   0.15375 251793.120000
  11686  11690     1   0.14647 272713.120000
  11690  11691     1   0.14647 272713.120000
  11690  11692     1   0.14647 272713.120000
  11691  11702     1   0.15375 251793.120000
  11692  11694     1   0.15375 251793.120000
  11694  11698     1   0.15241 261918.400000
  11698  11699     1   0.12183 533627.360000
  11698  11730     1   0.13400 406935.840000
  11702  11705     1   0.15241 261918.400000
  11705  11706     1   0.12183 533627.360000
  11705  11754     1   0.13400 406935.840000
  11707  11708     1   0.15375 251793.120000
  11707  11718     1   0.15375 251793.120000
  11707  11725     1   0.14316 258236.480000
  11708  11710     1   0.15375 251793.120000
  11708  11728     1   0.14233 265014.560000
  11710  11711     1   0.15375 251793.120000
  11710  11717     1   0.14233 265014.560000
  11711  11712     1   0.15375 251793.120000
  11711  11730     1   0.14647 272713.120000
  11712  11716     1   0.14233 265014.560000
  11712  11725     1   0.14316 258236.480000
  11718  11723     1   0.14233 265014.560000
  11731  11732     1   0.15375 251793.120000
  11731  11742     1   0.15375 251793.120000
  11731  11749     1   0.14316 258236.480000
  11732  11734     1   0.15375 251793.120000
  11732  11752     1   0.14233 265014.560000
  11734  11735     1   0.15375 251793.120000
  11734  11741     1   0.14233 265014.560000
  11735  11736     1   0.15375 251793.120000
  11735  11754     1   0.14647 272713.120000
  11736  11740     1   0.14233 265014.560000
  11736  11749     1   0.14316 258236.480000
  11742  11747     1   0.14233 265014.560000
  11755  11757     1   0.14619 275056.160000
  11757  11759     1   0.15375 251793.120000
  11759  11763     1   0.14647 272713.120000
  11763  11764     1   0.14647 272713.120000
  11763  11765     1   0.14647 272713.120000
  11764  11775     1   0.15375 251793.120000
  11765  11767     1   0.15375 251793.120000
  11767  11771     1   0.15241 261918.400000
  11771  11772     1   0.12183 533627.360000
  11771  11803     1   0.13400 406935.840000
  11775  11778     1   0.15241 261918.400000
  11778  11779     1   0.12183 533627.360000
  11778  11827     1   0.13400 406935.840000
  11780  11781     1   0.15375 251793.120000
  11780  11791     1   0.15375 251793.120000
  11780  11798     1   0.14316 258236.480000
  11781  11783     1   0.15375 251793.120000
  11781  11801     1   0.14233 265014.560000
  11783  11784     1   0.15375 251793.120000
  11783  11790     1   0.14233 265014.560000
  11784  11785     1   0.15375 251793.120000
  11784  11803     1   0.14647 272713.120000
  11785  11789     1   0.14233 265014.560000
  11785  11798     1   0.14316 258236.480000
  11791  11796     1   0.14233 265014.560000
  11804  11805     1   0.15375 251793.120000
  11804  11815     1   0.15375 251793.120000
  11804  11822     1   0.14316 258236.480000
  11805  11807     1   0.15375 251793.120000
  11805  11825     1   0.14233 265014.560000
  11807  11808     1   0.15375 251793.120000
  11807  11814     1   0.14233 265014.560000
  11808  11809     1   0.15375 251793.120000
  11808  11827     1   0.14647 272713.120000
  11809  11813     1   0.14233 265014.560000
  11809  11822     1   0.14316 258236.480000
  11815  11820     1   0.14233 265014.560000
  11828  11830     1   0.14619 275056.160000
  11830  11832     1   0.15375 251793.120000
  11832  11836     1   0.14647 272713.120000
  11836  11837     1   0.14647 272713.120000
  11836  11838     1   0.14647 272713.120000
  11837  11848     1   0.15375 251793.120000
  11838  11840     1   0.15375 251793.120000
  11840  11844     1   0.15241 261918.400000
  11844  11845     1   0.12183 533627.360000
  11844  11876     1   0.13400 406935.840000
  11848  11851     1   0.15241 261918.400000
  11851  11852     1   0.12183 533627.360000
  11851  11900     1   0.13400 406935.840000
  11853  11854     1   0.15375 251793.120000
  11853  11864     1   0.15375 251793.120000
  11853  11871     1   0.14316 258236.480000
  11854  11856     1   0.15375 251793.120000
  11854  11874     1   0.14233 265014.560000
  11856  11857     1   0.15375 251793.120000
  11856  11863     1   0.14233 265014.560000
  11857  11858     1   0.15375 251793.120000
  11857  11876     1   0.14647 272713.120000
  11858  11862     1   0.14233 265014.560000
  11858  11871     1   0.14316 258236.480000
  11864  11869     1   0.14233 265014.560000
  11877  11878     1   0.15375 251793.120000
  11877  11888     1   0.15375 251793.120000
  11877  11895     1   0.14316 258236.480000
  11878  11880     1   0.15375 251793.120000
  11878  11898     1   0.14233 265014.560000
  11880  11881     1   0.15375 251793.120000
  11880  11887     1   0.14233 265014.560000
  11881  11882     1   0.15375 251793.120000
  11881  11900     1   0.14647 272713.120000
  11882  11886     1   0.14233 265014.560000
  11882  11895     1   0.14316 258236.480000
  11888  11893     1   0.14233 265014.560000
  11901  11903     1   0.14619 275056.160000
  11903  11905     1   0.15375 251793.120000
  11905  11909     1   0.14647 272713.120000
  11909  11910     1   0.14647 272713.120000
  11909  11911     1   0.14647 272713.120000
  11910  11921     1   0.15375 251793.120000
  11911  11913     1   0.15375 251793.120000
  11913  11917     1   0.15241 261918.400000
  11917  11918     1   0.12183 533627.360000
  11917  11949     1   0.13400 406935.840000
  11921  11924     1   0.15241 261918.400000
  11924  11925     1   0.12183 533627.360000
  11924  11973     1   0.13400 406935.840000
  11926  11927     1   0.15375 251793.120000
  11926  11937     1   0.15375 251793.120000
  11926  11944     1   0.14316 258236.480000
  11927  11929     1   0.15375 251793.120000
  11927  11947     1   0.14233 265014.560000
  11929  11930     1   0.15375 251793.120000
  11929  11936     1   0.14233 265014.560000
  11930  11931     1   0.15375 251793.120000
  11930  11949     1   0.14647 272713.120000
  11931  11935     1   0.14233 265014.560000
  11931  11944     1   0.14316 258236.480000
  11937  11942     1   0.14233 265014.560000
  11950  11951     1   0.15375 251793.120000
  11950  11961     1   0.15375 251793.120000
  11950  11968     1   0.14316 258236.480000
  11951  11953     1   0.15375 251793.120000
  11951  11971     1   0.14233 265014.560000
  11953  11954     1   0.15375 251793.120000
  11953  11960     1   0.14233 265014.560000
  11954  11955     1   0.15375 251793.120000
  11954  11973     1   0.14647 272713.120000
  11955  11959     1   0.14233 265014.560000
  11955  11968     1   0.14316 258236.480000
  11961  11966     1   0.14233 265014.560000
  11974  11976     1   0.14619 275056.160000
  11976  11978     1   0.15375 251793.120000
  11978  11982     1   0.14647 272713.120000
  11982  11983     1   0.14647 272713.120000
  11982  11984     1   0.14647 272713.120000
  11983  11994     1   0.15375 251793.120000
  11984  11986     1   0.15375 251793.120000
  11986  11990     1   0.15241 261918.400000
  11990  11991     1   0.12183 533627.360000
  11990  12022     1   0.13400 406935.840000
  11994  11997     1   0.15241 261918.400000
  11997  11998     1   0.12183 533627.360000
  11997  12046     1   0.13400 406935.840000
  11999  12000     1   0.15375 251793.120000
  11999  12010     1   0.15375 251793.120000
  11999  12017     1   0.14316 258236.480000
  12000  12002     1   0.15375 251793.120000
  12000  12020     1   0.14233 265014.560000
  12002  12003     1   0.15375 251793.120000
  12002  12009     1   0.14233 265014.560000
  12003  12004     1   0.15375 251793.120000
  12003  12022     1   0.14647 272713.120000
  12004  12008     1   0.14233 265014.560000
  12004  12017     1   0.14316 258236.480000
  12010  12015     1   0.14233 265014.560000
  12023  12024     1   0.15375 251793.120000
  12023  12034     1   0.15375 251793.120000
  12023  12041     1   0.14316 258236.480000
  12024  12026     1   0.15375 251793.120000
  12024  12044     1   0.14233 265014.560000
  12026  12027     1   0.15375 251793.120000
  12026  12033     1   0.14233 265014.560000
  12027  12028     1   0.15375 251793.120000
  12027  12046     1   0.14647 272713.120000
  12028  12032     1   0.14233 265014.560000
  12028  12041     1   0.14316 258236.480000
  12034  12039     1   0.14233 265014.560000
  12047  12049     1   0.14619 275056.160000
  12049  12051     1   0.15375 251793.120000
  12051  12055     1   0.14647 272713.120000
  12055  12056     1   0.14647 272713.120000
  12055  12057     1   0.14647 272713.120000
  12056  12067     1   0.15375 251793.120000
  12057  12059     1   0.15375 251793.120000
  12059  12063     1   0.15241 261918.400000
  12063  12064     1   0.12183 533627.360000
  12063  12095     1   0.13400 406935.840000
  12067  12070     1   0.15241 261918.400000
  12070  12071     1   0.12183 533627.360000
  12070  12119     1   0.13400 406935.840000
  12072  12073     1   0.15375 251793.120000
  12072  12083     1   0.15375 251793.120000
  12072  12090     1   0.14316 258236.480000
  12073  12075     1   0.15375 251793.120000
  12073  12093     1   0.14233 265014.560000
  12075  12076     1   0.15375 251793.120000
  12075  12082     1   0.14233 265014.560000
  12076  12077     1   0.15375 251793.120000
  12076  12095     1   0.14647 272713.120000
  12077  12081     1   0.14233 265014.560000
  12077  12090     1   0.14316 258236.480000
  12083  12088     1   0.14233 265014.560000
  12096  12097     1   0.15375 251793.120000
  12096  12107     1   0.15375 251793.120000
  12096  12114     1   0.14316 258236.480000
  12097  12099     1   0.15375 251793.120000
  12097  12117     1   0.14233 265014.560000
  12099  12100     1   0.15375 251793.120000
  12099  12106     1   0.14233 265014.560000
  12100  12101     1   0.15375 251793.120000
  12100  12119     1   0.14647 272713.120000
  12101  12105     1   0.14233 265014.560000
  12101  12114     1   0.14316 258236.480000
  12107  12112     1   0.14233 265014.560000
  12120  12122     1   0.14619 275056.160000
  12122  12124     1   0.15375 251793.120000
  12124  12128     1   0.14647 272713.120000
  12128  12129     1   0.14647 272713.120000
  12128  12130     1   0.14647 272713.120000
  12129  12140     1   0.15375 251793.120000
  12130  12132     1   0.15375 251793.120000
  12132  12136     1   0.15241 261918.400000
  12136  12137     1   0.12183 533627.360000
  12136  12168     1   0.13400 406935.840000
  12140  12143     1   0.15241 261918.400000
  12143  12144     1   0.12183 533627.360000
  12143  12192     1   0.13400 406935.840000
  12145  12146     1   0.15375 251793.120000
  12145  12156     1   0.15375 251793.120000
  12145  12163     1   0.14316 258236.480000
  12146  12148     1   0.15375 251793.120000
  12146  12166     1   0.14233 265014.560000
  12148  12149     1   0.15375 251793.120000
  12148  12155     1   0.14233 265014.560000
  12149  12150     1   0.15375 251793.120000
  12149  12168     1   0.14647 272713.120000
  12150  12154     1   0.14233 265014.560000
  12150  12163     1   0.14316 258236.480000
  12156  12161     1   0.14233 265014.560000
  12169  12170     1   0.15375 251793.120000
  12169  12180     1   0.15375 251793.120000
  12169  12187     1   0.14316 258236.480000
  12170  12172     1   0.15375 251793.120000
  12170  12190     1   0.14233 265014.560000
  12172  12173     1   0.15375 251793.120000
  12172  12179     1   0.14233 265014.560000
  12173  12174     1   0.15375 251793.120000
  12173  12192     1   0.14647 272713.120000
  12174  12178     1   0.14233 265014.560000
  12174  12187     1   0.14316 258236.480000
  12180  12185     1   0.14233 265014.560000
  12193  12195     1   0.14619 275056.160000
  12195  12197     1   0.15375 251793.120000
  12197  12201     1   0.14647 272713.120000
  12201  12202     1   0.14647 272713.120000
  12201  12203     1   0.14647 272713.120000
  12202  12213     1   0.15375 251793.120000
  12203  12205     1   0.15375 251793.120000
  12205  12209     1   0.15241 261918.400000
  12209  12210     1   0.12183 533627.360000
  12209  12241     1   0.13400 406935.840000
  12213  12216     1   0.15241 261918.400000
  12216  12217     1   0.12183 533627.360000
  12216  12265     1   0.13400 406935.840000
  12218  12219     1   0.15375 251793.120000
  12218  12229     1   0.15375 251793.120000
  12218  12236     1   0.14316 258236.480000
  12219  12221     1   0.15375 251793.120000
  12219  12239     1   0.14233 265014.560000
  12221  12222     1   0.15375 251793.120000
  12221  12228     1   0.14233 265014.560000
  12222  12223     1   0.15375 251793.120000
  12222  12241     1   0.14647 272713.120000
  12223  12227     1   0.14233 265014.560000
  12223  12236     1   0.14316 258236.480000
  12229  12234     1   0.14233 265014.560000
  12242  12243     1   0.15375 251793.120000
  12242  12253     1   0.15375 251793.120000
  12242  12260     1   0.14316 258236.480000
  12243  12245     1   0.15375 251793.120000
  12243  12263     1   0.14233 265014.560000
  12245  12246     1   0.15375 251793.120000
  12245  12252     1   0.14233 265014.560000
  12246  12247     1   0.15375 251793.120000
  12246  12265     1   0.14647 272713.120000
  12247  12251     1   0.14233 265014.560000
  12247  12260     1   0.14316 258236.480000
  12253  12258     1   0.14233 265014.560000
  12266  12268     1   0.14619 275056.160000
  12268  12270     1   0.15375 251793.120000
  12270  12274     1   0.14647 272713.120000
  12274  12275     1   0.14647 272713.120000
  12274  12276     1   0.14647 272713.120000
  12275  12286     1   0.15375 251793.120000
  12276  12278     1   0.15375 251793.120000
  12278  12282     1   0.15241 261918.400000
  12282  12283     1   0.12183 533627.360000
  12282  12314     1   0.13400 406935.840000
  12286  12289     1   0.15241 261918.400000
  12289  12290     1   0.12183 533627.360000
  12289  12338     1   0.13400 406935.840000
  12291  12292     1   0.15375 251793.120000
  12291  12302     1   0.15375 251793.120000
  12291  12309     1   0.14316 258236.480000
  12292  12294     1   0.15375 251793.120000
  12292  12312     1   0.14233 265014.560000
  12294  12295     1   0.15375 251793.120000
  12294  12301     1   0.14233 265014.560000
  12295  12296     1   0.15375 251793.120000
  12295  12314     1   0.14647 272713.120000
  12296  12300     1   0.14233 265014.560000
  12296  12309     1   0.14316 258236.480000
  12302  12307     1   0.14233 265014.560000
  12315  12316     1   0.15375 251793.120000
  12315  12326     1   0.15375 251793.120000
  12315  12333     1   0.14316 258236.480000
  12316  12318     1   0.15375 251793.120000
  12316  12336     1   0.14233 265014.560000
  12318  12319     1   0.15375 251793.120000
  12318  12325     1   0.14233 265014.560000
  12319  12320     1   0.15375 251793.120000
  12319  12338     1   0.14647 272713.120000
  12320  12324     1   0.14233 265014.560000
  12320  12333     1   0.14316 258236.480000
  12326  12331     1   0.14233 265014.560000
  12339  12341     1   0.14619 275056.160000
  12341  12343     1   0.15375 251793.120000
  12343  12347     1   0.14647 272713.120000
  12347  12348     1   0.14647 272713.120000
  12347  12349     1   0.14647 272713.120000
  12348  12359     1   0.15375 251793.120000
  12349  12351     1   0.15375 251793.120000
  12351  12355     1   0.15241 261918.400000
  12355  12356     1   0.12183 533627.360000
  12355  12387     1   0.13400 406935.840000
  12359  12362     1   0.15241 261918.400000
  12362  12363     1   0.12183 533627.360000
  12362  12411     1   0.13400 406935.840000
  12364  12365     1   0.15375 251793.120000
  12364  12375     1   0.15375 251793.120000
  12364  12382     1   0.14316 258236.480000
  12365  12367     1   0.15375 251793.120000
  12365  12385     1   0.14233 265014.560000
  12367  12368     1   0.15375 251793.120000
  12367  12374     1   0.14233 265014.560000
  12368  12369     1   0.15375 251793.120000
  12368  12387     1   0.14647 272713.120000
  12369  12373     1   0.14233 265014.560000
  12369  12382     1   0.14316 258236.480000
  12375  12380     1   0.14233 265014.560000
  12388  12389     1   0.15375 251793.120000
  12388  12399     1   0.15375 251793.120000
  12388  12406     1   0.14316 258236.480000
  12389  12391     1   0.15375 251793.120000
  12389  12409     1   0.14233 265014.560000
  12391  12392     1   0.15375 251793.120000
  12391  12398     1   0.14233 265014.560000
  12392  12393     1   0.15375 251793.120000
  12392  12411     1   0.14647 272713.120000
  12393  12397     1   0.14233 265014.560000
  12393  12406     1   0.14316 258236.480000
  12399  12404     1   0.14233 265014.560000
  12412  12414     1   0.14619 275056.160000
  12414  12416     1   0.15375 251793.120000
  12416  12420     1   0.14647 272713.120000
  12420  12421     1   0.14647 272713.120000
  12420  12422     1   0.14647 272713.120000
  12421  12432     1   0.15375 251793.120000
  12422  12424     1   0.15375 251793.120000
  12424  12428     1   0.15241 261918.400000
  12428  12429     1   0.12183 533627.360000
  12428  12460     1   0.13400 406935.840000
  12432  12435     1   0.15241 261918.400000
  12435  12436     1   0.12183 533627.360000
  12435  12484     1   0.13400 406935.840000
  12437  12438     1   0.15375 251793.120000
  12437  12448     1   0.15375 251793.120000
  12437  12455     1   0.14316 258236.480000
  12438  12440     1   0.15375 251793.120000
  12438  12458     1   0.14233 265014.560000
  12440  12441     1   0.15375 251793.120000
  12440  12447     1   0.14233 265014.560000
  12441  12442     1   0.15375 251793.120000
  12441  12460     1   0.14647 272713.120000
  12442  12446     1   0.14233 265014.560000
  12442  12455     1   0.14316 258236.480000
  12448  12453     1   0.14233 265014.560000
  12461  12462     1   0.15375 251793.120000
  12461  12472     1   0.15375 251793.120000
  12461  12479     1   0.14316 258236.480000
  12462  12464     1   0.15375 251793.120000
  12462  12482     1   0.14233 265014.560000
  12464  12465     1   0.15375 251793.120000
  12464  12471     1   0.14233 265014.560000
  12465  12466     1   0.15375 251793.120000
  12465  12484     1   0.14647 272713.120000
  12466  12470     1   0.14233 265014.560000
  12466  12479     1   0.14316 258236.480000
  12472  12477     1   0.14233 265014.560000
      1      2     1   0.10969 276646.080000
      1      3     1   0.10969 276646.080000
      4      5     1   0.10969 276646.080000
      4      6     1   0.10969 276646.080000
      9     10     1   0.10969 276646.080000
      9     11     1   0.10969 276646.080000
     12     13     1   0.10969 276646.080000
     12     14     1   0.10969 276646.080000
     15     16     1   0.10969 276646.080000
     15     17     1   0.10969 276646.080000
     18     19     1   0.10969 276646.080000
     18     20     1   0.10969 276646.080000
     21     22     1   0.10969 276646.080000
     21     23     1   0.10969 276646.080000
     24     25     1   0.10969 276646.080000
     24     26     1   0.10969 276646.080000
     27     28     1   0.10969 276646.080000
     27     29     1   0.10969 276646.080000
     30     31     1   0.10969 276646.080000
     30     32     1   0.10969 276646.080000
     41     42     1   0.10969 276646.080000
     41     43     1   0.10969 276646.080000
     44     45     1   0.10969 276646.080000
     44     46     1   0.10969 276646.080000
     48     49     1   0.10969 276646.080000
     48     50     1   0.10969 276646.080000
     51     52     1   0.10969 276646.080000
     51     53     1   0.10969 276646.080000
     54     55     1   0.10969 276646.080000
     54     56     1   0.10969 276646.080000
     57     58     1   0.10969 276646.080000
     57     59     1   0.10969 276646.080000
     64     65     1   0.10129 337397.760000
     66     67     1   0.10969 276646.080000
     66     68     1   0.10969 276646.080000
     69     70     1   0.10969 276646.080000
     69     71     1   0.10969 276646.080000
     73     74     1   0.10969 276646.080000
     73     75     1   0.10969 276646.080000
     76     77     1   0.10969 276646.080000
     76     78     1   0.10969 276646.080000
     79     80     1   0.10969 276646.080000
     79     81     1   0.10969 276646.080000
     82     83     1   0.10969 276646.080000
     82     84     1   0.10969 276646.080000
     89     90     1   0.10129 337397.760000
     91     92     1   0.10969 276646.080000
     91     93     1   0.10969 276646.080000
     94     95     1   0.10969 276646.080000
     94     96     1   0.10969 276646.080000
     98     99     1   0.10969 276646.080000
     98    100     1   0.10969 276646.080000
    101    102     1   0.10969 276646.080000
    101    103     1   0.10969 276646.080000
    104    105     1   0.10969 276646.080000
    104    106     1   0.10969 276646.080000
    107    108     1   0.10969 276646.080000
    107    109     1   0.10969 276646.080000
    114    115     1   0.10129 337397.760000
    116    117     1   0.10969 276646.080000
    116    118     1   0.10969 276646.080000
    119    120     1   0.10969 276646.080000
    119    121     1   0.10969 276646.080000
    123    124     1   0.10969 276646.080000
    123    125     1   0.10969 276646.080000
    126    127     1   0.10969 276646.080000
    126    128     1   0.10969 276646.080000
    129    130     1   0.10969 276646.080000
    129    131     1   0.10969 276646.080000
    132    133     1   0.10969 276646.080000
    132    134     1   0.10969 276646.080000
    139    140     1   0.10129 337397.760000
    141    142     1   0.10969 276646.080000
    141    143     1   0.10969 276646.080000
    144    145     1   0.10969 276646.080000
    144    146     1   0.10969 276646.080000
    148    149     1   0.10969 276646.080000
    148    150     1   0.10969 276646.080000
    151    152     1   0.10969 276646.080000
    151    153     1   0.10969 276646.080000
    154    155     1   0.10969 276646.080000
    154    156     1   0.10969 276646.080000
    157    158     1   0.10969 276646.080000
    157    159     1   0.10969 276646.080000
    164    165     1   0.10129 337397.760000
    166    167     1   0.10969 276646.080000
    166    168     1   0.10969 276646.080000
    169    170     1   0.10969 276646.080000
    169    171     1   0.10969 276646.080000
    173    174     1   0.10969 276646.080000
    173    175     1   0.10969 276646.080000
    176    177     1   0.10969 276646.080000
    176    178     1   0.10969 276646.080000
    179    180     1   0.10969 276646.080000
    179    181     1   0.10969 276646.080000
    182    183     1   0.10969 276646.080000
    182    184     1   0.10969 276646.080000
    189    190     1   0.10129 337397.760000
    191    192     1   0.10969 276646.080000
    191    193     1   0.10969 276646.080000
    194    195     1   0.10969 276646.080000
    194    196     1   0.10969 276646.080000
    198    199     1   0.10969 276646.080000
    198    200     1   0.10969 276646.080000
    201    202     1   0.10969 276646.080000
    201    203     1   0.10969 276646.080000
    204    205     1   0.10969 276646.080000
    204    206     1   0.10969 276646.080000
    207    208     1   0.10969 276646.080000
    207    209     1   0.10969 276646.080000
    214    215     1   0.10129 337397.760000
    216    217     1   0.10969 276646.080000
    216    218     1   0.10969 276646.080000
    219    220     1   0.10969 276646.080000
    219    221     1   0.10969 276646.080000
    223    224     1   0.10969 276646.080000
    223    225     1   0.10969 276646.080000
    226    227     1   0.10969 276646.080000
    226    228     1   0.10969 276646.080000
    229    230     1   0.10969 276646.080000
    229    231     1   0.10969 276646.080000
    232    233     1   0.10969 276646.080000
    232    234     1   0.10969 276646.080000
    239    240     1   0.10129 337397.760000
    241    242     1   0.10969 276646.080000
    241    243     1   0.10969 276646.080000
    244    245     1   0.10969 276646.080000
    244    246     1   0.10969 276646.080000
    248    249     1   0.10969 276646.080000
    248    250     1   0.10969 276646.080000
    251    252     1   0.10969 276646.080000
    251    253     1   0.10969 276646.080000
    254    255     1   0.10969 276646.080000
    254    256     1   0.10969 276646.080000
    257    258     1   0.10969 276646.080000
    257    259     1   0.10969 276646.080000
    264    265     1   0.10129 337397.760000
    266    267     1   0.10969 276646.080000
    266    268     1   0.10969 276646.080000
    269    270     1   0.10969 276646.080000
    269    271     1   0.10969 276646.080000
    273    274     1   0.10969 276646.080000
    273    275     1   0.10969 276646.080000
    276    277     1   0.10969 276646.080000
    276    278     1   0.10969 276646.080000
    279    280     1   0.10969 276646.080000
    279    281     1   0.10969 276646.080000
    282    283     1   0.10969 276646.080000
    282    284     1   0.10969 276646.080000
    289    290     1   0.10129 337397.760000
    291    292     1   0.10969 276646.080000
    291    293     1   0.10969 276646.080000
    294    295     1   0.10969 276646.080000
    294    296     1   0.10969 276646.080000
    298    299     1   0.10969 276646.080000
    298    300     1   0.10969 276646.080000
    301    302     1   0.10969 276646.080000
    301    303     1   0.10969 276646.080000
    304    305     1   0.10969 276646.080000
    304    306     1   0.10969 276646.080000
    307    308     1   0.10969 276646.080000
    307    309     1   0.10969 276646.080000
    314    315     1   0.10129 337397.760000
    316    317     1   0.10969 276646.080000
    316    318     1   0.10969 276646.080000
    319    320     1   0.10969 276646.080000
    319    321     1   0.10969 276646.080000
    323    324     1   0.10969 276646.080000
    323    325     1   0.10969 276646.080000
    326    327     1   0.10969 276646.080000
    326    328     1   0.10969 276646.080000
    329    330     1   0.10969 276646.080000
    329    331     1   0.10969 276646.080000
    332    333     1   0.10969 276646.080000
    332    334     1   0.10969 276646.080000
    339    340     1   0.10129 337397.760000
    341    342     1   0.10969 276646.080000
    341    343     1   0.10969 276646.080000
    344    345     1   0.10969 276646.080000
    344    346     1   0.10969 276646.080000
    348    349     1   0.10969 276646.080000
    348    350     1   0.10969 276646.080000
    351    352     1   0.10969 276646.080000
    351    353     1   0.10969 276646.080000
    354    355     1   0.10969 276646.080000
    354    356     1   0.10969 276646.080000
    357    358     1   0.10969 276646.080000
    357    359     1   0.10969 276646.080000
    364    365     1   0.10129 337397.760000
    366    367     1   0.10969 276646.080000
    366    368     1   0.10969 276646.080000
    369    370     1   0.10969 276646.080000
    369    371     1   0.10969 276646.080000
    373    374     1   0.10969 276646.080000
    373    375     1   0.10969 276646.080000
    376    377     1   0.10969 276646.080000
    376    378     1   0.10969 276646.080000
    379    380     1   0.10969 276646.080000
    379    381     1   0.10969 276646.080000
    382    383     1   0.10969 276646.080000
    382    384     1   0.10969 276646.080000
    389    390     1   0.10129 337397.760000
    391    392     1   0.10969 276646.080000
    391    393     1   0.10969 276646.080000
    394    395     1   0.10969 276646.080000
    394    396     1   0.10969 276646.080000
    398    399     1   0.10969 276646.080000
    398    400     1   0.10969 276646.080000
    401    402     1   0.10969 276646.080000
    401    403     1   0.10969 276646.080000
    404    405     1   0.10969 276646.080000
    404    406     1   0.10969 276646.080000
    407    408     1   0.10969 276646.080000
    407    409     1   0.10969 276646.080000
    414    415     1   0.10129 337397.760000
    416    417     1   0.10969 276646.080000
    416    418     1   0.10969 276646.080000
    419    420     1   0.10969 276646.080000
    419    421     1   0.10969 276646.080000
    423    424     1   0.10969 276646.080000
    423    425     1   0.10969 276646.080000
    426    427     1   0.10969 276646.080000
    426    428     1   0.10969 276646.080000
    429    430     1   0.10969 276646.080000
    429    431     1   0.10969 276646.080000
    432    433     1   0.10969 276646.080000
    432    434     1   0.10969 276646.080000
    439    440     1   0.10129 337397.760000
    441    442     1   0.10969 276646.080000
    441    443     1   0.10969 276646.080000
    444    445     1   0.10969 276646.080000
    444    446     1   0.10969 276646.080000
    448    449     1   0.10969 276646.080000
    448    450     1   0.10969 276646.080000
    451    452     1   0.10969 276646.080000
    451    453     1   0.10969 276646.080000
    454    455     1   0.10969 276646.080000
    454    456     1   0.10969 276646.080000
    457    458     1   0.10969 276646.080000
    457    459     1   0.10969 276646.080000
    464    465     1   0.10129 337397.760000
    466    467     1   0.10969 276646.080000
    466    468     1   0.10969 276646.080000
    469    470     1   0.10969 276646.080000
    469    471     1   0.10969 276646.080000
    473    474     1   0.10969 276646.080000
    473    475     1   0.10969 276646.080000
    476    477     1   0.10969 276646.080000
    476    478     1   0.10969 276646.080000
    479    480     1   0.10969 276646.080000
    479    481     1   0.10969 276646.080000
    482    483     1   0.10969 276646.080000
    482    484     1   0.10969 276646.080000
    489    490     1   0.10129 337397.760000
    491    492     1   0.10969 276646.080000
    491    493     1   0.10969 276646.080000
    494    495     1   0.10969 276646.080000
    494    496     1   0.10969 276646.080000
    498    499     1   0.10969 276646.080000
    498    500     1   0.10969 276646.080000
    501    502     1   0.10969 276646.080000
    501    503     1   0.10969 276646.080000
    504    505     1   0.10969 276646.080000
    504    506     1   0.10969 276646.080000
    507    508     1   0.10969 276646.080000
    507    509     1   0.10969 276646.080000
    514    515     1   0.10129 337397.760000
    516    517     1   0.10969 276646.080000
    516    518     1   0.10969 276646.080000
    519    520     1   0.10969 276646.080000
    519    521     1   0.10969 276646.080000
    523    524     1   0.10969 276646.080000
    523    525     1   0.10969 276646.080000
    526    527     1   0.10969 276646.080000
    526    528     1   0.10969 276646.080000
    529    530     1   0.10969 276646.080000
    529    531     1   0.10969 276646.080000
    532    533     1   0.10969 276646.080000
    532    534     1   0.10969 276646.080000
    539    540     1   0.10129 337397.760000
    541    542     1   0.10969 276646.080000
    541    543     1   0.10969 276646.080000
    544    545     1   0.10969 276646.080000
    544    546     1   0.10969 276646.080000
    548    549     1   0.10969 276646.080000
    548    550     1   0.10969 276646.080000
    551    552     1   0.10969 276646.080000
    551    553     1   0.10969 276646.080000
    554    555     1   0.10969 276646.080000
    554    556     1   0.10969 276646.080000
    557    558     1   0.10969 276646.080000
    557    559     1   0.10969 276646.080000
    564    565     1   0.10129 337397.760000
    566    567     1   0.10969 276646.080000
    566    568     1   0.10969 276646.080000
    569    570     1   0.10969 276646.080000
    569    571     1   0.10969 276646.080000
    573    574     1   0.10969 276646.080000
    573    575     1   0.10969 276646.080000
    576    577     1   0.10969 276646.080000
    576    578     1   0.10969 276646.080000
    579    580     1   0.10969 276646.080000
    579    581     1   0.10969 276646.080000
    582    583     1   0.10969 276646.080000
    582    584     1   0.10969 276646.080000
    589    590     1   0.10129 337397.760000
    591    592     1   0.10969 276646.080000
    591    593     1   0.10969 276646.080000
    594    595     1   0.10969 276646.080000
    594    596     1   0.10969 276646.080000
    598    599     1   0.10969 276646.080000
    598    600     1   0.10969 276646.080000
    601    602     1   0.10969 276646.080000
    601    603     1   0.10969 276646.080000
    604    605     1   0.10969 276646.080000
    604    606     1   0.10969 276646.080000
    607    608     1   0.10969 276646.080000
    607    609     1   0.10969 276646.080000
    614    615     1   0.10129 337397.760000
    616    617     1   0.10969 276646.080000
    616    618     1   0.10969 276646.080000
    619    620     1   0.10969 276646.080000
    619    621     1   0.10969 276646.080000
    623    624     1   0.10969 276646.080000
    623    625     1   0.10969 276646.080000
    626    627     1   0.10969 276646.080000
    626    628     1   0.10969 276646.080000
    629    630     1   0.10969 276646.080000
    629    631     1   0.10969 276646.080000
    632    633     1   0.10969 276646.080000
    632    634     1   0.10969 276646.080000
    639    640     1   0.10129 337397.760000
    641    642     1   0.10969 276646.080000
    641    643     1   0.10969 276646.080000
    644    645     1   0.10969 276646.080000
    644    646     1   0.10969 276646.080000
    648    649     1   0.10969 276646.080000
    648    650     1   0.10969 276646.080000
    651    652     1   0.10969 276646.080000
    651    653     1   0.10969 276646.080000
    654    655     1   0.10969 276646.080000
    654    656     1   0.10969 276646.080000
    657    658     1   0.10969 276646.080000
    657    659     1   0.10969 276646.080000
    664    665     1   0.10129 337397.760000
    666    667     1   0.10969 276646.080000
    666    668     1   0.10969 276646.080000
    669    670     1   0.10969 276646.080000
    669    671     1   0.10969 276646.080000
    673    674     1   0.10969 276646.080000
    673    675     1   0.10969 276646.080000
    676    677     1   0.10969 276646.080000
    676    678     1   0.10969 276646.080000
    679    680     1   0.10969 276646.080000
    679    681     1   0.10969 276646.080000
    682    683     1   0.10969 276646.080000
    682    684     1   0.10969 276646.080000
    689    690     1   0.10129 337397.760000
    691    692     1   0.10969 276646.080000
    691    693     1   0.10969 276646.080000
    694    695     1   0.10969 276646.080000
    694    696     1   0.10969 276646.080000
    698    699     1   0.10969 276646.080000
    698    700     1   0.10969 276646.080000
    701    702     1   0.10969 276646.080000
    701    703     1   0.10969 276646.080000
    704    705     1   0.10969 276646.080000
    704    706     1   0.10969 276646.080000
    707    708     1   0.10969 276646.080000
    707    709     1   0.10969 276646.080000
    714    715     1   0.10129 337397.760000
    716    717     1   0.10969 276646.080000
    716    718     1   0.10969 276646.080000
    719    720     1   0.10969 276646.080000
    719    721     1   0.10969 276646.080000
    723    724     1   0.10969 276646.080000
    723    725     1   0.10969 276646.080000
    726    727     1   0.10969 276646.080000
    726    728     1   0.10969 276646.080000
    729    730     1   0.10969 276646.080000
    729    731     1   0.10969 276646.080000
    732    733     1   0.10969 276646.080000
    732    734     1   0.10969 276646.080000
    739    740     1   0.10129 337397.760000
    741    742     1   0.10969 276646.080000
    741    743     1   0.10969 276646.080000
    744    745     1   0.10969 276646.080000
    744    746     1   0.10969 276646.080000
    748    749     1   0.10969 276646.080000
    748    750     1   0.10969 276646.080000
    751    752     1   0.10969 276646.080000
    751    753     1   0.10969 276646.080000
    754    755     1   0.10969 276646.080000
    754    756     1   0.10969 276646.080000
    757    758     1   0.10969 276646.080000
    757    759     1   0.10969 276646.080000
    764    765     1   0.10129 337397.760000
    766    767     1   0.10969 276646.080000
    766    768     1   0.10969 276646.080000
    769    770     1   0.10969 276646.080000
    769    771     1   0.10969 276646.080000
    773    774     1   0.10969 276646.080000
    773    775     1   0.10969 276646.080000
    776    777     1   0.10969 276646.080000
    776    778     1   0.10969 276646.080000
    779    780     1   0.10969 276646.080000
    779    781     1   0.10969 276646.080000
    782    783     1   0.10969 276646.080000
    782    784     1   0.10969 276646.080000
    789    790     1   0.10129 337397.760000
    791    792     1   0.10969 276646.080000
    791    793     1   0.10969 276646.080000
    794    795     1   0.10969 276646.080000
    794    796     1   0.10969 276646.080000
    798    799     1   0.10969 276646.080000
    798    800     1   0.10969 276646.080000
    801    802     1   0.10969 276646.080000
    801    803     1   0.10969 276646.080000
    804    805     1   0.10969 276646.080000
    804    806     1   0.10969 276646.080000
    807    808     1   0.10969 276646.080000
    807    809     1   0.10969 276646.080000
    814    815     1   0.10129 337397.760000
    816    817     1   0.10969 276646.080000
    816    818     1   0.10969 276646.080000
    819    820     1   0.10969 276646.080000
    819    821     1   0.10969 276646.080000
    823    824     1   0.10969 276646.080000
    823    825     1   0.10969 276646.080000
    826    827     1   0.10969 276646.080000
    826    828     1   0.10969 276646.080000
    829    830     1   0.10969 276646.080000
    829    831     1   0.10969 276646.080000
    832    833     1   0.10969 276646.080000
    832    834     1   0.10969 276646.080000
    839    840     1   0.10129 337397.760000
    841    842     1   0.10969 276646.080000
    841    843     1   0.10969 276646.080000
    844    845     1   0.10969 276646.080000
    844    846     1   0.10969 276646.080000
    848    849     1   0.10969 276646.080000
    848    850     1   0.10969 276646.080000
    851    852     1   0.10969 276646.080000
    851    853     1   0.10969 276646.080000
    854    855     1   0.10969 276646.080000
    854    856     1   0.10969 276646.080000
    857    858     1   0.10969 276646.080000
    857    859     1   0.10969 276646.080000
    864    865     1   0.10129 337397.760000
    866    867     1   0.10969 276646.080000
    866    868     1   0.10969 276646.080000
    869    870     1   0.10969 276646.080000
    869    871     1   0.10969 276646.080000
    873    874     1   0.10969 276646.080000
    873    875     1   0.10969 276646.080000
    876    877     1   0.10969 276646.080000
    876    878     1   0.10969 276646.080000
    879    880     1   0.10969 276646.080000
    879    881     1   0.10969 276646.080000
    882    883     1   0.10969 276646.080000
    882    884     1   0.10969 276646.080000
    889    890     1   0.10129 337397.760000
    891    892     1   0.10969 276646.080000
    891    893     1   0.10969 276646.080000
    894    895     1   0.10969 276646.080000
    894    896     1   0.10969 276646.080000
    898    899     1   0.10969 276646.080000
    898    900     1   0.10969 276646.080000
    901    902     1   0.10969 276646.080000
    901    903     1   0.10969 276646.080000
    904    905     1   0.10969 276646.080000
    904    906     1   0.10969 276646.080000
    907    908     1   0.10969 276646.080000
    907    909     1   0.10969 276646.080000
    914    915     1   0.10129 337397.760000
    916    917     1   0.10969 276646.080000
    916    918     1   0.10969 276646.080000
    919    920     1   0.10969 276646.080000
    919    921     1   0.10969 276646.080000
    923    924     1   0.10969 276646.080000
    923    925     1   0.10969 276646.080000
    926    927     1   0.10969 276646.080000
    926    928     1   0.10969 276646.080000
    929    930     1   0.10969 276646.080000
    929    931     1   0.10969 276646.080000
    932    933     1   0.10969 276646.080000
    932    934     1   0.10969 276646.080000
    939    940     1   0.10129 337397.760000
    941    942     1   0.10969 276646.080000
    941    943     1   0.10969 276646.080000
    944    945     1   0.10969 276646.080000
    944    946     1   0.10969 276646.080000
    948    949     1   0.10969 276646.080000
    948    950     1   0.10969 276646.080000
    951    952     1   0.10969 276646.080000
    951    953     1   0.10969 276646.080000
    954    955     1   0.10969 276646.080000
    954    956     1   0.10969 276646.080000
    957    958     1   0.10969 276646.080000
    957    959     1   0.10969 276646.080000
    964    965     1   0.10129 337397.760000
    966    967     1   0.10969 276646.080000
    966    968     1   0.10969 276646.080000
    969    970     1   0.10969 276646.080000
    969    971     1   0.10969 276646.080000
    973    974     1   0.10969 276646.080000
    973    975     1   0.10969 276646.080000
    976    977     1   0.10969 276646.080000
    976    978     1   0.10969 276646.080000
    979    980     1   0.10969 276646.080000
    979    981     1   0.10969 276646.080000
    982    983     1   0.10969 276646.080000
    982    984     1   0.10969 276646.080000
    989    990     1   0.10129 337397.760000
    991    992     1   0.10969 276646.080000
    991    993     1   0.10969 276646.080000
    994    995     1   0.10969 276646.080000
    994    996     1   0.10969 276646.080000
    998    999     1   0.10969 276646.080000
    998   1000     1   0.10969 276646.080000
   1001   1002     1   0.10969 276646.080000
   1001   1003     1   0.10969 276646.080000
   1004   1005     1   0.10969 276646.080000
   1004   1006     1   0.10969 276646.080000
   1007   1008     1   0.10969 276646.080000
   1007   1009     1   0.10969 276646.080000
   1014   1015     1   0.10129 337397.760000
   1016   1017     1   0.10969 276646.080000
   1016   1018     1   0.10969 276646.080000
   1019   1020     1   0.10969 276646.080000
   1019   1021     1   0.10969 276646.080000
   1023   1024     1   0.10969 276646.080000
   1023   1025     1   0.10969 276646.080000
   1026   1027     1   0.10969 276646.080000
   1026   1028     1   0.10969 276646.080000
   1029   1030     1   0.10969 276646.080000
   1029   1031     1   0.10969 276646.080000
   1032   1033     1   0.10969 276646.080000
   1032   1034     1   0.10969 276646.080000
   1039   1040     1   0.10129 337397.760000
   1041   1042     1   0.10969 276646.080000
   1041   1043     1   0.10969 276646.080000
   1044   1045     1   0.10969 276646.080000
   1044   1046     1   0.10969 276646.080000
   1048   1049     1   0.10969 276646.080000
   1048   1050     1   0.10969 276646.080000
   1051   1052     1   0.10969 276646.080000
   1051   1053     1   0.10969 276646.080000
   1054   1055     1   0.10969 276646.080000
   1054   1056     1   0.10969 276646.080000
   1057   1058     1   0.10969 276646.080000
   1057   1059     1   0.10969 276646.080000
   1064   1065     1   0.10129 337397.760000
   1066   1067     1   0.10969 276646.080000
   1066   1068     1   0.10969 276646.080000
   1069   1070     1   0.10969 276646.080000
   1069   1071     1   0.10969 276646.080000
   1073   1074     1   0.10969 276646.080000
   1073   1075     1   0.10969 276646.080000
   1076   1077     1   0.10969 276646.080000
   1076   1078     1   0.10969 276646.080000
   1079   1080     1   0.10969 276646.080000
   1079   1081     1   0.10969 276646.080000
   1082   1083     1   0.10969 276646.080000
   1082   1084     1   0.10969 276646.080000
   1089   1090     1   0.10129 337397.760000
   1091   1092     1   0.10969 276646.080000
   1091   1093     1   0.10969 276646.080000
   1094   1095     1   0.10969 276646.080000
   1094   1096     1   0.10969 276646.080000
   1098   1099     1   0.10969 276646.080000
   1098   1100     1   0.10969 276646.080000
   1101   1102     1   0.10969 276646.080000
   1101   1103     1   0.10969 276646.080000
   1104   1105     1   0.10969 276646.080000
   1104   1106     1   0.10969 276646.080000
   1107   1108     1   0.10969 276646.080000
   1107   1109     1   0.10969 276646.080000
   1114   1115     1   0.10129 337397.760000
   1116   1117     1   0.10969 276646.080000
   1116   1118     1   0.10969 276646.080000
   1119   1120     1   0.10969 276646.080000
   1119   1121     1   0.10969 276646.080000
   1123   1124     1   0.10969 276646.080000
   1123   1125     1   0.10969 276646.080000
   1126   1127     1   0.10969 276646.080000
   1126   1128     1   0.10969 276646.080000
   1129   1130     1   0.10969 276646.080000
   1129   1131     1   0.10969 276646.080000
   1132   1133     1   0.10969 276646.080000
   1132   1134     1   0.10969 276646.080000
   1139   1140     1   0.10129 337397.760000
   1141   1142     1   0.10969 276646.080000
   1141   1143     1   0.10969 276646.080000
   1144   1145     1   0.10969 276646.080000
   1144   1146     1   0.10969 276646.080000
   1148   1149     1   0.10969 276646.080000
   1148   1150     1   0.10969 276646.080000
   1151   1152     1   0.10969 276646.080000
   1151   1153     1   0.10969 276646.080000
   1154   1155     1   0.10969 276646.080000
   1154   1156     1   0.10969 276646.080000
   1157   1158     1   0.10969 276646.080000
   1157   1159     1   0.10969 276646.080000
   1164   1165     1   0.10129 337397.760000
   1166   1167     1   0.10969 276646.080000
   1166   1168     1   0.10969 276646.080000
   1169   1170     1   0.10969 276646.080000
   1169   1171     1   0.10969 276646.080000
   1173   1174     1   0.10969 276646.080000
   1173   1175     1   0.10969 276646.080000
   1176   1177     1   0.10969 276646.080000
   1176   1178     1   0.10969 276646.080000
   1179   1180     1   0.10969 276646.080000
   1179   1181     1   0.10969 276646.080000
   1182   1183     1   0.10969 276646.080000
   1182   1184     1   0.10969 276646.080000
   1189   1190     1   0.10129 337397.760000
   1191   1192     1   0.10969 276646.080000
   1191   1193     1   0.10969 276646.080000
   1194   1195     1   0.10969 276646.080000
   1194   1196     1   0.10969 276646.080000
   1198   1199     1   0.10969 276646.080000
   1198   1200     1   0.10969 276646.080000
   1201   1202     1   0.10969 276646.080000
   1201   1203     1   0.10969 276646.080000
   1204   1205     1   0.10969 276646.080000
   1204   1206     1   0.10969 276646.080000
   1207   1208     1   0.10969 276646.080000
   1207   1209     1   0.10969 276646.080000
   1214   1215     1   0.10129 337397.760000
   1216   1217     1   0.10969 276646.080000
   1216   1218     1   0.10969 276646.080000
   1219   1220     1   0.10969 276646.080000
   1219   1221     1   0.10969 276646.080000
   1223   1224     1   0.10969 276646.080000
   1223   1225     1   0.10969 276646.080000
   1226   1227     1   0.10969 276646.080000
   1226   1228     1   0.10969 276646.080000
   1229   1230     1   0.10969 276646.080000
   1229   1231     1   0.10969 276646.080000
   1232   1233     1   0.10969 276646.080000
   1232   1234     1   0.10969 276646.080000
   1239   1240     1   0.10129 337397.760000
   1241   1242     1   0.10969 276646.080000
   1241   1243     1   0.10969 276646.080000
   1244   1245     1   0.10969 276646.080000
   1244   1246     1   0.10969 276646.080000
   1248   1249     1   0.10969 276646.080000
   1248   1250     1   0.10969 276646.080000
   1251   1252     1   0.10969 276646.080000
   1251   1253     1   0.10969 276646.080000
   1254   1255     1   0.10969 276646.080000
   1254   1256     1   0.10969 276646.080000
   1257   1258     1   0.10969 276646.080000
   1257   1259     1   0.10969 276646.080000
   1264   1265     1   0.10129 337397.760000
   1266   1267     1   0.10969 276646.080000
   1266   1268     1   0.10969 276646.080000
   1269   1270     1   0.10969 276646.080000
   1269   1271     1   0.10969 276646.080000
   1273   1274     1   0.10969 276646.080000
   1273   1275     1   0.10969 276646.080000
   1276   1277     1   0.10969 276646.080000
   1276   1278     1   0.10969 276646.080000
   1279   1280     1   0.10969 276646.080000
   1279   1281     1   0.10969 276646.080000
   1282   1283     1   0.10969 276646.080000
   1282   1284     1   0.10969 276646.080000
   1289   1290     1   0.10129 337397.760000
   1291   1292     1   0.10969 276646.080000
   1291   1293     1   0.10969 276646.080000
   1294   1295     1   0.10969 276646.080000
   1294   1296     1   0.10969 276646.080000
   1298   1299     1   0.10969 276646.080000
   1298   1300     1   0.10969 276646.080000
   1301   1302     1   0.10969 276646.080000
   1301   1303     1   0.10969 276646.080000
   1304   1305     1   0.10969 276646.080000
   1304   1306     1   0.10969 276646.080000
   1307   1308     1   0.10969 276646.080000
   1307   1309     1   0.10969 276646.080000
   1314   1315     1   0.10129 337397.760000
   1316   1317     1   0.10969 276646.080000
   1316   1318     1   0.10969 276646.080000
   1319   1320     1   0.10969 276646.080000
   1319   1321     1   0.10969 276646.080000
   1323   1324     1   0.10969 276646.080000
   1323   1325     1   0.10969 276646.080000
   1326   1327     1   0.10969 276646.080000
   1326   1328     1   0.10969 276646.080000
   1329   1330     1   0.10969 276646.080000
   1329   1331     1   0.10969 276646.080000
   1332   1333     1   0.10969 276646.080000
   1332   1334     1   0.10969 276646.080000
   1339   1340     1   0.10129 337397.760000
   1341   1342     1   0.10969 276646.080000
   1341   1343     1   0.10969 276646.080000
   1344   1345     1   0.10969 276646.080000
   1344   1346     1   0.10969 276646.080000
   1348   1349     1   0.10969 276646.080000
   1348   1350     1   0.10969 276646.080000
   1351   1352     1   0.10969 276646.080000
   1351   1353     1   0.10969 276646.080000
   1354   1355     1   0.10969 276646.080000
   1354   1356     1   0.10969 276646.080000
   1357   1358     1   0.10969 276646.080000
   1357   1359     1   0.10969 276646.080000
   1364   1365     1   0.10129 337397.760000
   1366   1367     1   0.10969 276646.080000
   1366   1368     1   0.10969 276646.080000
   1369   1370     1   0.10969 276646.080000
   1369   1371     1   0.10969 276646.080000
   1373   1374     1   0.10969 276646.080000
   1373   1375     1   0.10969 276646.080000
   1376   1377     1   0.10969 276646.080000
   1376   1378     1   0.10969 276646.080000
   1379   1380     1   0.10969 276646.080000
   1379   1381     1   0.10969 276646.080000
   1382   1383     1   0.10969 276646.080000
   1382   1384     1   0.10969 276646.080000
   1389   1390     1   0.10129 337397.760000
   1391   1392     1   0.10969 276646.080000
   1391   1393     1   0.10969 276646.080000
   1394   1395     1   0.10969 276646.080000
   1394   1396     1   0.10969 276646.080000
   1398   1399     1   0.10969 276646.080000
   1398   1400     1   0.10969 276646.080000
   1401   1402     1   0.10969 276646.080000
   1401   1403     1   0.10969 276646.080000
   1404   1405     1   0.10969 276646.080000
   1404   1406     1   0.10969 276646.080000
   1407   1408     1   0.10969 276646.080000
   1407   1409     1   0.10969 276646.080000
   1414   1415     1   0.10129 337397.760000
   1416   1417     1   0.10969 276646.080000
   1416   1418     1   0.10969 276646.080000
   1419   1420     1   0.10969 276646.080000
   1419   1421     1   0.10969 276646.080000
   1423   1424     1   0.10969 276646.080000
   1423   1425     1   0.10969 276646.080000
   1426   1427     1   0.10969 276646.080000
   1426   1428     1   0.10969 276646.080000
   1429   1430     1   0.10969 276646.080000
   1429   1431     1   0.10969 276646.080000
   1432   1433     1   0.10969 276646.080000
   1432   1434     1   0.10969 276646.080000
   1439   1440     1   0.10129 337397.760000
   1441   1442     1   0.10969 276646.080000
   1441   1443     1   0.10969 276646.080000
   1444   1445     1   0.10969 276646.080000
   1444   1446     1   0.10969 276646.080000
   1448   1449     1   0.10969 276646.080000
   1448   1450     1   0.10969 276646.080000
   1451   1452     1   0.10969 276646.080000
   1451   1453     1   0.10969 276646.080000
   1454   1455     1   0.10969 276646.080000
   1454   1456     1   0.10969 276646.080000
   1457   1458     1   0.10969 276646.080000
   1457   1459     1   0.10969 276646.080000
   1464   1465     1   0.10129 337397.760000
   1466   1467     1   0.10969 276646.080000
   1466   1468     1   0.10969 276646.080000
   1469   1470     1   0.10969 276646.080000
   1469   1471     1   0.10969 276646.080000
   1473   1474     1   0.10969 276646.080000
   1473   1475     1   0.10969 276646.080000
   1476   1477     1   0.10969 276646.080000
   1476   1478     1   0.10969 276646.080000
   1479   1480     1   0.10969 276646.080000
   1479   1481     1   0.10969 276646.080000
   1482   1483     1   0.10969 276646.080000
   1482   1484     1   0.10969 276646.080000
   1489   1490     1   0.10129 337397.760000
   1491   1492     1   0.10969 276646.080000
   1491   1493     1   0.10969 276646.080000
   1494   1495     1   0.10969 276646.080000
   1494   1496     1   0.10969 276646.080000
   1498   1499     1   0.10969 276646.080000
   1498   1500     1   0.10969 276646.080000
   1501   1502     1   0.10969 276646.080000
   1501   1503     1   0.10969 276646.080000
   1504   1505     1   0.10969 276646.080000
   1504   1506     1   0.10969 276646.080000
   1507   1508     1   0.10969 276646.080000
   1507   1509     1   0.10969 276646.080000
   1514   1515     1   0.10129 337397.760000
   1516   1517     1   0.10969 276646.080000
   1516   1518     1   0.10969 276646.080000
   1519   1520     1   0.10969 276646.080000
   1519   1521     1   0.10969 276646.080000
   1523   1524     1   0.10969 276646.080000
   1523   1525     1   0.10969 276646.080000
   1526   1527     1   0.10969 276646.080000
   1526   1528     1   0.10969 276646.080000
   1529   1530     1   0.10969 276646.080000
   1529   1531     1   0.10969 276646.080000
   1532   1533     1   0.10969 276646.080000
   1532   1534     1   0.10969 276646.080000
   1539   1540     1   0.10129 337397.760000
   1541   1542     1   0.10969 276646.080000
   1541   1543     1   0.10969 276646.080000
   1544   1545     1   0.10969 276646.080000
   1544   1546     1   0.10969 276646.080000
   1548   1549     1   0.10969 276646.080000
   1548   1550     1   0.10969 276646.080000
   1551   1552     1   0.10969 276646.080000
   1551   1553     1   0.10969 276646.080000
   1554   1555     1   0.10969 276646.080000
   1554   1556     1   0.10969 276646.080000
   1557   1558     1   0.10969 276646.080000
   1557   1559     1   0.10969 276646.080000
   1564   1565     1   0.10129 337397.760000
   1566   1567     1   0.10969 276646.080000
   1566   1568     1   0.10969 276646.080000
   1569   1570     1   0.10969 276646.080000
   1569   1571     1   0.10969 276646.080000
   1573   1574     1   0.10969 276646.080000
   1573   1575     1   0.10969 276646.080000
   1576   1577     1   0.10969 276646.080000
   1576   1578     1   0.10969 276646.080000
   1579   1580     1   0.10969 276646.080000
   1579   1581     1   0.10969 276646.080000
   1582   1583     1   0.10969 276646.080000
   1582   1584     1   0.10969 276646.080000
   1589   1590     1   0.10129 337397.760000
   1591   1592     1   0.10969 276646.080000
   1591   1593     1   0.10969 276646.080000
   1594   1595     1   0.10969 276646.080000
   1594   1596     1   0.10969 276646.080000
   1598   1599     1   0.10969 276646.080000
   1598   1600     1   0.10969 276646.080000
   1601   1602     1   0.10969 276646.080000
   1601   1603     1   0.10969 276646.080000
   1604   1605     1   0.10969 276646.080000
   1604   1606     1   0.10969 276646.080000
   1607   1608     1   0.10969 276646.080000
   1607   1609     1   0.10969 276646.080000
   1614   1615     1   0.10129 337397.760000
   1616   1617     1   0.10969 276646.080000
   1616   1618     1   0.10969 276646.080000
   1619   1620     1   0.10969 276646.080000
   1619   1621     1   0.10969 276646.080000
   1623   1624     1   0.10969 276646.080000
   1623   1625     1   0.10969 276646.080000
   1626   1627     1   0.10969 276646.080000
   1626   1628     1   0.10969 276646.080000
   1629   1630     1   0.10969 276646.080000
   1629   1631     1   0.10969 276646.080000
   1632   1633     1   0.10969 276646.080000
   1632   1634     1   0.10969 276646.080000
   1639   1640     1   0.10129 337397.760000
   1641   1642     1   0.10969 276646.080000
   1641   1643     1   0.10969 276646.080000
   1644   1645     1   0.10969 276646.080000
   1644   1646     1   0.10969 276646.080000
   1648   1649     1   0.10969 276646.080000
   1648   1650     1   0.10969 276646.080000
   1651   1652     1   0.10969 276646.080000
   1651   1653     1   0.10969 276646.080000
   1654   1655     1   0.10969 276646.080000
   1654   1656     1   0.10969 276646.080000
   1657   1658     1   0.10969 276646.080000
   1657   1659     1   0.10969 276646.080000
   1664   1665     1   0.10129 337397.760000
   1666   1667     1   0.10969 276646.080000
   1666   1668     1   0.10969 276646.080000
   1669   1670     1   0.10969 276646.080000
   1669   1671     1   0.10969 276646.080000
   1673   1674     1   0.10969 276646.080000
   1673   1675     1   0.10969 276646.080000
   1676   1677     1   0.10969 276646.080000
   1676   1678     1   0.10969 276646.080000
   1679   1680     1   0.10969 276646.080000
   1679   1681     1   0.10969 276646.080000
   1682   1683     1   0.10969 276646.080000
   1682   1684     1   0.10969 276646.080000
   1689   1690     1   0.10129 337397.760000
   1691   1692     1   0.10969 276646.080000
   1691   1693     1   0.10969 276646.080000
   1694   1695     1   0.10969 276646.080000
   1694   1696     1   0.10969 276646.080000
   1698   1699     1   0.10969 276646.080000
   1698   1700     1   0.10969 276646.080000
   1701   1702     1   0.10969 276646.080000
   1701   1703     1   0.10969 276646.080000
   1704   1705     1   0.10969 276646.080000
   1704   1706     1   0.10969 276646.080000
   1707   1708     1   0.10969 276646.080000
   1707   1709     1   0.10969 276646.080000
   1714   1715     1   0.10129 337397.760000
   1716   1717     1   0.10969 276646.080000
   1716   1718     1   0.10969 276646.080000
   1719   1720     1   0.10969 276646.080000
   1719   1721     1   0.10969 276646.080000
   1723   1724     1   0.10969 276646.080000
   1723   1725     1   0.10969 276646.080000
   1726   1727     1   0.10969 276646.080000
   1726   1728     1   0.10969 276646.080000
   1729   1730     1   0.10969 276646.080000
   1729   1731     1   0.10969 276646.080000
   1732   1733     1   0.10969 276646.080000
   1732   1734     1   0.10969 276646.080000
   1739   1740     1   0.10129 337397.760000
   1741   1742     1   0.10969 276646.080000
   1741   1743     1   0.10969 276646.080000
   1744   1745     1   0.10969 276646.080000
   1744   1746     1   0.10969 276646.080000
   1748   1749     1   0.10969 276646.080000
   1748   1750     1   0.10969 276646.080000
   1751   1752     1   0.10969 276646.080000
   1751   1753     1   0.10969 276646.080000
   1754   1755     1   0.10969 276646.080000
   1754   1756     1   0.10969 276646.080000
   1757   1758     1   0.10969 276646.080000
   1757   1759     1   0.10969 276646.080000
   1764   1765     1   0.10129 337397.760000
   1766   1767     1   0.10969 276646.080000
   1766   1768     1   0.10969 276646.080000
   1769   1770     1   0.10969 276646.080000
   1769   1771     1   0.10969 276646.080000
   1773   1774     1   0.10969 276646.080000
   1773   1775     1   0.10969 276646.080000
   1776   1777     1   0.10969 276646.080000
   1776   1778     1   0.10969 276646.080000
   1779   1780     1   0.10969 276646.080000
   1779   1781     1   0.10969 276646.080000
   1782   1783     1   0.10969 276646.080000
   1782   1784     1   0.10969 276646.080000
   1789   1790     1   0.10129 337397.760000
   1791   1792     1   0.10969 276646.080000
   1791   1793     1   0.10969 276646.080000
   1794   1795     1   0.10969 276646.080000
   1794   1796     1   0.10969 276646.080000
   1798   1799     1   0.10969 276646.080000
   1798   1800     1   0.10969 276646.080000
   1801   1802     1   0.10969 276646.080000
   1801   1803     1   0.10969 276646.080000
   1804   1805     1   0.10969 276646.080000
   1804   1806     1   0.10969 276646.080000
   1807   1808     1   0.10969 276646.080000
   1807   1809     1   0.10969 276646.080000
   1814   1815     1   0.10129 337397.760000
   1816   1817     1   0.10969 276646.080000
   1816   1818     1   0.10969 276646.080000
   1819   1820     1   0.10969 276646.080000
   1819   1821     1   0.10969 276646.080000
   1823   1824     1   0.10969 276646.080000
   1823   1825     1   0.10969 276646.080000
   1826   1827     1   0.10969 276646.080000
   1826   1828     1   0.10969 276646.080000
   1829   1830     1   0.10969 276646.080000
   1829   1831     1   0.10969 276646.080000
   1832   1833     1   0.10969 276646.080000
   1832   1834     1   0.10969 276646.080000
   1839   1840     1   0.10129 337397.760000
   1841   1842     1   0.10969 276646.080000
   1841   1843     1   0.10969 276646.080000
   1844   1845     1   0.10969 276646.080000
   1844   1846     1   0.10969 276646.080000
   1848   1849     1   0.10969 276646.080000
   1848   1850     1   0.10969 276646.080000
   1851   1852     1   0.10969 276646.080000
   1851   1853     1   0.10969 276646.080000
   1854   1855     1   0.10969 276646.080000
   1854   1856     1   0.10969 276646.080000
   1857   1858     1   0.10969 276646.080000
   1857   1859     1   0.10969 276646.080000
   1864   1865     1   0.10129 337397.760000
   1866   1867     1   0.10969 276646.080000
   1866   1868     1   0.10969 276646.080000
   1869   1870     1   0.10969 276646.080000
   1869   1871     1   0.10969 276646.080000
   1873   1874     1   0.10969 276646.080000
   1873   1875     1   0.10969 276646.080000
   1876   1877     1   0.10969 276646.080000
   1876   1878     1   0.10969 276646.080000
   1879   1880     1   0.10969 276646.080000
   1879   1881     1   0.10969 276646.080000
   1882   1883     1   0.10969 276646.080000
   1882   1884     1   0.10969 276646.080000
   1889   1890     1   0.10129 337397.760000
   1891   1892     1   0.10969 276646.080000
   1891   1893     1   0.10969 276646.080000
   1894   1895     1   0.10969 276646.080000
   1894   1896     1   0.10969 276646.080000
   1898   1899     1   0.10969 276646.080000
   1898   1900     1   0.10969 276646.080000
   1901   1902     1   0.10969 276646.080000
   1901   1903     1   0.10969 276646.080000
   1904   1905     1   0.10969 276646.080000
   1904   1906     1   0.10969 276646.080000
   1907   1908     1   0.10969 276646.080000
   1907   1909     1   0.10969 276646.080000
   1914   1915     1   0.10129 337397.760000
   1916   1917     1   0.10969 276646.080000
   1916   1918     1   0.10969 276646.080000
   1919   1920     1   0.10969 276646.080000
   1919   1921     1   0.10969 276646.080000
   1923   1924     1   0.10969 276646.080000
   1923   1925     1   0.10969 276646.080000
   1926   1927     1   0.10969 276646.080000
   1926   1928     1   0.10969 276646.080000
   1929   1930     1   0.10969 276646.080000
   1929   1931     1   0.10969 276646.080000
   1932   1933     1   0.10969 276646.080000
   1932   1934     1   0.10969 276646.080000
   1939   1940     1   0.10129 337397.760000
   1941   1942     1   0.10969 276646.080000
   1941   1943     1   0.10969 276646.080000
   1944   1945     1   0.10969 276646.080000
   1944   1946     1   0.10969 276646.080000
   1948   1949     1   0.10969 276646.080000
   1948   1950     1   0.10969 276646.080000
   1951   1952     1   0.10969 276646.080000
   1951   1953     1   0.10969 276646.080000
   1954   1955     1   0.10969 276646.080000
   1954   1956     1   0.10969 276646.080000
   1957   1958     1   0.10969 276646.080000
   1957   1959     1   0.10969 276646.080000
   1964   1965     1   0.10129 337397.760000
   1966   1967     1   0.10969 276646.080000
   1966   1968     1   0.10969 276646.080000
   1969   1970     1   0.10969 276646.080000
   1969   1971     1   0.10969 276646.080000
   1973   1974     1   0.10969 276646.080000
   1973   1975     1   0.10969 276646.080000
   1976   1977     1   0.10969 276646.080000
   1976   1978     1   0.10969 276646.080000
   1979   1980     1   0.10969 276646.080000
   1979   1981     1   0.10969 276646.080000
   1982   1983     1   0.10969 276646.080000
   1982   1984     1   0.10969 276646.080000
   1989   1990     1   0.10129 337397.760000
   1991   1992     1   0.10969 276646.080000
   1991   1993     1   0.10969 276646.080000
   1994   1995     1   0.10969 276646.080000
   1994   1996     1   0.10969 276646.080000
   1998   1999     1   0.10969 276646.080000
   1998   2000     1   0.10969 276646.080000
   2001   2002     1   0.10969 276646.080000
   2001   2003     1   0.10969 276646.080000
   2004   2005     1   0.10969 276646.080000
   2004   2006     1   0.10969 276646.080000
   2007   2008     1   0.10969 276646.080000
   2007   2009     1   0.10969 276646.080000
   2014   2015     1   0.10129 337397.760000
   2016   2017     1   0.10969 276646.080000
   2016   2018     1   0.10969 276646.080000
   2019   2020     1   0.10969 276646.080000
   2019   2021     1   0.10969 276646.080000
   2023   2024     1   0.10969 276646.080000
   2023   2025     1   0.10969 276646.080000
   2026   2027     1   0.10969 276646.080000
   2026   2028     1   0.10969 276646.080000
   2029   2030     1   0.10969 276646.080000
   2029   2031     1   0.10969 276646.080000
   2032   2033     1   0.10969 276646.080000
   2032   2034     1   0.10969 276646.080000
   2039   2040     1   0.10129 337397.760000
   2041   2042     1   0.10969 276646.080000
   2041   2043     1   0.10969 276646.080000
   2044   2045     1   0.10969 276646.080000
   2044   2046     1   0.10969 276646.080000
   2048   2049     1   0.10969 276646.080000
   2048   2050     1   0.10969 276646.080000
   2051   2052     1   0.10969 276646.080000
   2051   2053     1   0.10969 276646.080000
   2054   2055     1   0.10969 276646.080000
   2054   2056     1   0.10969 276646.080000
   2057   2058     1   0.10969 276646.080000
   2057   2059     1   0.10969 276646.080000
   2064   2065     1   0.10129 337397.760000
   2066   2067     1   0.10969 276646.080000
   2066   2068     1   0.10969 276646.080000
   2069   2070     1   0.10969 276646.080000
   2069   2071     1   0.10969 276646.080000
   2073   2074     1   0.10969 276646.080000
   2073   2075     1   0.10969 276646.080000
   2076   2077     1   0.10969 276646.080000
   2076   2078     1   0.10969 276646.080000
   2079   2080     1   0.10969 276646.080000
   2079   2081     1   0.10969 276646.080000
   2082   2083     1   0.10969 276646.080000
   2082   2084     1   0.10969 276646.080000
   2089   2090     1   0.10129 337397.760000
   2091   2092     1   0.10969 276646.080000
   2091   2093     1   0.10969 276646.080000
   2094   2095     1   0.10969 276646.080000
   2094   2096     1   0.10969 276646.080000
   2098   2099     1   0.10969 276646.080000
   2098   2100     1   0.10969 276646.080000
   2101   2102     1   0.10969 276646.080000
   2101   2103     1   0.10969 276646.080000
   2104   2105     1   0.10969 276646.080000
   2104   2106     1   0.10969 276646.080000
   2107   2108     1   0.10969 276646.080000
   2107   2109     1   0.10969 276646.080000
   2114   2115     1   0.10129 337397.760000
   2116   2117     1   0.10969 276646.080000
   2116   2118     1   0.10969 276646.080000
   2119   2120     1   0.10969 276646.080000
   2119   2121     1   0.10969 276646.080000
   2123   2124     1   0.10969 276646.080000
   2123   2125     1   0.10969 276646.080000
   2126   2127     1   0.10969 276646.080000
   2126   2128     1   0.10969 276646.080000
   2129   2130     1   0.10969 276646.080000
   2129   2131     1   0.10969 276646.080000
   2132   2133     1   0.10969 276646.080000
   2132   2134     1   0.10969 276646.080000
   2139   2140     1   0.10129 337397.760000
   2141   2142     1   0.10969 276646.080000
   2141   2143     1   0.10969 276646.080000
   2144   2145     1   0.10969 276646.080000
   2144   2146     1   0.10969 276646.080000
   2148   2149     1   0.10969 276646.080000
   2148   2150     1   0.10969 276646.080000
   2151   2152     1   0.10969 276646.080000
   2151   2153     1   0.10969 276646.080000
   2154   2155     1   0.10969 276646.080000
   2154   2156     1   0.10969 276646.080000
   2157   2158     1   0.10969 276646.080000
   2157   2159     1   0.10969 276646.080000
   2164   2165     1   0.10129 337397.760000
   2166   2167     1   0.10969 276646.080000
   2166   2168     1   0.10969 276646.080000
   2169   2170     1   0.10969 276646.080000
   2169   2171     1   0.10969 276646.080000
   2173   2174     1   0.10969 276646.080000
   2173   2175     1   0.10969 276646.080000
   2176   2177     1   0.10969 276646.080000
   2176   2178     1   0.10969 276646.080000
   2179   2180     1   0.10969 276646.080000
   2179   2181     1   0.10969 276646.080000
   2182   2183     1   0.10969 276646.080000
   2182   2184     1   0.10969 276646.080000
   2189   2190     1   0.10129 337397.760000
   2191   2192     1   0.10969 276646.080000
   2191   2193     1   0.10969 276646.080000
   2194   2195     1   0.10969 276646.080000
   2194   2196     1   0.10969 276646.080000
   2198   2199     1   0.10969 276646.080000
   2198   2200     1   0.10969 276646.080000
   2201   2202     1   0.10969 276646.080000
   2201   2203     1   0.10969 276646.080000
   2204   2205     1   0.10969 276646.080000
   2204   2206     1   0.10969 276646.080000
   2207   2208     1   0.10969 276646.080000
   2207   2209     1   0.10969 276646.080000
   2214   2215     1   0.10129 337397.760000
   2216   2217     1   0.10969 276646.080000
   2216   2218     1   0.10969 276646.080000
   2219   2220     1   0.10969 276646.080000
   2219   2221     1   0.10969 276646.080000
   2223   2224     1   0.10969 276646.080000
   2223   2225     1   0.10969 276646.080000
   2226   2227     1   0.10969 276646.080000
   2226   2228     1   0.10969 276646.080000
   2229   2230     1   0.10969 276646.080000
   2229   2231     1   0.10969 276646.080000
   2232   2233     1   0.10969 276646.080000
   2232   2234     1   0.10969 276646.080000
   2239   2240     1   0.10129 337397.760000
   2241   2242     1   0.10969 276646.080000
   2241   2243     1   0.10969 276646.080000
   2244   2245     1   0.10969 276646.080000
   2244   2246     1   0.10969 276646.080000
   2248   2249     1   0.10969 276646.080000
   2248   2250     1   0.10969 276646.080000
   2251   2252     1   0.10969 276646.080000
   2251   2253     1   0.10969 276646.080000
   2254   2255     1   0.10969 276646.080000
   2254   2256     1   0.10969 276646.080000
   2257   2258     1   0.10969 276646.080000
   2257   2259     1   0.10969 276646.080000
   2264   2265     1   0.10129 337397.760000
   2266   2267     1   0.10969 276646.080000
   2266   2268     1   0.10969 276646.080000
   2269   2270     1   0.10969 276646.080000
   2269   2271     1   0.10969 276646.080000
   2273   2274     1   0.10969 276646.080000
   2273   2275     1   0.10969 276646.080000
   2276   2277     1   0.10969 276646.080000
   2276   2278     1   0.10969 276646.080000
   2279   2280     1   0.10969 276646.080000
   2279   2281     1   0.10969 276646.080000
   2282   2283     1   0.10969 276646.080000
   2282   2284     1   0.10969 276646.080000
   2289   2290     1   0.10129 337397.760000
   2291   2292     1   0.10969 276646.080000
   2291   2293     1   0.10969 276646.080000
   2294   2295     1   0.10969 276646.080000
   2294   2296     1   0.10969 276646.080000
   2298   2299     1   0.10969 276646.080000
   2298   2300     1   0.10969 276646.080000
   2301   2302     1   0.10969 276646.080000
   2301   2303     1   0.10969 276646.080000
   2304   2305     1   0.10969 276646.080000
   2304   2306     1   0.10969 276646.080000
   2307   2308     1   0.10969 276646.080000
   2307   2309     1   0.10969 276646.080000
   2314   2315     1   0.10129 337397.760000
   2316   2317     1   0.10969 276646.080000
   2316   2318     1   0.10969 276646.080000
   2319   2320     1   0.10969 276646.080000
   2319   2321     1   0.10969 276646.080000
   2323   2324     1   0.10969 276646.080000
   2323   2325     1   0.10969 276646.080000
   2326   2327     1   0.10969 276646.080000
   2326   2328     1   0.10969 276646.080000
   2329   2330     1   0.10969 276646.080000
   2329   2331     1   0.10969 276646.080000
   2332   2333     1   0.10969 276646.080000
   2332   2334     1   0.10969 276646.080000
   2339   2340     1   0.10129 337397.760000
   2341   2342     1   0.10969 276646.080000
   2341   2343     1   0.10969 276646.080000
   2344   2345     1   0.10969 276646.080000
   2344   2346     1   0.10969 276646.080000
   2348   2349     1   0.10969 276646.080000
   2348   2350     1   0.10969 276646.080000
   2351   2352     1   0.10969 276646.080000
   2351   2353     1   0.10969 276646.080000
   2354   2355     1   0.10969 276646.080000
   2354   2356     1   0.10969 276646.080000
   2357   2358     1   0.10969 276646.080000
   2357   2359     1   0.10969 276646.080000
   2364   2365     1   0.10129 337397.760000
   2366   2367     1   0.10969 276646.080000
   2366   2368     1   0.10969 276646.080000
   2369   2370     1   0.10969 276646.080000
   2369   2371     1   0.10969 276646.080000
   2373   2374     1   0.10969 276646.080000
   2373   2375     1   0.10969 276646.080000
   2376   2377     1   0.10969 276646.080000
   2376   2378     1   0.10969 276646.080000
   2379   2380     1   0.10969 276646.080000
   2379   2381     1   0.10969 276646.080000
   2382   2383     1   0.10969 276646.080000
   2382   2384     1   0.10969 276646.080000
   2389   2390     1   0.10129 337397.760000
   2391   2392     1   0.10969 276646.080000
   2391   2393     1   0.10969 276646.080000
   2394   2395     1   0.10969 276646.080000
   2394   2396     1   0.10969 276646.080000
   2398   2399     1   0.10969 276646.080000
   2398   2400     1   0.10969 276646.080000
   2401   2402     1   0.10969 276646.080000
   2401   2403     1   0.10969 276646.080000
   2404   2405     1   0.10969 276646.080000
   2404   2406     1   0.10969 276646.080000
   2407   2408     1   0.10969 276646.080000
   2407   2409     1   0.10969 276646.080000
   2414   2415     1   0.10129 337397.760000
   2416   2417     1   0.10969 276646.080000
   2416   2418     1   0.10969 276646.080000
   2419   2420     1   0.10969 276646.080000
   2419   2421     1   0.10969 276646.080000
   2423   2424     1   0.10969 276646.080000
   2423   2425     1   0.10969 276646.080000
   2426   2427     1   0.10969 276646.080000
   2426   2428     1   0.10969 276646.080000
   2429   2430     1   0.10969 276646.080000
   2429   2431     1   0.10969 276646.080000
   2432   2433     1   0.10969 276646.080000
   2432   2434     1   0.10969 276646.080000
   2439   2440     1   0.10129 337397.760000
   2441   2442     1   0.10969 276646.080000
   2441   2443     1   0.10969 276646.080000
   2444   2445     1   0.10969 276646.080000
   2444   2446     1   0.10969 276646.080000
   2448   2449     1   0.10969 276646.080000
   2448   2450     1   0.10969 276646.080000
   2451   2452     1   0.10969 276646.080000
   2451   2453     1   0.10969 276646.080000
   2454   2455     1   0.10969 276646.080000
   2454   2456     1   0.10969 276646.080000
   2457   2458     1   0.10969 276646.080000
   2457   2459     1   0.10969 276646.080000
   2464   2465     1   0.10129 337397.760000
   2466   2467     1   0.10969 276646.080000
   2466   2468     1   0.10969 276646.080000
   2469   2470     1   0.10969 276646.080000
   2469   2471     1   0.10969 276646.080000
   2473   2474     1   0.10969 276646.080000
   2473   2475     1   0.10969 276646.080000
   2476   2477     1   0.10969 276646.080000
   2476   2478     1   0.10969 276646.080000
   2479   2480     1   0.10969 276646.080000
   2479   2481     1   0.10969 276646.080000
   2482   2483     1   0.10969 276646.080000
   2482   2484     1   0.10969 276646.080000
   2489   2490     1   0.10129 337397.760000
   2491   2492     1   0.10969 276646.080000
   2491   2493     1   0.10969 276646.080000
   2494   2495     1   0.10969 276646.080000
   2494   2496     1   0.10969 276646.080000
   2498   2499     1   0.10969 276646.080000
   2498   2500     1   0.10969 276646.080000
   2501   2502     1   0.10969 276646.080000
   2501   2503     1   0.10969 276646.080000
   2504   2505     1   0.10969 276646.080000
   2504   2506     1   0.10969 276646.080000
   2507   2508     1   0.10969 276646.080000
   2507   2509     1   0.10969 276646.080000
   2514   2515     1   0.10129 337397.760000
   2516   2517     1   0.10969 276646.080000
   2516   2518     1   0.10969 276646.080000
   2519   2520     1   0.10969 276646.080000
   2519   2521     1   0.10969 276646.080000
   2523   2524     1   0.10969 276646.080000
   2523   2525     1   0.10969 276646.080000
   2526   2527     1   0.10969 276646.080000
   2526   2528     1   0.10969 276646.080000
   2529   2530     1   0.10969 276646.080000
   2529   2531     1   0.10969 276646.080000
   2532   2533     1   0.10969 276646.080000
   2532   2534     1   0.10969 276646.080000
   2539   2540     1   0.10129 337397.760000
   2541   2542     1   0.10969 276646.080000
   2541   2543     1   0.10969 276646.080000
   2544   2545     1   0.10969 276646.080000
   2544   2546     1   0.10969 276646.080000
   2548   2549     1   0.10969 276646.080000
   2548   2550     1   0.10969 276646.080000
   2551   2552     1   0.10969 276646.080000
   2551   2553     1   0.10969 276646.080000
   2554   2555     1   0.10969 276646.080000
   2554   2556     1   0.10969 276646.080000
   2557   2558     1   0.10969 276646.080000
   2557   2559     1   0.10969 276646.080000
   2564   2565     1   0.10129 337397.760000
   2566   2567     1   0.10969 276646.080000
   2566   2568     1   0.10969 276646.080000
   2569   2570     1   0.10969 276646.080000
   2569   2571     1   0.10969 276646.080000
   2573   2574     1   0.10969 276646.080000
   2573   2575     1   0.10969 276646.080000
   2576   2577     1   0.10969 276646.080000
   2576   2578     1   0.10969 276646.080000
   2579   2580     1   0.10969 276646.080000
   2579   2581     1   0.10969 276646.080000
   2582   2583     1   0.10969 276646.080000
   2582   2584     1   0.10969 276646.080000
   2589   2590     1   0.10129 337397.760000
   2591   2592     1   0.10969 276646.080000
   2591   2593     1   0.10969 276646.080000
   2594   2595     1   0.10969 276646.080000
   2594   2596     1   0.10969 276646.080000
   2598   2599     1   0.10969 276646.080000
   2598   2600     1   0.10969 276646.080000
   2601   2602     1   0.10969 276646.080000
   2601   2603     1   0.10969 276646.080000
   2604   2605     1   0.10969 276646.080000
   2604   2606     1   0.10969 276646.080000
   2607   2608     1   0.10969 276646.080000
   2607   2609     1   0.10969 276646.080000
   2614   2615     1   0.10129 337397.760000
   2616   2617     1   0.10969 276646.080000
   2616   2618     1   0.10969 276646.080000
   2619   2620     1   0.10969 276646.080000
   2619   2621     1   0.10969 276646.080000
   2623   2624     1   0.10969 276646.080000
   2623   2625     1   0.10969 276646.080000
   2626   2627     1   0.10969 276646.080000
   2626   2628     1   0.10969 276646.080000
   2629   2630     1   0.10969 276646.080000
   2629   2631     1   0.10969 276646.080000
   2632   2633     1   0.10969 276646.080000
   2632   2634     1   0.10969 276646.080000
   2639   2640     1   0.10129 337397.760000
   2641   2642     1   0.10969 276646.080000
   2641   2643     1   0.10969 276646.080000
   2644   2645     1   0.10969 276646.080000
   2644   2646     1   0.10969 276646.080000
   2648   2649     1   0.10969 276646.080000
   2648   2650     1   0.10969 276646.080000
   2651   2652     1   0.10969 276646.080000
   2651   2653     1   0.10969 276646.080000
   2654   2655     1   0.10969 276646.080000
   2654   2656     1   0.10969 276646.080000
   2657   2658     1   0.10969 276646.080000
   2657   2659     1   0.10969 276646.080000
   2664   2665     1   0.10129 337397.760000
   2666   2667     1   0.10969 276646.080000
   2666   2668     1   0.10969 276646.080000
   2669   2670     1   0.10969 276646.080000
   2669   2671     1   0.10969 276646.080000
   2673   2674     1   0.10969 276646.080000
   2673   2675     1   0.10969 276646.080000
   2676   2677     1   0.10969 276646.080000
   2676   2678     1   0.10969 276646.080000
   2679   2680     1   0.10969 276646.080000
   2679   2681     1   0.10969 276646.080000
   2682   2683     1   0.10969 276646.080000
   2682   2684     1   0.10969 276646.080000
   2689   2690     1   0.10129 337397.760000
   2691   2692     1   0.10969 276646.080000
   2691   2693     1   0.10969 276646.080000
   2694   2695     1   0.10969 276646.080000
   2694   2696     1   0.10969 276646.080000
   2698   2699     1   0.10969 276646.080000
   2698   2700     1   0.10969 276646.080000
   2701   2702     1   0.10969 276646.080000
   2701   2703     1   0.10969 276646.080000
   2704   2705     1   0.10969 276646.080000
   2704   2706     1   0.10969 276646.080000
   2707   2708     1   0.10969 276646.080000
   2707   2709     1   0.10969 276646.080000
   2714   2715     1   0.10129 337397.760000
   2716   2717     1   0.10969 276646.080000
   2716   2718     1   0.10969 276646.080000
   2719   2720     1   0.10969 276646.080000
   2719   2721     1   0.10969 276646.080000
   2723   2724     1   0.10969 276646.080000
   2723   2725     1   0.10969 276646.080000
   2726   2727     1   0.10969 276646.080000
   2726   2728     1   0.10969 276646.080000
   2729   2730     1   0.10969 276646.080000
   2729   2731     1   0.10969 276646.080000
   2732   2733     1   0.10969 276646.080000
   2732   2734     1   0.10969 276646.080000
   2739   2740     1   0.10129 337397.760000
   2741   2742     1   0.10969 276646.080000
   2741   2743     1   0.10969 276646.080000
   2744   2745     1   0.10969 276646.080000
   2744   2746     1   0.10969 276646.080000
   2748   2749     1   0.10969 276646.080000
   2748   2750     1   0.10969 276646.080000
   2751   2752     1   0.10969 276646.080000
   2751   2753     1   0.10969 276646.080000
   2754   2755     1   0.10969 276646.080000
   2754   2756     1   0.10969 276646.080000
   2757   2758     1   0.10969 276646.080000
   2757   2759     1   0.10969 276646.080000
   2764   2765     1   0.10129 337397.760000
   2766   2767     1   0.10969 276646.080000
   2766   2768     1   0.10969 276646.080000
   2769   2770     1   0.10969 276646.080000
   2769   2771     1   0.10969 276646.080000
   2773   2774     1   0.10969 276646.080000
   2773   2775     1   0.10969 276646.080000
   2776   2777     1   0.10969 276646.080000
   2776   2778     1   0.10969 276646.080000
   2779   2780     1   0.10969 276646.080000
   2779   2781     1   0.10969 276646.080000
   2782   2783     1   0.10969 276646.080000
   2782   2784     1   0.10969 276646.080000
   2789   2790     1   0.10129 337397.760000
   2791   2792     1   0.10969 276646.080000
   2791   2793     1   0.10969 276646.080000
   2794   2795     1   0.10969 276646.080000
   2794   2796     1   0.10969 276646.080000
   2798   2799     1   0.10969 276646.080000
   2798   2800     1   0.10969 276646.080000
   2801   2802     1   0.10969 276646.080000
   2801   2803     1   0.10969 276646.080000
   2804   2805     1   0.10969 276646.080000
   2804   2806     1   0.10969 276646.080000
   2807   2808     1   0.10969 276646.080000
   2807   2809     1   0.10969 276646.080000
   2814   2815     1   0.10129 337397.760000
   2816   2817     1   0.10969 276646.080000
   2816   2818     1   0.10969 276646.080000
   2819   2820     1   0.10969 276646.080000
   2819   2821     1   0.10969 276646.080000
   2823   2824     1   0.10969 276646.080000
   2823   2825     1   0.10969 276646.080000
   2826   2827     1   0.10969 276646.080000
   2826   2828     1   0.10969 276646.080000
   2829   2830     1   0.10969 276646.080000
   2829   2831     1   0.10969 276646.080000
   2832   2833     1   0.10969 276646.080000
   2832   2834     1   0.10969 276646.080000
   2839   2840     1   0.10129 337397.760000
   2841   2842     1   0.10969 276646.080000
   2841   2843     1   0.10969 276646.080000
   2844   2845     1   0.10969 276646.080000
   2844   2846     1   0.10969 276646.080000
   2848   2849     1   0.10969 276646.080000
   2848   2850     1   0.10969 276646.080000
   2851   2852     1   0.10969 276646.080000
   2851   2853     1   0.10969 276646.080000
   2854   2855     1   0.10969 276646.080000
   2854   2856     1   0.10969 276646.080000
   2857   2858     1   0.10969 276646.080000
   2857   2859     1   0.10969 276646.080000
   2864   2865     1   0.10129 337397.760000
   2866   2867     1   0.10969 276646.080000
   2866   2868     1   0.10969 276646.080000
   2869   2870     1   0.10969 276646.080000
   2869   2871     1   0.10969 276646.080000
   2873   2874     1   0.10969 276646.080000
   2873   2875     1   0.10969 276646.080000
   2876   2877     1   0.10969 276646.080000
   2876   2878     1   0.10969 276646.080000
   2879   2880     1   0.10969 276646.080000
   2879   2881     1   0.10969 276646.080000
   2882   2883     1   0.10969 276646.080000
   2882   2884     1   0.10969 276646.080000
   2889   2890     1   0.10129 337397.760000
   2891   2892     1   0.10969 276646.080000
   2891   2893     1   0.10969 276646.080000
   2894   2895     1   0.10969 276646.080000
   2894   2896     1   0.10969 276646.080000
   2898   2899     1   0.10969 276646.080000
   2898   2900     1   0.10969 276646.080000
   2901   2902     1   0.10969 276646.080000
   2901   2903     1   0.10969 276646.080000
   2904   2905     1   0.10969 276646.080000
   2904   2906     1   0.10969 276646.080000
   2907   2908     1   0.10969 276646.080000
   2907   2909     1   0.10969 276646.080000
   2914   2915     1   0.10129 337397.760000
   2916   2917     1   0.10969 276646.080000
   2916   2918     1   0.10969 276646.080000
   2919   2920     1   0.10969 276646.080000
   2919   2921     1   0.10969 276646.080000
   2923   2924     1   0.10969 276646.080000
   2923   2925     1   0.10969 276646.080000
   2926   2927     1   0.10969 276646.080000
   2926   2928     1   0.10969 276646.080000
   2929   2930     1   0.10969 276646.080000
   2929   2931     1   0.10969 276646.080000
   2932   2933     1   0.10969 276646.080000
   2932   2934     1   0.10969 276646.080000
   2939   2940     1   0.10129 337397.760000
   2941   2942     1   0.10969 276646.080000
   2941   2943     1   0.10969 276646.080000
   2944   2945     1   0.10969 276646.080000
   2944   2946     1   0.10969 276646.080000
   2948   2949     1   0.10969 276646.080000
   2948   2950     1   0.10969 276646.080000
   2951   2952     1   0.10969 276646.080000
   2951   2953     1   0.10969 276646.080000
   2954   2955     1   0.10969 276646.080000
   2954   2956     1   0.10969 276646.080000
   2957   2958     1   0.10969 276646.080000
   2957   2959     1   0.10969 276646.080000
   2964   2965     1   0.10129 337397.760000
   2966   2967     1   0.10969 276646.080000
   2966   2968     1   0.10969 276646.080000
   2969   2970     1   0.10969 276646.080000
   2969   2971     1   0.10969 276646.080000
   2973   2974     1   0.10969 276646.080000
   2973   2975     1   0.10969 276646.080000
   2976   2977     1   0.10969 276646.080000
   2976   2978     1   0.10969 276646.080000
   2979   2980     1   0.10969 276646.080000
   2979   2981     1   0.10969 276646.080000
   2982   2983     1   0.10969 276646.080000
   2982   2984     1   0.10969 276646.080000
   2989   2990     1   0.10129 337397.760000
   2991   2992     1   0.10969 276646.080000
   2991   2993     1   0.10969 276646.080000
   2994   2995     1   0.10969 276646.080000
   2994   2996     1   0.10969 276646.080000
   2998   2999     1   0.10969 276646.080000
   2998   3000     1   0.10969 276646.080000
   3001   3002     1   0.10969 276646.080000
   3001   3003     1   0.10969 276646.080000
   3004   3005     1   0.10969 276646.080000
   3004   3006     1   0.10969 276646.080000
   3007   3008     1   0.10969 276646.080000
   3007   3009     1   0.10969 276646.080000
   3014   3015     1   0.10129 337397.760000
   3016   3017     1   0.10969 276646.080000
   3016   3018     1   0.10969 276646.080000
   3019   3020     1   0.10969 276646.080000
   3019   3021     1   0.10969 276646.080000
   3023   3024     1   0.10969 276646.080000
   3023   3025     1   0.10969 276646.080000
   3026   3027     1   0.10969 276646.080000
   3026   3028     1   0.10969 276646.080000
   3029   3030     1   0.10969 276646.080000
   3029   3031     1   0.10969 276646.080000
   3032   3033     1   0.10969 276646.080000
   3032   3034     1   0.10969 276646.080000
   3039   3040     1   0.10129 337397.760000
   3041   3042     1   0.10969 276646.080000
   3041   3043     1   0.10969 276646.080000
   3044   3045     1   0.10969 276646.080000
   3044   3046     1   0.10969 276646.080000
   3048   3049     1   0.10969 276646.080000
   3048   3050     1   0.10969 276646.080000
   3051   3052     1   0.10969 276646.080000
   3051   3053     1   0.10969 276646.080000
   3054   3055     1   0.10969 276646.080000
   3054   3056     1   0.10969 276646.080000
   3057   3058     1   0.10969 276646.080000
   3057   3059     1   0.10969 276646.080000
   3064   3065     1   0.10129 337397.760000
   3066   3067     1   0.10969 276646.080000
   3066   3068     1   0.10969 276646.080000
   3069   3070     1   0.10969 276646.080000
   3069   3071     1   0.10969 276646.080000
   3073   3074     1   0.10969 276646.080000
   3073   3075     1   0.10969 276646.080000
   3076   3077     1   0.10969 276646.080000
   3076   3078     1   0.10969 276646.080000
   3079   3080     1   0.10969 276646.080000
   3079   3081     1   0.10969 276646.080000
   3082   3083     1   0.10969 276646.080000
   3082   3084     1   0.10969 276646.080000
   3089   3090     1   0.10129 337397.760000
   3091   3092     1   0.10969 276646.080000
   3091   3093     1   0.10969 276646.080000
   3094   3095     1   0.10969 276646.080000
   3094   3096     1   0.10969 276646.080000
   3098   3099     1   0.10969 276646.080000
   3098   3100     1   0.10969 276646.080000
   3101   3102     1   0.10969 276646.080000
   3101   3103     1   0.10969 276646.080000
   3104   3105     1   0.10969 276646.080000
   3104   3106     1   0.10969 276646.080000
   3107   3108     1   0.10969 276646.080000
   3107   3109     1   0.10969 276646.080000
   3114   3115     1   0.10129 337397.760000
   3116   3117     1   0.10969 276646.080000
   3116   3118     1   0.10969 276646.080000
   3119   3120     1   0.10969 276646.080000
   3119   3121     1   0.10969 276646.080000
   3123   3124     1   0.10969 276646.080000
   3123   3125     1   0.10969 276646.080000
   3126   3127     1   0.10969 276646.080000
   3126   3128     1   0.10969 276646.080000
   3129   3130     1   0.10969 276646.080000
   3129   3131     1   0.10969 276646.080000
   3132   3133     1   0.10969 276646.080000
   3132   3134     1   0.10969 276646.080000
   3139   3140     1   0.10129 337397.760000
   3141   3142     1   0.10129 337397.760000
   3143   3144     1   0.10969 276646.080000
   3143   3146     1   0.10969 276646.080000
   3145   3147     1   0.10969 276646.080000
   3145   3148     1   0.10969 276646.080000
   3150   3159     1   0.10969 276646.080000
   3150   3160     1   0.10969 276646.080000
   3151   3152     1   0.10969 276646.080000
   3151   3154     1   0.10969 276646.080000
   3153   3155     1   0.10969 276646.080000
   3153   3156     1   0.10969 276646.080000
   3161   3162     1   0.10969 276646.080000
   3161   3163     1   0.10969 276646.080000
   3166   3168     1   0.10969 276646.080000
   3167   3186     1   0.10969 276646.080000
   3169   3173     1   0.10969 276646.080000
   3170   3172     1   0.10969 276646.080000
   3171   3174     1   0.10961 277566.560000
   3175   3185     1   0.09730 310787.520000
   3176   3178     1   0.09730 310787.520000
   3177   3180     1   0.10969 276646.080000
   3177   3181     1   0.10969 276646.080000
   3179   3189     1   0.10190 328360.320000
   3182   3183     1   0.09730 310787.520000
   3187   3188     1   0.09730 310787.520000
   3190   3192     1   0.10969 276646.080000
   3191   3210     1   0.10969 276646.080000
   3193   3197     1   0.10969 276646.080000
   3194   3196     1   0.10969 276646.080000
   3195   3198     1   0.10961 277566.560000
   3199   3209     1   0.09730 310787.520000
   3200   3202     1   0.09730 310787.520000
   3201   3204     1   0.10969 276646.080000
   3201   3205     1   0.10969 276646.080000
   3203   3213     1   0.10190 328360.320000
   3206   3207     1   0.09730 310787.520000
   3211   3212     1   0.09730 310787.520000
   3214   3215     1   0.10129 337397.760000
   3216   3217     1   0.10969 276646.080000
   3216   3219     1   0.10969 276646.080000
   3218   3220     1   0.10969 276646.080000
   3218   3221     1   0.10969 276646.080000
   3223   3232     1   0.10969 276646.080000
   3223   3233     1   0.10969 276646.080000
   3224   3225     1   0.10969 276646.080000
   3224   3227     1   0.10969 276646.080000
   3226   3228     1   0.10969 276646.080000
   3226   3229     1   0.10969 276646.080000
   3234   3235     1   0.10969 276646.080000
   3234   3236     1   0.10969 276646.080000
   3239   3241     1   0.10969 276646.080000
   3240   3259     1   0.10969 276646.080000
   3242   3246     1   0.10969 276646.080000
   3243   3245     1   0.10969 276646.080000
   3244   3247     1   0.10961 277566.560000
   3248   3258     1   0.09730 310787.520000
   3249   3251     1   0.09730 310787.520000
   3250   3253     1   0.10969 276646.080000
   3250   3254     1   0.10969 276646.080000
   3252   3262     1   0.10190 328360.320000
   3255   3256     1   0.09730 310787.520000
   3260   3261     1   0.09730 310787.520000
   3263   3265     1   0.10969 276646.080000
   3264   3283     1   0.10969 276646.080000
   3266   3270     1   0.10969 276646.080000
   3267   3269     1   0.10969 276646.080000
   3268   3271     1   0.10961 277566.560000
   3272   3282     1   0.09730 310787.520000
   3273   3275     1   0.09730 310787.520000
   3274   3277     1   0.10969 276646.080000
   3274   3278     1   0.10969 276646.080000
   3276   3286     1   0.10190 328360.320000
   3279   3280     1   0.09730 310787.520000
   3284   3285     1   0.09730 310787.520000
   3287   3288     1   0.10129 337397.760000
   3289   3290     1   0.10969 276646.080000
   3289   3292     1   0.10969 276646.080000
   3291   3293     1   0.10969 276646.080000
   3291   3294     1   0.10969 276646.080000
   3296   3305     1   0.10969 276646.080000
   3296   3306     1   0.10969 276646.080000
   3297   3298     1   0.10969 276646.080000
   3297   3300     1   0.10969 276646.080000
   3299   3301     1   0.10969 276646.080000
   3299   3302     1   0.10969 276646.080000
   3307   3308     1   0.10969 276646.080000
   3307   3309     1   0.10969 276646.080000
   3312   3314     1   0.10969 276646.080000
   3313   3332     1   0.10969 276646.080000
   3315   3319     1   0.10969 276646.080000
   3316   3318     1   0.10969 276646.080000
   3317   3320     1   0.10961 277566.560000
   3321   3331     1   0.09730 310787.520000
   3322   3324     1   0.09730 310787.520000
   3323   3326     1   0.10969 276646.080000
   3323   3327     1   0.10969 276646.080000
   3325   3335     1   0.10190 328360.320000
   3328   3329     1   0.09730 310787.520000
   3333   3334     1   0.09730 310787.520000
   3336   3338     1   0.10969 276646.080000
   3337   3356     1   0.10969 276646.080000
   3339   3343     1   0.10969 276646.080000
   3340   3342     1   0.10969 276646.080000
   3341   3344     1   0.10961 277566.560000
   3345   3355     1   0.09730 310787.520000
   3346   3348     1   0.09730 310787.520000
   3347   3350     1   0.10969 276646.080000
   3347   3351     1   0.10969 276646.080000
   3349   3359     1   0.10190 328360.320000
   3352   3353     1   0.09730 310787.520000
   3357   3358     1   0.09730 310787.520000
   3360   3361     1   0.10129 337397.760000
   3362   3363     1   0.10969 276646.080000
   3362   3365     1   0.10969 276646.080000
   3364   3366     1   0.10969 276646.080000
   3364   3367     1   0.10969 276646.080000
   3369   3378     1   0.10969 276646.080000
   3369   3379     1   0.10969 276646.080000
   3370   3371     1   0.10969 276646.080000
   3370   3373     1   0.10969 276646.080000
   3372   3374     1   0.10969 276646.080000
   3372   3375     1   0.10969 276646.080000
   3380   3381     1   0.10969 276646.080000
   3380   3382     1   0.10969 276646.080000
   3385   3387     1   0.10969 276646.080000
   3386   3405     1   0.10969 276646.080000
   3388   3392     1   0.10969 276646.080000
   3389   3391     1   0.10969 276646.080000
   3390   3393     1   0.10961 277566.560000
   3394   3404     1   0.09730 310787.520000
   3395   3397     1   0.09730 310787.520000
   3396   3399     1   0.10969 276646.080000
   3396   3400     1   0.10969 276646.080000
   3398   3408     1   0.10190 328360.320000
   3401   3402     1   0.09730 310787.520000
   3406   3407     1   0.09730 310787.520000
   3409   3411     1   0.10969 276646.080000
   3410   3429     1   0.10969 276646.080000
   3412   3416     1   0.10969 276646.080000
   3413   3415     1   0.10969 276646.080000
   3414   3417     1   0.10961 277566.560000
   3418   3428     1   0.09730 310787.520000
   3419   3421     1   0.09730 310787.520000
   3420   3423     1   0.10969 276646.080000
   3420   3424     1   0.10969 276646.080000
   3422   3432     1   0.10190 328360.320000
   3425   3426     1   0.09730 310787.520000
   3430   3431     1   0.09730 310787.520000
   3433   3434     1   0.10129 337397.760000
   3435   3436     1   0.10969 276646.080000
   3435   3438     1   0.10969 276646.080000
   3437   3439     1   0.10969 276646.080000
   3437   3440     1   0.10969 276646.080000
   3442   3451     1   0.10969 276646.080000
   3442   3452     1   0.10969 276646.080000
   3443   3444     1   0.10969 276646.080000
   3443   3446     1   0.10969 276646.080000
   3445   3447     1   0.10969 276646.080000
   3445   3448     1   0.10969 276646.080000
   3453   3454     1   0.10969 276646.080000
   3453   3455     1   0.10969 276646.080000
   3458   3460     1   0.10969 276646.080000
   3459   3478     1   0.10969 276646.080000
   3461   3465     1   0.10969 276646.080000
   3462   3464     1   0.10969 276646.080000
   3463   3466     1   0.10961 277566.560000
   3467   3477     1   0.09730 310787.520000
   3468   3470     1   0.09730 310787.520000
   3469   3472     1   0.10969 276646.080000
   3469   3473     1   0.10969 276646.080000
   3471   3481     1   0.10190 328360.320000
   3474   3475     1   0.09730 310787.520000
   3479   3480     1   0.09730 310787.520000
   3482   3484     1   0.10969 276646.080000
   3483   3502     1   0.10969 276646.080000
   3485   3489     1   0.10969 276646.080000
   3486   3488     1   0.10969 276646.080000
   3487   3490     1   0.10961 277566.560000
   3491   3501     1   0.09730 310787.520000
   3492   3494     1   0.09730 310787.520000
   3493   3496     1   0.10969 276646.080000
   3493   3497     1   0.10969 276646.080000
   3495   3505     1   0.10190 328360.320000
   3498   3499     1   0.09730 310787.520000
   3503   3504     1   0.09730 310787.520000
   3506   3507     1   0.10129 337397.760000
   3508   3509     1   0.10969 276646.080000
   3508   3511     1   0.10969 276646.080000
   3510   3512     1   0.10969 276646.080000
   3510   3513     1   0.10969 276646.080000
   3515   3524     1   0.10969 276646.080000
   3515   3525     1   0.10969 276646.080000
   3516   3517     1   0.10969 276646.080000
   3516   3519     1   0.10969 276646.080000
   3518   3520     1   0.10969 276646.080000
   3518   3521     1   0.10969 276646.080000
   3526   3527     1   0.10969 276646.080000
   3526   3528     1   0.10969 276646.080000
   3531   3533     1   0.10969 276646.080000
   3532   3551     1   0.10969 276646.080000
   3534   3538     1   0.10969 276646.080000
   3535   3537     1   0.10969 276646.080000
   3536   3539     1   0.10961 277566.560000
   3540   3550     1   0.09730 310787.520000
   3541   3543     1   0.09730 310787.520000
   3542   3545     1   0.10969 276646.080000
   3542   3546     1   0.10969 276646.080000
   3544   3554     1   0.10190 328360.320000
   3547   3548     1   0.09730 310787.520000
   3552   3553     1   0.09730 310787.520000
   3555   3557     1   0.10969 276646.080000
   3556   3575     1   0.10969 276646.080000
   3558   3562     1   0.10969 276646.080000
   3559   3561     1   0.10969 276646.080000
   3560   3563     1   0.10961 277566.560000
   3564   3574     1   0.09730 310787.520000
   3565   3567     1   0.09730 310787.520000
   3566   3569     1   0.10969 276646.080000
   3566   3570     1   0.10969 276646.080000
   3568   3578     1   0.10190 328360.320000
   3571   3572     1   0.09730 310787.520000
   3576   3577     1   0.09730 310787.520000
   3579   3580     1   0.10129 337397.760000
   3581   3582     1   0.10969 276646.080000
   3581   3584     1   0.10969 276646.080000
   3583   3585     1   0.10969 276646.080000
   3583   3586     1   0.10969 276646.080000
   3588   3597     1   0.10969 276646.080000
   3588   3598     1   0.10969 276646.080000
   3589   3590     1   0.10969 276646.080000
   3589   3592     1   0.10969 276646.080000
   3591   3593     1   0.10969 276646.080000
   3591   3594     1   0.10969 276646.080000
   3599   3600     1   0.10969 276646.080000
   3599   3601     1   0.10969 276646.080000
   3604   3606     1   0.10969 276646.080000
   3605   3624     1   0.10969 276646.080000
   3607   3611     1   0.10969 276646.080000
   3608   3610     1   0.10969 276646.080000
   3609   3612     1   0.10961 277566.560000
   3613   3623     1   0.09730 310787.520000
   3614   3616     1   0.09730 310787.520000
   3615   3618     1   0.10969 276646.080000
   3615   3619     1   0.10969 276646.080000
   3617   3627     1   0.10190 328360.320000
   3620   3621     1   0.09730 310787.520000
   3625   3626     1   0.09730 310787.520000
   3628   3630     1   0.10969 276646.080000
   3629   3648     1   0.10969 276646.080000
   3631   3635     1   0.10969 276646.080000
   3632   3634     1   0.10969 276646.080000
   3633   3636     1   0.10961 277566.560000
   3637   3647     1   0.09730 310787.520000
   3638   3640     1   0.09730 310787.520000
   3639   3642     1   0.10969 276646.080000
   3639   3643     1   0.10969 276646.080000
   3641   3651     1   0.10190 328360.320000
   3644   3645     1   0.09730 310787.520000
   3649   3650     1   0.09730 310787.520000
   3652   3653     1   0.10129 337397.760000
   3654   3655     1   0.10969 276646.080000
   3654   3657     1   0.10969 276646.080000
   3656   3658     1   0.10969 276646.080000
   3656   3659     1   0.10969 276646.080000
   3661   3670     1   0.10969 276646.080000
   3661   3671     1   0.10969 276646.080000
   3662   3663     1   0.10969 276646.080000
   3662   3665     1   0.10969 276646.080000
   3664   3666     1   0.10969 276646.080000
   3664   3667     1   0.10969 276646.080000
   3672   3673     1   0.10969 276646.080000
   3672   3674     1   0.10969 276646.080000
   3677   3679     1   0.10969 276646.080000
   3678   3697     1   0.10969 276646.080000
   3680   3684     1   0.10969 276646.080000
   3681   3683     1   0.10969 276646.080000
   3682   3685     1   0.10961 277566.560000
   3686   3696     1   0.09730 310787.520000
   3687   3689     1   0.09730 310787.520000
   3688   3691     1   0.10969 276646.080000
   3688   3692     1   0.10969 276646.080000
   3690   3700     1   0.10190 328360.320000
   3693   3694     1   0.09730 310787.520000
   3698   3699     1   0.09730 310787.520000
   3701   3703     1   0.10969 276646.080000
   3702   3721     1   0.10969 276646.080000
   3704   3708     1   0.10969 276646.080000
   3705   3707     1   0.10969 276646.080000
   3706   3709     1   0.10961 277566.560000
   3710   3720     1   0.09730 310787.520000
   3711   3713     1   0.09730 310787.520000
   3712   3715     1   0.10969 276646.080000
   3712   3716     1   0.10969 276646.080000
   3714   3724     1   0.10190 328360.320000
   3717   3718     1   0.09730 310787.520000
   3722   3723     1   0.09730 310787.520000
   3725   3726     1   0.10129 337397.760000
   3727   3728     1   0.10969 276646.080000
   3727   3730     1   0.10969 276646.080000
   3729   3731     1   0.10969 276646.080000
   3729   3732     1   0.10969 276646.080000
   3734   3743     1   0.10969 276646.080000
   3734   3744     1   0.10969 276646.080000
   3735   3736     1   0.10969 276646.080000
   3735   3738     1   0.10969 276646.080000
   3737   3739     1   0.10969 276646.080000
   3737   3740     1   0.10969 276646.080000
   3745   3746     1   0.10969 276646.080000
   3745   3747     1   0.10969 276646.080000
   3750   3752     1   0.10969 276646.080000
   3751   3770     1   0.10969 276646.080000
   3753   3757     1   0.10969 276646.080000
   3754   3756     1   0.10969 276646.080000
   3755   3758     1   0.10961 277566.560000
   3759   3769     1   0.09730 310787.520000
   3760   3762     1   0.09730 310787.520000
   3761   3764     1   0.10969 276646.080000
   3761   3765     1   0.10969 276646.080000
   3763   3773     1   0.10190 328360.320000
   3766   3767     1   0.09730 310787.520000
   3771   3772     1   0.09730 310787.520000
   3774   3776     1   0.10969 276646.080000
   3775   3794     1   0.10969 276646.080000
   3777   3781     1   0.10969 276646.080000
   3778   3780     1   0.10969 276646.080000
   3779   3782     1   0.10961 277566.560000
   3783   3793     1   0.09730 310787.520000
   3784   3786     1   0.09730 310787.520000
   3785   3788     1   0.10969 276646.080000
   3785   3789     1   0.10969 276646.080000
   3787   3797     1   0.10190 328360.320000
   3790   3791     1   0.09730 310787.520000
   3795   3796     1   0.09730 310787.520000
   3798   3799     1   0.10129 337397.760000
   3800   3801     1   0.10969 276646.080000
   3800   3803     1   0.10969 276646.080000
   3802   3804     1   0.10969 276646.080000
   3802   3805     1   0.10969 276646.080000
   3807   3816     1   0.10969 276646.080000
   3807   3817     1   0.10969 276646.080000
   3808   3809     1   0.10969 276646.080000
   3808   3811     1   0.10969 276646.080000
   3810   3812     1   0.10969 276646.080000
   3810   3813     1   0.10969 276646.080000
   3818   3819     1   0.10969 276646.080000
   3818   3820     1   0.10969 276646.080000
   3823   3825     1   0.10969 276646.080000
   3824   3843     1   0.10969 276646.080000
   3826   3830     1   0.10969 276646.080000
   3827   3829     1   0.10969 276646.080000
   3828   3831     1   0.10961 277566.560000
   3832   3842     1   0.09730 310787.520000
   3833   3835     1   0.09730 310787.520000
   3834   3837     1   0.10969 276646.080000
   3834   3838     1   0.10969 276646.080000
   3836   3846     1   0.10190 328360.320000
   3839   3840     1   0.09730 310787.520000
   3844   3845     1   0.09730 310787.520000
   3847   3849     1   0.10969 276646.080000
   3848   3867     1   0.10969 276646.080000
   3850   3854     1   0.10969 276646.080000
   3851   3853     1   0.10969 276646.080000
   3852   3855     1   0.10961 277566.560000
   3856   3866     1   0.09730 310787.520000
   3857   3859     1   0.09730 310787.520000
   3858   3861     1   0.10969 276646.080000
   3858   3862     1   0.10969 276646.080000
   3860   3870     1   0.10190 328360.320000
   3863   3864     1   0.09730 310787.520000
   3868   3869     1   0.09730 310787.520000
   3871   3872     1   0.10129 337397.760000
   3873   3874     1   0.10969 276646.080000
   3873   3876     1   0.10969 276646.080000
   3875   3877     1   0.10969 276646.080000
   3875   3878     1   0.10969 276646.080000
   3880   3889     1   0.10969 276646.080000
   3880   3890     1   0.10969 276646.080000
   3881   3882     1   0.10969 276646.080000
   3881   3884     1   0.10969 276646.080000
   3883   3885     1   0.10969 276646.080000
   3883   3886     1   0.10969 276646.080000
   3891   3892     1   0.10969 276646.080000
   3891   3893     1   0.10969 276646.080000
   3896   3898     1   0.10969 276646.080000
   3897   3916     1   0.10969 276646.080000
   3899   3903     1   0.10969 276646.080000
   3900   3902     1   0.10969 276646.080000
   3901   3904     1   0.10961 277566.560000
   3905   3915     1   0.09730 310787.520000
   3906   3908     1   0.09730 310787.520000
   3907   3910     1   0.10969 276646.080000
   3907   3911     1   0.10969 276646.080000
   3909   3919     1   0.10190 328360.320000
   3912   3913     1   0.09730 310787.520000
   3917   3918     1   0.09730 310787.520000
   3920   3922     1   0.10969 276646.080000
   3921   3940     1   0.10969 276646.080000
   3923   3927     1   0.10969 276646.080000
   3924   3926     1   0.10969 276646.080000
   3925   3928     1   0.10961 277566.560000
   3929   3939     1   0.09730 310787.520000
   3930   3932     1   0.09730 310787.520000
   3931   3934     1   0.10969 276646.080000
   3931   3935     1   0.10969 276646.080000
   3933   3943     1   0.10190 328360.320000
   3936   3937     1   0.09730 310787.520000
   3941   3942     1   0.09730 310787.520000
   3944   3945     1   0.10129 337397.760000
   3946   3947     1   0.10969 276646.080000
   3946   3949     1   0.10969 276646.080000
   3948   3950     1   0.10969 276646.080000
   3948   3951     1   0.10969 276646.080000
   3953   3962     1   0.10969 276646.080000
   3953   3963     1   0.10969 276646.080000
   3954   3955     1   0.10969 276646.080000
   3954   3957     1   0.10969 276646.080000
   3956   3958     1   0.10969 276646.080000
   3956   3959     1   0.10969 276646.080000
   3964   3965     1   0.10969 276646.080000
   3964   3966     1   0.10969 276646.080000
   3969   3971     1   0.10969 276646.080000
   3970   3989     1   0.10969 276646.080000
   3972   3976     1   0.10969 276646.080000
   3973   3975     1   0.10969 276646.080000
   3974   3977     1   0.10961 277566.560000
   3978   3988     1   0.09730 310787.520000
   3979   3981     1   0.09730 310787.520000
   3980   3983     1   0.10969 276646.080000
   3980   3984     1   0.10969 276646.080000
   3982   3992     1   0.10190 328360.320000
   3985   3986     1   0.09730 310787.520000
   3990   3991     1   0.09730 310787.520000
   3993   3995     1   0.10969 276646.080000
   3994   4013     1   0.10969 276646.080000
   3996   4000     1   0.10969 276646.080000
   3997   3999     1   0.10969 276646.080000
   3998   4001     1   0.10961 277566.560000
   4002   4012     1   0.09730 310787.520000
   4003   4005     1   0.09730 310787.520000
   4004   4007     1   0.10969 276646.080000
   4004   4008     1   0.10969 276646.080000
   4006   4016     1   0.10190 328360.320000
   4009   4010     1   0.09730 310787.520000
   4014   4015     1   0.09730 310787.520000
   4017   4018     1   0.10129 337397.760000
   4019   4020     1   0.10969 276646.080000
   4019   4022     1   0.10969 276646.080000
   4021   4023     1   0.10969 276646.080000
   4021   4024     1   0.10969 276646.080000
   4026   4035     1   0.10969 276646.080000
   4026   4036     1   0.10969 276646.080000
   4027   4028     1   0.10969 276646.080000
   4027   4030     1   0.10969 276646.080000
   4029   4031     1   0.10969 276646.080000
   4029   4032     1   0.10969 276646.080000
   4037   4038     1   0.10969 276646.080000
   4037   4039     1   0.10969 276646.080000
   4042   4044     1   0.10969 276646.080000
   4043   4062     1   0.10969 276646.080000
   4045   4049     1   0.10969 276646.080000
   4046   4048     1   0.10969 276646.080000
   4047   4050     1   0.10961 277566.560000
   4051   4061     1   0.09730 310787.520000
   4052   4054     1   0.09730 310787.520000
   4053   4056     1   0.10969 276646.080000
   4053   4057     1   0.10969 276646.080000
   4055   4065     1   0.10190 328360.320000
   4058   4059     1   0.09730 310787.520000
   4063   4064     1   0.09730 310787.520000
   4066   4068     1   0.10969 276646.080000
   4067   4086     1   0.10969 276646.080000
   4069   4073     1   0.10969 276646.080000
   4070   4072     1   0.10969 276646.080000
   4071   4074     1   0.10961 277566.560000
   4075   4085     1   0.09730 310787.520000
   4076   4078     1   0.09730 310787.520000
   4077   4080     1   0.10969 276646.080000
   4077   4081     1   0.10969 276646.080000
   4079   4089     1   0.10190 328360.320000
   4082   4083     1   0.09730 310787.520000
   4087   4088     1   0.09730 310787.520000
   4090   4091     1   0.10129 337397.760000
   4092   4093     1   0.10969 276646.080000
   4092   4095     1   0.10969 276646.080000
   4094   4096     1   0.10969 276646.080000
   4094   4097     1   0.10969 276646.080000
   4099   4108     1   0.10969 276646.080000
   4099   4109     1   0.10969 276646.080000
   4100   4101     1   0.10969 276646.080000
   4100   4103     1   0.10969 276646.080000
   4102   4104     1   0.10969 276646.080000
   4102   4105     1   0.10969 276646.080000
   4110   4111     1   0.10969 276646.080000
   4110   4112     1   0.10969 276646.080000
   4115   4117     1   0.10969 276646.080000
   4116   4135     1   0.10969 276646.080000
   4118   4122     1   0.10969 276646.080000
   4119   4121     1   0.10969 276646.080000
   4120   4123     1   0.10961 277566.560000
   4124   4134     1   0.09730 310787.520000
   4125   4127     1   0.09730 310787.520000
   4126   4129     1   0.10969 276646.080000
   4126   4130     1   0.10969 276646.080000
   4128   4138     1   0.10190 328360.320000
   4131   4132     1   0.09730 310787.520000
   4136   4137     1   0.09730 310787.520000
   4139   4141     1   0.10969 276646.080000
   4140   4159     1   0.10969 276646.080000
   4142   4146     1   0.10969 276646.080000
   4143   4145     1   0.10969 276646.080000
   4144   4147     1   0.10961 277566.560000
   4148   4158     1   0.09730 310787.520000
   4149   4151     1   0.09730 310787.520000
   4150   4153     1   0.10969 276646.080000
   4150   4154     1   0.10969 276646.080000
   4152   4162     1   0.10190 328360.320000
   4155   4156     1   0.09730 310787.520000
   4160   4161     1   0.09730 310787.520000
   4163   4164     1   0.10129 337397.760000
   4165   4166     1   0.10969 276646.080000
   4165   4168     1   0.10969 276646.080000
   4167   4169     1   0.10969 276646.080000
   4167   4170     1   0.10969 276646.080000
   4172   4181     1   0.10969 276646.080000
   4172   4182     1   0.10969 276646.080000
   4173   4174     1   0.10969 276646.080000
   4173   4176     1   0.10969 276646.080000
   4175   4177     1   0.10969 276646.080000
   4175   4178     1   0.10969 276646.080000
   4183   4184     1   0.10969 276646.080000
   4183   4185     1   0.10969 276646.080000
   4188   4190     1   0.10969 276646.080000
   4189   4208     1   0.10969 276646.080000
   4191   4195     1   0.10969 276646.080000
   4192   4194     1   0.10969 276646.080000
   4193   4196     1   0.10961 277566.560000
   4197   4207     1   0.09730 310787.520000
   4198   4200     1   0.09730 310787.520000
   4199   4202     1   0.10969 276646.080000
   4199   4203     1   0.10969 276646.080000
   4201   4211     1   0.10190 328360.320000
   4204   4205     1   0.09730 310787.520000
   4209   4210     1   0.09730 310787.520000
   4212   4214     1   0.10969 276646.080000
   4213   4232     1   0.10969 276646.080000
   4215   4219     1   0.10969 276646.080000
   4216   4218     1   0.10969 276646.080000
   4217   4220     1   0.10961 277566.560000
   4221   4231     1   0.09730 310787.520000
   4222   4224     1   0.09730 310787.520000
   4223   4226     1   0.10969 276646.080000
   4223   4227     1   0.10969 276646.080000
   4225   4235     1   0.10190 328360.320000
   4228   4229     1   0.09730 310787.520000
   4233   4234     1   0.09730 310787.520000
   4236   4237     1   0.10129 337397.760000
   4238   4239     1   0.10969 276646.080000
   4238   4241     1   0.10969 276646.080000
   4240   4242     1   0.10969 276646.080000
   4240   4243     1   0.10969 276646.080000
   4245   4254     1   0.10969 276646.080000
   4245   4255     1   0.10969 276646.080000
   4246   4247     1   0.10969 276646.080000
   4246   4249     1   0.10969 276646.080000
   4248   4250     1   0.10969 276646.080000
   4248   4251     1   0.10969 276646.080000
   4256   4257     1   0.10969 276646.080000
   4256   4258     1   0.10969 276646.080000
   4261   4263     1   0.10969 276646.080000
   4262   4281     1   0.10969 276646.080000
   4264   4268     1   0.10969 276646.080000
   4265   4267     1   0.10969 276646.080000
   4266   4269     1   0.10961 277566.560000
   4270   4280     1   0.09730 310787.520000
   4271   4273     1   0.09730 310787.520000
   4272   4275     1   0.10969 276646.080000
   4272   4276     1   0.10969 276646.080000
   4274   4284     1   0.10190 328360.320000
   4277   4278     1   0.09730 310787.520000
   4282   4283     1   0.09730 310787.520000
   4285   4287     1   0.10969 276646.080000
   4286   4305     1   0.10969 276646.080000
   4288   4292     1   0.10969 276646.080000
   4289   4291     1   0.10969 276646.080000
   4290   4293     1   0.10961 277566.560000
   4294   4304     1   0.09730 310787.520000
   4295   4297     1   0.09730 310787.520000
   4296   4299     1   0.10969 276646.080000
   4296   4300     1   0.10969 276646.080000
   4298   4308     1   0.10190 328360.320000
   4301   4302     1   0.09730 310787.520000
   4306   4307     1   0.09730 310787.520000
   4309   4310     1   0.10129 337397.760000
   4311   4312     1   0.10969 276646.080000
   4311   4314     1   0.10969 276646.080000
   4313   4315     1   0.10969 276646.080000
   4313   4316     1   0.10969 276646.080000
   4318   4327     1   0.10969 276646.080000
   4318   4328     1   0.10969 276646.080000
   4319   4320     1   0.10969 276646.080000
   4319   4322     1   0.10969 276646.080000
   4321   4323     1   0.10969 276646.080000
   4321   4324     1   0.10969 276646.080000
   4329   4330     1   0.10969 276646.080000
   4329   4331     1   0.10969 276646.080000
   4334   4336     1   0.10969 276646.080000
   4335   4354     1   0.10969 276646.080000
   4337   4341     1   0.10969 276646.080000
   4338   4340     1   0.10969 276646.080000
   4339   4342     1   0.10961 277566.560000
   4343   4353     1   0.09730 310787.520000
   4344   4346     1   0.09730 310787.520000
   4345   4348     1   0.10969 276646.080000
   4345   4349     1   0.10969 276646.080000
   4347   4357     1   0.10190 328360.320000
   4350   4351     1   0.09730 310787.520000
   4355   4356     1   0.09730 310787.520000
   4358   4360     1   0.10969 276646.080000
   4359   4378     1   0.10969 276646.080000
   4361   4365     1   0.10969 276646.080000
   4362   4364     1   0.10969 276646.080000
   4363   4366     1   0.10961 277566.560000
   4367   4377     1   0.09730 310787.520000
   4368   4370     1   0.09730 310787.520000
   4369   4372     1   0.10969 276646.080000
   4369   4373     1   0.10969 276646.080000
   4371   4381     1   0.10190 328360.320000
   4374   4375     1   0.09730 310787.520000
   4379   4380     1   0.09730 310787.520000
   4382   4383     1   0.10129 337397.760000
   4384   4385     1   0.10969 276646.080000
   4384   4387     1   0.10969 276646.080000
   4386   4388     1   0.10969 276646.080000
   4386   4389     1   0.10969 276646.080000
   4391   4400     1   0.10969 276646.080000
   4391   4401     1   0.10969 276646.080000
   4392   4393     1   0.10969 276646.080000
   4392   4395     1   0.10969 276646.080000
   4394   4396     1   0.10969 276646.080000
   4394   4397     1   0.10969 276646.080000
   4402   4403     1   0.10969 276646.080000
   4402   4404     1   0.10969 276646.080000
   4407   4409     1   0.10969 276646.080000
   4408   4427     1   0.10969 276646.080000
   4410   4414     1   0.10969 276646.080000
   4411   4413     1   0.10969 276646.080000
   4412   4415     1   0.10961 277566.560000
   4416   4426     1   0.09730 310787.520000
   4417   4419     1   0.09730 310787.520000
   4418   4421     1   0.10969 276646.080000
   4418   4422     1   0.10969 276646.080000
   4420   4430     1   0.10190 328360.320000
   4423   4424     1   0.09730 310787.520000
   4428   4429     1   0.09730 310787.520000
   4431   4433     1   0.10969 276646.080000
   4432   4451     1   0.10969 276646.080000
   4434   4438     1   0.10969 276646.080000
   4435   4437     1   0.10969 276646.080000
   4436   4439     1   0.10961 277566.560000
   4440   4450     1   0.09730 310787.520000
   4441   4443     1   0.09730 310787.520000
   4442   4445     1   0.10969 276646.080000
   4442   4446     1   0.10969 276646.080000
   4444   4454     1   0.10190 328360.320000
   4447   4448     1   0.09730 310787.520000
   4452   4453     1   0.09730 310787.520000
   4455   4456     1   0.10129 337397.760000
   4457   4458     1   0.10969 276646.080000
   4457   4460     1   0.10969 276646.080000
   4459   4461     1   0.10969 276646.080000
   4459   4462     1   0.10969 276646.080000
   4464   4473     1   0.10969 276646.080000
   4464   4474     1   0.10969 276646.080000
   4465   4466     1   0.10969 276646.080000
   4465   4468     1   0.10969 276646.080000
   4467   4469     1   0.10969 276646.080000
   4467   4470     1   0.10969 276646.080000
   4475   4476     1   0.10969 276646.080000
   4475   4477     1   0.10969 276646.080000
   4480   4482     1   0.10969 276646.080000
   4481   4500     1   0.10969 276646.080000
   4483   4487     1   0.10969 276646.080000
   4484   4486     1   0.10969 276646.080000
   4485   4488     1   0.10961 277566.560000
   4489   4499     1   0.09730 310787.520000
   4490   4492     1   0.09730 310787.520000
   4491   4494     1   0.10969 276646.080000
   4491   4495     1   0.10969 276646.080000
   4493   4503     1   0.10190 328360.320000
   4496   4497     1   0.09730 310787.520000
   4501   4502     1   0.09730 310787.520000
   4504   4506     1   0.10969 276646.080000
   4505   4524     1   0.10969 276646.080000
   4507   4511     1   0.10969 276646.080000
   4508   4510     1   0.10969 276646.080000
   4509   4512     1   0.10961 277566.560000
   4513   4523     1   0.09730 310787.520000
   4514   4516     1   0.09730 310787.520000
   4515   4518     1   0.10969 276646.080000
   4515   4519     1   0.10969 276646.080000
   4517   4527     1   0.10190 328360.320000
   4520   4521     1   0.09730 310787.520000
   4525   4526     1   0.09730 310787.520000
   4528   4529     1   0.10129 337397.760000
   4530   4531     1   0.10969 276646.080000
   4530   4533     1   0.10969 276646.080000
   4532   4534     1   0.10969 276646.080000
   4532   4535     1   0.10969 276646.080000
   4537   4546     1   0.10969 276646.080000
   4537   4547     1   0.10969 276646.080000
   4538   4539     1   0.10969 276646.080000
   4538   4541     1   0.10969 276646.080000
   4540   4542     1   0.10969 276646.080000
   4540   4543     1   0.10969 276646.080000
   4548   4549     1   0.10969 276646.080000
   4548   4550     1   0.10969 276646.080000
   4553   4555     1   0.10969 276646.080000
   4554   4573     1   0.10969 276646.080000
   4556   4560     1   0.10969 276646.080000
   4557   4559     1   0.10969 276646.080000
   4558   4561     1   0.10961 277566.560000
   4562   4572     1   0.09730 310787.520000
   4563   4565     1   0.09730 310787.520000
   4564   4567     1   0.10969 276646.080000
   4564   4568     1   0.10969 276646.080000
   4566   4576     1   0.10190 328360.320000
   4569   4570     1   0.09730 310787.520000
   4574   4575     1   0.09730 310787.520000
   4577   4579     1   0.10969 276646.080000
   4578   4597     1   0.10969 276646.080000
   4580   4584     1   0.10969 276646.080000
   4581   4583     1   0.10969 276646.080000
   4582   4585     1   0.10961 277566.560000
   4586   4596     1   0.09730 310787.520000
   4587   4589     1   0.09730 310787.520000
   4588   4591     1   0.10969 276646.080000
   4588   4592     1   0.10969 276646.080000
   4590   4600     1   0.10190 328360.320000
   4593   4594     1   0.09730 310787.520000
   4598   4599     1   0.09730 310787.520000
   4601   4602     1   0.10129 337397.760000
   4603   4604     1   0.10969 276646.080000
   4603   4606     1   0.10969 276646.080000
   4605   4607     1   0.10969 276646.080000
   4605   4608     1   0.10969 276646.080000
   4610   4619     1   0.10969 276646.080000
   4610   4620     1   0.10969 276646.080000
   4611   4612     1   0.10969 276646.080000
   4611   4614     1   0.10969 276646.080000
   4613   4615     1   0.10969 276646.080000
   4613   4616     1   0.10969 276646.080000
   4621   4622     1   0.10969 276646.080000
   4621   4623     1   0.10969 276646.080000
   4626   4628     1   0.10969 276646.080000
   4627   4646     1   0.10969 276646.080000
   4629   4633     1   0.10969 276646.080000
   4630   4632     1   0.10969 276646.080000
   4631   4634     1   0.10961 277566.560000
   4635   4645     1   0.09730 310787.520000
   4636   4638     1   0.09730 310787.520000
   4637   4640     1   0.10969 276646.080000
   4637   4641     1   0.10969 276646.080000
   4639   4649     1   0.10190 328360.320000
   4642   4643     1   0.09730 310787.520000
   4647   4648     1   0.09730 310787.520000
   4650   4652     1   0.10969 276646.080000
   4651   4670     1   0.10969 276646.080000
   4653   4657     1   0.10969 276646.080000
   4654   4656     1   0.10969 276646.080000
   4655   4658     1   0.10961 277566.560000
   4659   4669     1   0.09730 310787.520000
   4660   4662     1   0.09730 310787.520000
   4661   4664     1   0.10969 276646.080000
   4661   4665     1   0.10969 276646.080000
   4663   4673     1   0.10190 328360.320000
   4666   4667     1   0.09730 310787.520000
   4671   4672     1   0.09730 310787.520000
   4674   4675     1   0.10129 337397.760000
   4676   4677     1   0.10969 276646.080000
   4676   4679     1   0.10969 276646.080000
   4678   4680     1   0.10969 276646.080000
   4678   4681     1   0.10969 276646.080000
   4683   4692     1   0.10969 276646.080000
   4683   4693     1   0.10969 276646.080000
   4684   4685     1   0.10969 276646.080000
   4684   4687     1   0.10969 276646.080000
   4686   4688     1   0.10969 276646.080000
   4686   4689     1   0.10969 276646.080000
   4694   4695     1   0.10969 276646.080000
   4694   4696     1   0.10969 276646.080000
   4699   4701     1   0.10969 276646.080000
   4700   4719     1   0.10969 276646.080000
   4702   4706     1   0.10969 276646.080000
   4703   4705     1   0.10969 276646.080000
   4704   4707     1   0.10961 277566.560000
   4708   4718     1   0.09730 310787.520000
   4709   4711     1   0.09730 310787.520000
   4710   4713     1   0.10969 276646.080000
   4710   4714     1   0.10969 276646.080000
   4712   4722     1   0.10190 328360.320000
   4715   4716     1   0.09730 310787.520000
   4720   4721     1   0.09730 310787.520000
   4723   4725     1   0.10969 276646.080000
   4724   4743     1   0.10969 276646.080000
   4726   4730     1   0.10969 276646.080000
   4727   4729     1   0.10969 276646.080000
   4728   4731     1   0.10961 277566.560000
   4732   4742     1   0.09730 310787.520000
   4733   4735     1   0.09730 310787.520000
   4734   4737     1   0.10969 276646.080000
   4734   4738     1   0.10969 276646.080000
   4736   4746     1   0.10190 328360.320000
   4739   4740     1   0.09730 310787.520000
   4744   4745     1   0.09730 310787.520000
   4747   4748     1   0.10129 337397.760000
   4749   4750     1   0.10969 276646.080000
   4749   4752     1   0.10969 276646.080000
   4751   4753     1   0.10969 276646.080000
   4751   4754     1   0.10969 276646.080000
   4756   4765     1   0.10969 276646.080000
   4756   4766     1   0.10969 276646.080000
   4757   4758     1   0.10969 276646.080000
   4757   4760     1   0.10969 276646.080000
   4759   4761     1   0.10969 276646.080000
   4759   4762     1   0.10969 276646.080000
   4767   4768     1   0.10969 276646.080000
   4767   4769     1   0.10969 276646.080000
   4772   4774     1   0.10969 276646.080000
   4773   4792     1   0.10969 276646.080000
   4775   4779     1   0.10969 276646.080000
   4776   4778     1   0.10969 276646.080000
   4777   4780     1   0.10961 277566.560000
   4781   4791     1   0.09730 310787.520000
   4782   4784     1   0.09730 310787.520000
   4783   4786     1   0.10969 276646.080000
   4783   4787     1   0.10969 276646.080000
   4785   4795     1   0.10190 328360.320000
   4788   4789     1   0.09730 310787.520000
   4793   4794     1   0.09730 310787.520000
   4796   4798     1   0.10969 276646.080000
   4797   4816     1   0.10969 276646.080000
   4799   4803     1   0.10969 276646.080000
   4800   4802     1   0.10969 276646.080000
   4801   4804     1   0.10961 277566.560000
   4805   4815     1   0.09730 310787.520000
   4806   4808     1   0.09730 310787.520000
   4807   4810     1   0.10969 276646.080000
   4807   4811     1   0.10969 276646.080000
   4809   4819     1   0.10190 328360.320000
   4812   4813     1   0.09730 310787.520000
   4817   4818     1   0.09730 310787.520000
   4820   4821     1   0.10129 337397.760000
   4822   4823     1   0.10969 276646.080000
   4822   4825     1   0.10969 276646.080000
   4824   4826     1   0.10969 276646.080000
   4824   4827     1   0.10969 276646.080000
   4829   4838     1   0.10969 276646.080000
   4829   4839     1   0.10969 276646.080000
   4830   4831     1   0.10969 276646.080000
   4830   4833     1   0.10969 276646.080000
   4832   4834     1   0.10969 276646.080000
   4832   4835     1   0.10969 276646.080000
   4840   4841     1   0.10969 276646.080000
   4840   4842     1   0.10969 276646.080000
   4845   4847     1   0.10969 276646.080000
   4846   4865     1   0.10969 276646.080000
   4848   4852     1   0.10969 276646.080000
   4849   4851     1   0.10969 276646.080000
   4850   4853     1   0.10961 277566.560000
   4854   4864     1   0.09730 310787.520000
   4855   4857     1   0.09730 310787.520000
   4856   4859     1   0.10969 276646.080000
   4856   4860     1   0.10969 276646.080000
   4858   4868     1   0.10190 328360.320000
   4861   4862     1   0.09730 310787.520000
   4866   4867     1   0.09730 310787.520000
   4869   4871     1   0.10969 276646.080000
   4870   4889     1   0.10969 276646.080000
   4872   4876     1   0.10969 276646.080000
   4873   4875     1   0.10969 276646.080000
   4874   4877     1   0.10961 277566.560000
   4878   4888     1   0.09730 310787.520000
   4879   4881     1   0.09730 310787.520000
   4880   4883     1   0.10969 276646.080000
   4880   4884     1   0.10969 276646.080000
   4882   4892     1   0.10190 328360.320000
   4885   4886     1   0.09730 310787.520000
   4890   4891     1   0.09730 310787.520000
   4893   4894     1   0.10129 337397.760000
   4895   4896     1   0.10969 276646.080000
   4895   4898     1   0.10969 276646.080000
   4897   4899     1   0.10969 276646.080000
   4897   4900     1   0.10969 276646.080000
   4902   4911     1   0.10969 276646.080000
   4902   4912     1   0.10969 276646.080000
   4903   4904     1   0.10969 276646.080000
   4903   4906     1   0.10969 276646.080000
   4905   4907     1   0.10969 276646.080000
   4905   4908     1   0.10969 276646.080000
   4913   4914     1   0.10969 276646.080000
   4913   4915     1   0.10969 276646.080000
   4918   4920     1   0.10969 276646.080000
   4919   4938     1   0.10969 276646.080000
   4921   4925     1   0.10969 276646.080000
   4922   4924     1   0.10969 276646.080000
   4923   4926     1   0.10961 277566.560000
   4927   4937     1   0.09730 310787.520000
   4928   4930     1   0.09730 310787.520000
   4929   4932     1   0.10969 276646.080000
   4929   4933     1   0.10969 276646.080000
   4931   4941     1   0.10190 328360.320000
   4934   4935     1   0.09730 310787.520000
   4939   4940     1   0.09730 310787.520000
   4942   4944     1   0.10969 276646.080000
   4943   4962     1   0.10969 276646.080000
   4945   4949     1   0.10969 276646.080000
   4946   4948     1   0.10969 276646.080000
   4947   4950     1   0.10961 277566.560000
   4951   4961     1   0.09730 310787.520000
   4952   4954     1   0.09730 310787.520000
   4953   4956     1   0.10969 276646.080000
   4953   4957     1   0.10969 276646.080000
   4955   4965     1   0.10190 328360.320000
   4958   4959     1   0.09730 310787.520000
   4963   4964     1   0.09730 310787.520000
   4966   4967     1   0.10129 337397.760000
   4968   4969     1   0.10969 276646.080000
   4968   4971     1   0.10969 276646.080000
   4970   4972     1   0.10969 276646.080000
   4970   4973     1   0.10969 276646.080000
   4975   4984     1   0.10969 276646.080000
   4975   4985     1   0.10969 276646.080000
   4976   4977     1   0.10969 276646.080000
   4976   4979     1   0.10969 276646.080000
   4978   4980     1   0.10969 276646.080000
   4978   4981     1   0.10969 276646.080000
   4986   4987     1   0.10969 276646.080000
   4986   4988     1   0.10969 276646.080000
   4991   4993     1   0.10969 276646.080000
   4992   5011     1   0.10969 276646.080000
   4994   4998     1   0.10969 276646.080000
   4995   4997     1   0.10969 276646.080000
   4996   4999     1   0.10961 277566.560000
   5000   5010     1   0.09730 310787.520000
   5001   5003     1   0.09730 310787.520000
   5002   5005     1   0.10969 276646.080000
   5002   5006     1   0.10969 276646.080000
   5004   5014     1   0.10190 328360.320000
   5007   5008     1   0.09730 310787.520000
   5012   5013     1   0.09730 310787.520000
   5015   5017     1   0.10969 276646.080000
   5016   5035     1   0.10969 276646.080000
   5018   5022     1   0.10969 276646.080000
   5019   5021     1   0.10969 276646.080000
   5020   5023     1   0.10961 277566.560000
   5024   5034     1   0.09730 310787.520000
   5025   5027     1   0.09730 310787.520000
   5026   5029     1   0.10969 276646.080000
   5026   5030     1   0.10969 276646.080000
   5028   5038     1   0.10190 328360.320000
   5031   5032     1   0.09730 310787.520000
   5036   5037     1   0.09730 310787.520000
   5039   5040     1   0.10129 337397.760000
   5041   5042     1   0.10969 276646.080000
   5041   5044     1   0.10969 276646.080000
   5043   5045     1   0.10969 276646.080000
   5043   5046     1   0.10969 276646.080000
   5048   5057     1   0.10969 276646.080000
   5048   5058     1   0.10969 276646.080000
   5049   5050     1   0.10969 276646.080000
   5049   5052     1   0.10969 276646.080000
   5051   5053     1   0.10969 276646.080000
   5051   5054     1   0.10969 276646.080000
   5059   5060     1   0.10969 276646.080000
   5059   5061     1   0.10969 276646.080000
   5064   5066     1   0.10969 276646.080000
   5065   5084     1   0.10969 276646.080000
   5067   5071     1   0.10969 276646.080000
   5068   5070     1   0.10969 276646.080000
   5069   5072     1   0.10961 277566.560000
   5073   5083     1   0.09730 310787.520000
   5074   5076     1   0.09730 310787.520000
   5075   5078     1   0.10969 276646.080000
   5075   5079     1   0.10969 276646.080000
   5077   5087     1   0.10190 328360.320000
   5080   5081     1   0.09730 310787.520000
   5085   5086     1   0.09730 310787.520000
   5088   5090     1   0.10969 276646.080000
   5089   5108     1   0.10969 276646.080000
   5091   5095     1   0.10969 276646.080000
   5092   5094     1   0.10969 276646.080000
   5093   5096     1   0.10961 277566.560000
   5097   5107     1   0.09730 310787.520000
   5098   5100     1   0.09730 310787.520000
   5099   5102     1   0.10969 276646.080000
   5099   5103     1   0.10969 276646.080000
   5101   5111     1   0.10190 328360.320000
   5104   5105     1   0.09730 310787.520000
   5109   5110     1   0.09730 310787.520000
   5112   5113     1   0.10129 337397.760000
   5114   5115     1   0.10969 276646.080000
   5114   5117     1   0.10969 276646.080000
   5116   5118     1   0.10969 276646.080000
   5116   5119     1   0.10969 276646.080000
   5121   5130     1   0.10969 276646.080000
   5121   5131     1   0.10969 276646.080000
   5122   5123     1   0.10969 276646.080000
   5122   5125     1   0.10969 276646.080000
   5124   5126     1   0.10969 276646.080000
   5124   5127     1   0.10969 276646.080000
   5132   5133     1   0.10969 276646.080000
   5132   5134     1   0.10969 276646.080000
   5137   5139     1   0.10969 276646.080000
   5138   5157     1   0.10969 276646.080000
   5140   5144     1   0.10969 276646.080000
   5141   5143     1   0.10969 276646.080000
   5142   5145     1   0.10961 277566.560000
   5146   5156     1   0.09730 310787.520000
   5147   5149     1   0.09730 310787.520000
   5148   5151     1   0.10969 276646.080000
   5148   5152     1   0.10969 276646.080000
   5150   5160     1   0.10190 328360.320000
   5153   5154     1   0.09730 310787.520000
   5158   5159     1   0.09730 310787.520000
   5161   5163     1   0.10969 276646.080000
   5162   5181     1   0.10969 276646.080000
   5164   5168     1   0.10969 276646.080000
   5165   5167     1   0.10969 276646.080000
   5166   5169     1   0.10961 277566.560000
   5170   5180     1   0.09730 310787.520000
   5171   5173     1   0.09730 310787.520000
   5172   5175     1   0.10969 276646.080000
   5172   5176     1   0.10969 276646.080000
   5174   5184     1   0.10190 328360.320000
   5177   5178     1   0.09730 310787.520000
   5182   5183     1   0.09730 310787.520000
   5185   5186     1   0.10129 337397.760000
   5187   5188     1   0.10969 276646.080000
   5187   5190     1   0.10969 276646.080000
   5189   5191     1   0.10969 276646.080000
   5189   5192     1   0.10969 276646.080000
   5194   5203     1   0.10969 276646.080000
   5194   5204     1   0.10969 276646.080000
   5195   5196     1   0.10969 276646.080000
   5195   5198     1   0.10969 276646.080000
   5197   5199     1   0.10969 276646.080000
   5197   5200     1   0.10969 276646.080000
   5205   5206     1   0.10969 276646.080000
   5205   5207     1   0.10969 276646.080000
   5210   5212     1   0.10969 276646.080000
   5211   5230     1   0.10969 276646.080000
   5213   5217     1   0.10969 276646.080000
   5214   5216     1   0.10969 276646.080000
   5215   5218     1   0.10961 277566.560000
   5219   5229     1   0.09730 310787.520000
   5220   5222     1   0.09730 310787.520000
   5221   5224     1   0.10969 276646.080000
   5221   5225     1   0.10969 276646.080000
   5223   5233     1   0.10190 328360.320000
   5226   5227     1   0.09730 310787.520000
   5231   5232     1   0.09730 310787.520000
   5234   5236     1   0.10969 276646.080000
   5235   5254     1   0.10969 276646.080000
   5237   5241     1   0.10969 276646.080000
   5238   5240     1   0.10969 276646.080000
   5239   5242     1   0.10961 277566.560000
   5243   5253     1   0.09730 310787.520000
   5244   5246     1   0.09730 310787.520000
   5245   5248     1   0.10969 276646.080000
   5245   5249     1   0.10969 276646.080000
   5247   5257     1   0.10190 328360.320000
   5250   5251     1   0.09730 310787.520000
   5255   5256     1   0.09730 310787.520000
   5258   5259     1   0.10129 337397.760000
   5260   5261     1   0.10969 276646.080000
   5260   5263     1   0.10969 276646.080000
   5262   5264     1   0.10969 276646.080000
   5262   5265     1   0.10969 276646.080000
   5267   5276     1   0.10969 276646.080000
   5267   5277     1   0.10969 276646.080000
   5268   5269     1   0.10969 276646.080000
   5268   5271     1   0.10969 276646.080000
   5270   5272     1   0.10969 276646.080000
   5270   5273     1   0.10969 276646.080000
   5278   5279     1   0.10969 276646.080000
   5278   5280     1   0.10969 276646.080000
   5283   5285     1   0.10969 276646.080000
   5284   5303     1   0.10969 276646.080000
   5286   5290     1   0.10969 276646.080000
   5287   5289     1   0.10969 276646.080000
   5288   5291     1   0.10961 277566.560000
   5292   5302     1   0.09730 310787.520000
   5293   5295     1   0.09730 310787.520000
   5294   5297     1   0.10969 276646.080000
   5294   5298     1   0.10969 276646.080000
   5296   5306     1   0.10190 328360.320000
   5299   5300     1   0.09730 310787.520000
   5304   5305     1   0.09730 310787.520000
   5307   5309     1   0.10969 276646.080000
   5308   5327     1   0.10969 276646.080000
   5310   5314     1   0.10969 276646.080000
   5311   5313     1   0.10969 276646.080000
   5312   5315     1   0.10961 277566.560000
   5316   5326     1   0.09730 310787.520000
   5317   5319     1   0.09730 310787.520000
   5318   5321     1   0.10969 276646.080000
   5318   5322     1   0.10969 276646.080000
   5320   5330     1   0.10190 328360.320000
   5323   5324     1   0.09730 310787.520000
   5328   5329     1   0.09730 310787.520000
   5331   5332     1   0.10129 337397.760000
   5333   5334     1   0.10969 276646.080000
   5333   5336     1   0.10969 276646.080000
   5335   5337     1   0.10969 276646.080000
   5335   5338     1   0.10969 276646.080000
   5340   5349     1   0.10969 276646.080000
   5340   5350     1   0.10969 276646.080000
   5341   5342     1   0.10969 276646.080000
   5341   5344     1   0.10969 276646.080000
   5343   5345     1   0.10969 276646.080000
   5343   5346     1   0.10969 276646.080000
   5351   5352     1   0.10969 276646.080000
   5351   5353     1   0.10969 276646.080000
   5356   5358     1   0.10969 276646.080000
   5357   5376     1   0.10969 276646.080000
   5359   5363     1   0.10969 276646.080000
   5360   5362     1   0.10969 276646.080000
   5361   5364     1   0.10961 277566.560000
   5365   5375     1   0.09730 310787.520000
   5366   5368     1   0.09730 310787.520000
   5367   5370     1   0.10969 276646.080000
   5367   5371     1   0.10969 276646.080000
   5369   5379     1   0.10190 328360.320000
   5372   5373     1   0.09730 310787.520000
   5377   5378     1   0.09730 310787.520000
   5380   5382     1   0.10969 276646.080000
   5381   5400     1   0.10969 276646.080000
   5383   5387     1   0.10969 276646.080000
   5384   5386     1   0.10969 276646.080000
   5385   5388     1   0.10961 277566.560000
   5389   5399     1   0.09730 310787.520000
   5390   5392     1   0.09730 310787.520000
   5391   5394     1   0.10969 276646.080000
   5391   5395     1   0.10969 276646.080000
   5393   5403     1   0.10190 328360.320000
   5396   5397     1   0.09730 310787.520000
   5401   5402     1   0.09730 310787.520000
   5404   5405     1   0.10129 337397.760000
   5406   5407     1   0.10969 276646.080000
   5406   5409     1   0.10969 276646.080000
   5408   5410     1   0.10969 276646.080000
   5408   5411     1   0.10969 276646.080000
   5413   5422     1   0.10969 276646.080000
   5413   5423     1   0.10969 276646.080000
   5414   5415     1   0.10969 276646.080000
   5414   5417     1   0.10969 276646.080000
   5416   5418     1   0.10969 276646.080000
   5416   5419     1   0.10969 276646.080000
   5424   5425     1   0.10969 276646.080000
   5424   5426     1   0.10969 276646.080000
   5429   5431     1   0.10969 276646.080000
   5430   5449     1   0.10969 276646.080000
   5432   5436     1   0.10969 276646.080000
   5433   5435     1   0.10969 276646.080000
   5434   5437     1   0.10961 277566.560000
   5438   5448     1   0.09730 310787.520000
   5439   5441     1   0.09730 310787.520000
   5440   5443     1   0.10969 276646.080000
   5440   5444     1   0.10969 276646.080000
   5442   5452     1   0.10190 328360.320000
   5445   5446     1   0.09730 310787.520000
   5450   5451     1   0.09730 310787.520000
   5453   5455     1   0.10969 276646.080000
   5454   5473     1   0.10969 276646.080000
   5456   5460     1   0.10969 276646.080000
   5457   5459     1   0.10969 276646.080000
   5458   5461     1   0.10961 277566.560000
   5462   5472     1   0.09730 310787.520000
   5463   5465     1   0.09730 310787.520000
   5464   5467     1   0.10969 276646.080000
   5464   5468     1   0.10969 276646.080000
   5466   5476     1   0.10190 328360.320000
   5469   5470     1   0.09730 310787.520000
   5474   5475     1   0.09730 310787.520000
   5477   5478     1   0.10129 337397.760000
   5479   5480     1   0.10969 276646.080000
   5479   5482     1   0.10969 276646.080000
   5481   5483     1   0.10969 276646.080000
   5481   5484     1   0.10969 276646.080000
   5486   5495     1   0.10969 276646.080000
   5486   5496     1   0.10969 276646.080000
   5487   5488     1   0.10969 276646.080000
   5487   5490     1   0.10969 276646.080000
   5489   5491     1   0.10969 276646.080000
   5489   5492     1   0.10969 276646.080000
   5497   5498     1   0.10969 276646.080000
   5497   5499     1   0.10969 276646.080000
   5502   5504     1   0.10969 276646.080000
   5503   5522     1   0.10969 276646.080000
   5505   5509     1   0.10969 276646.080000
   5506   5508     1   0.10969 276646.080000
   5507   5510     1   0.10961 277566.560000
   5511   5521     1   0.09730 310787.520000
   5512   5514     1   0.09730 310787.520000
   5513   5516     1   0.10969 276646.080000
   5513   5517     1   0.10969 276646.080000
   5515   5525     1   0.10190 328360.320000
   5518   5519     1   0.09730 310787.520000
   5523   5524     1   0.09730 310787.520000
   5526   5528     1   0.10969 276646.080000
   5527   5546     1   0.10969 276646.080000
   5529   5533     1   0.10969 276646.080000
   5530   5532     1   0.10969 276646.080000
   5531   5534     1   0.10961 277566.560000
   5535   5545     1   0.09730 310787.520000
   5536   5538     1   0.09730 310787.520000
   5537   5540     1   0.10969 276646.080000
   5537   5541     1   0.10969 276646.080000
   5539   5549     1   0.10190 328360.320000
   5542   5543     1   0.09730 310787.520000
   5547   5548     1   0.09730 310787.520000
   5550   5551     1   0.10129 337397.760000
   5552   5553     1   0.10969 276646.080000
   5552   5555     1   0.10969 276646.080000
   5554   5556     1   0.10969 276646.080000
   5554   5557     1   0.10969 276646.080000
   5559   5568     1   0.10969 276646.080000
   5559   5569     1   0.10969 276646.080000
   5560   5561     1   0.10969 276646.080000
   5560   5563     1   0.10969 276646.080000
   5562   5564     1   0.10969 276646.080000
   5562   5565     1   0.10969 276646.080000
   5570   5571     1   0.10969 276646.080000
   5570   5572     1   0.10969 276646.080000
   5575   5577     1   0.10969 276646.080000
   5576   5595     1   0.10969 276646.080000
   5578   5582     1   0.10969 276646.080000
   5579   5581     1   0.10969 276646.080000
   5580   5583     1   0.10961 277566.560000
   5584   5594     1   0.09730 310787.520000
   5585   5587     1   0.09730 310787.520000
   5586   5589     1   0.10969 276646.080000
   5586   5590     1   0.10969 276646.080000
   5588   5598     1   0.10190 328360.320000
   5591   5592     1   0.09730 310787.520000
   5596   5597     1   0.09730 310787.520000
   5599   5601     1   0.10969 276646.080000
   5600   5619     1   0.10969 276646.080000
   5602   5606     1   0.10969 276646.080000
   5603   5605     1   0.10969 276646.080000
   5604   5607     1   0.10961 277566.560000
   5608   5618     1   0.09730 310787.520000
   5609   5611     1   0.09730 310787.520000
   5610   5613     1   0.10969 276646.080000
   5610   5614     1   0.10969 276646.080000
   5612   5622     1   0.10190 328360.320000
   5615   5616     1   0.09730 310787.520000
   5620   5621     1   0.09730 310787.520000
   5623   5624     1   0.10129 337397.760000
   5625   5626     1   0.10969 276646.080000
   5625   5628     1   0.10969 276646.080000
   5627   5629     1   0.10969 276646.080000
   5627   5630     1   0.10969 276646.080000
   5632   5641     1   0.10969 276646.080000
   5632   5642     1   0.10969 276646.080000
   5633   5634     1   0.10969 276646.080000
   5633   5636     1   0.10969 276646.080000
   5635   5637     1   0.10969 276646.080000
   5635   5638     1   0.10969 276646.080000
   5643   5644     1   0.10969 276646.080000
   5643   5645     1   0.10969 276646.080000
   5648   5650     1   0.10969 276646.080000
   5649   5668     1   0.10969 276646.080000
   5651   5655     1   0.10969 276646.080000
   5652   5654     1   0.10969 276646.080000
   5653   5656     1   0.10961 277566.560000
   5657   5667     1   0.09730 310787.520000
   5658   5660     1   0.09730 310787.520000
   5659   5662     1   0.10969 276646.080000
   5659   5663     1   0.10969 276646.080000
   5661   5671     1   0.10190 328360.320000
   5664   5665     1   0.09730 310787.520000
   5669   5670     1   0.09730 310787.520000
   5672   5674     1   0.10969 276646.080000
   5673   5692     1   0.10969 276646.080000
   5675   5679     1   0.10969 276646.080000
   5676   5678     1   0.10969 276646.080000
   5677   5680     1   0.10961 277566.560000
   5681   5691     1   0.09730 310787.520000
   5682   5684     1   0.09730 310787.520000
   5683   5686     1   0.10969 276646.080000
   5683   5687     1   0.10969 276646.080000
   5685   5695     1   0.10190 328360.320000
   5688   5689     1   0.09730 310787.520000
   5693   5694     1   0.09730 310787.520000
   5696   5697     1   0.10129 337397.760000
   5698   5699     1   0.10969 276646.080000
   5698   5701     1   0.10969 276646.080000
   5700   5702     1   0.10969 276646.080000
   5700   5703     1   0.10969 276646.080000
   5705   5714     1   0.10969 276646.080000
   5705   5715     1   0.10969 276646.080000
   5706   5707     1   0.10969 276646.080000
   5706   5709     1   0.10969 276646.080000
   5708   5710     1   0.10969 276646.080000
   5708   5711     1   0.10969 276646.080000
   5716   5717     1   0.10969 276646.080000
   5716   5718     1   0.10969 276646.080000
   5721   5723     1   0.10969 276646.080000
   5722   5741     1   0.10969 276646.080000
   5724   5728     1   0.10969 276646.080000
   5725   5727     1   0.10969 276646.080000
   5726   5729     1   0.10961 277566.560000
   5730   5740     1   0.09730 310787.520000
   5731   5733     1   0.09730 310787.520000
   5732   5735     1   0.10969 276646.080000
   5732   5736     1   0.10969 276646.080000
   5734   5744     1   0.10190 328360.320000
   5737   5738     1   0.09730 310787.520000
   5742   5743     1   0.09730 310787.520000
   5745   5747     1   0.10969 276646.080000
   5746   5765     1   0.10969 276646.080000
   5748   5752     1   0.10969 276646.080000
   5749   5751     1   0.10969 276646.080000
   5750   5753     1   0.10961 277566.560000
   5754   5764     1   0.09730 310787.520000
   5755   5757     1   0.09730 310787.520000
   5756   5759     1   0.10969 276646.080000
   5756   5760     1   0.10969 276646.080000
   5758   5768     1   0.10190 328360.320000
   5761   5762     1   0.09730 310787.520000
   5766   5767     1   0.09730 310787.520000
   5769   5770     1   0.10129 337397.760000
   5771   5772     1   0.10969 276646.080000
   5771   5774     1   0.10969 276646.080000
   5773   5775     1   0.10969 276646.080000
   5773   5776     1   0.10969 276646.080000
   5778   5787     1   0.10969 276646.080000
   5778   5788     1   0.10969 276646.080000
   5779   5780     1   0.10969 276646.080000
   5779   5782     1   0.10969 276646.080000
   5781   5783     1   0.10969 276646.080000
   5781   5784     1   0.10969 276646.080000
   5789   5790     1   0.10969 276646.080000
   5789   5791     1   0.10969 276646.080000
   5794   5796     1   0.10969 276646.080000
   5795   5814     1   0.10969 276646.080000
   5797   5801     1   0.10969 276646.080000
   5798   5800     1   0.10969 276646.080000
   5799   5802     1   0.10961 277566.560000
   5803   5813     1   0.09730 310787.520000
   5804   5806     1   0.09730 310787.520000
   5805   5808     1   0.10969 276646.080000
   5805   5809     1   0.10969 276646.080000
   5807   5817     1   0.10190 328360.320000
   5810   5811     1   0.09730 310787.520000
   5815   5816     1   0.09730 310787.520000
   5818   5820     1   0.10969 276646.080000
   5819   5838     1   0.10969 276646.080000
   5821   5825     1   0.10969 276646.080000
   5822   5824     1   0.10969 276646.080000
   5823   5826     1   0.10961 277566.560000
   5827   5837     1   0.09730 310787.520000
   5828   5830     1   0.09730 310787.520000
   5829   5832     1   0.10969 276646.080000
   5829   5833     1   0.10969 276646.080000
   5831   5841     1   0.10190 328360.320000
   5834   5835     1   0.09730 310787.520000
   5839   5840     1   0.09730 310787.520000
   5842   5843     1   0.10129 337397.760000
   5844   5845     1   0.10969 276646.080000
   5844   5847     1   0.10969 276646.080000
   5846   5848     1   0.10969 276646.080000
   5846   5849     1   0.10969 276646.080000
   5851   5860     1   0.10969 276646.080000
   5851   5861     1   0.10969 276646.080000
   5852   5853     1   0.10969 276646.080000
   5852   5855     1   0.10969 276646.080000
   5854   5856     1   0.10969 276646.080000
   5854   5857     1   0.10969 276646.080000
   5862   5863     1   0.10969 276646.080000
   5862   5864     1   0.10969 276646.080000
   5867   5869     1   0.10969 276646.080000
   5868   5887     1   0.10969 276646.080000
   5870   5874     1   0.10969 276646.080000
   5871   5873     1   0.10969 276646.080000
   5872   5875     1   0.10961 277566.560000
   5876   5886     1   0.09730 310787.520000
   5877   5879     1   0.09730 310787.520000
   5878   5881     1   0.10969 276646.080000
   5878   5882     1   0.10969 276646.080000
   5880   5890     1   0.10190 328360.320000
   5883   5884     1   0.09730 310787.520000
   5888   5889     1   0.09730 310787.520000
   5891   5893     1   0.10969 276646.080000
   5892   5911     1   0.10969 276646.080000
   5894   5898     1   0.10969 276646.080000
   5895   5897     1   0.10969 276646.080000
   5896   5899     1   0.10961 277566.560000
   5900   5910     1   0.09730 310787.520000
   5901   5903     1   0.09730 310787.520000
   5902   5905     1   0.10969 276646.080000
   5902   5906     1   0.10969 276646.080000
   5904   5914     1   0.10190 328360.320000
   5907   5908     1   0.09730 310787.520000
   5912   5913     1   0.09730 310787.520000
   5915   5916     1   0.10129 337397.760000
   5917   5918     1   0.10969 276646.080000
   5917   5920     1   0.10969 276646.080000
   5919   5921     1   0.10969 276646.080000
   5919   5922     1   0.10969 276646.080000
   5924   5933     1   0.10969 276646.080000
   5924   5934     1   0.10969 276646.080000
   5925   5926     1   0.10969 276646.080000
   5925   5928     1   0.10969 276646.080000
   5927   5929     1   0.10969 276646.080000
   5927   5930     1   0.10969 276646.080000
   5935   5936     1   0.10969 276646.080000
   5935   5937     1   0.10969 276646.080000
   5940   5942     1   0.10969 276646.080000
   5941   5960     1   0.10969 276646.080000
   5943   5947     1   0.10969 276646.080000
   5944   5946     1   0.10969 276646.080000
   5945   5948     1   0.10961 277566.560000
   5949   5959     1   0.09730 310787.520000
   5950   5952     1   0.09730 310787.520000
   5951   5954     1   0.10969 276646.080000
   5951   5955     1   0.10969 276646.080000
   5953   5963     1   0.10190 328360.320000
   5956   5957     1   0.09730 310787.520000
   5961   5962     1   0.09730 310787.520000
   5964   5966     1   0.10969 276646.080000
   5965   5984     1   0.10969 276646.080000
   5967   5971     1   0.10969 276646.080000
   5968   5970     1   0.10969 276646.080000
   5969   5972     1   0.10961 277566.560000
   5973   5983     1   0.09730 310787.520000
   5974   5976     1   0.09730 310787.520000
   5975   5978     1   0.10969 276646.080000
   5975   5979     1   0.10969 276646.080000
   5977   5987     1   0.10190 328360.320000
   5980   5981     1   0.09730 310787.520000
   5985   5986     1   0.09730 310787.520000
   5988   5989     1   0.10129 337397.760000
   5990   5991     1   0.10969 276646.080000
   5990   5993     1   0.10969 276646.080000
   5992   5994     1   0.10969 276646.080000
   5992   5995     1   0.10969 276646.080000
   5997   6006     1   0.10969 276646.080000
   5997   6007     1   0.10969 276646.080000
   5998   5999     1   0.10969 276646.080000
   5998   6001     1   0.10969 276646.080000
   6000   6002     1   0.10969 276646.080000
   6000   6003     1   0.10969 276646.080000
   6008   6009     1   0.10969 276646.080000
   6008   6010     1   0.10969 276646.080000
   6013   6015     1   0.10969 276646.080000
   6014   6033     1   0.10969 276646.080000
   6016   6020     1   0.10969 276646.080000
   6017   6019     1   0.10969 276646.080000
   6018   6021     1   0.10961 277566.560000
   6022   6032     1   0.09730 310787.520000
   6023   6025     1   0.09730 310787.520000
   6024   6027     1   0.10969 276646.080000
   6024   6028     1   0.10969 276646.080000
   6026   6036     1   0.10190 328360.320000
   6029   6030     1   0.09730 310787.520000
   6034   6035     1   0.09730 310787.520000
   6037   6039     1   0.10969 276646.080000
   6038   6057     1   0.10969 276646.080000
   6040   6044     1   0.10969 276646.080000
   6041   6043     1   0.10969 276646.080000
   6042   6045     1   0.10961 277566.560000
   6046   6056     1   0.09730 310787.520000
   6047   6049     1   0.09730 310787.520000
   6048   6051     1   0.10969 276646.080000
   6048   6052     1   0.10969 276646.080000
   6050   6060     1   0.10190 328360.320000
   6053   6054     1   0.09730 310787.520000
   6058   6059     1   0.09730 310787.520000
   6061   6062     1   0.10129 337397.760000
   6063   6064     1   0.10969 276646.080000
   6063   6066     1   0.10969 276646.080000
   6065   6067     1   0.10969 276646.080000
   6065   6068     1   0.10969 276646.080000
   6070   6079     1   0.10969 276646.080000
   6070   6080     1   0.10969 276646.080000
   6071   6072     1   0.10969 276646.080000
   6071   6074     1   0.10969 276646.080000
   6073   6075     1   0.10969 276646.080000
   6073   6076     1   0.10969 276646.080000
   6081   6082     1   0.10969 276646.080000
   6081   6083     1   0.10969 276646.080000
   6086   6088     1   0.10969 276646.080000
   6087   6106     1   0.10969 276646.080000
   6089   6093     1   0.10969 276646.080000
   6090   6092     1   0.10969 276646.080000
   6091   6094     1   0.10961 277566.560000
   6095   6105     1   0.09730 310787.520000
   6096   6098     1   0.09730 310787.520000
   6097   6100     1   0.10969 276646.080000
   6097   6101     1   0.10969 276646.080000
   6099   6109     1   0.10190 328360.320000
   6102   6103     1   0.09730 310787.520000
   6107   6108     1   0.09730 310787.520000
   6110   6112     1   0.10969 276646.080000
   6111   6130     1   0.10969 276646.080000
   6113   6117     1   0.10969 276646.080000
   6114   6116     1   0.10969 276646.080000
   6115   6118     1   0.10961 277566.560000
   6119   6129     1   0.09730 310787.520000
   6120   6122     1   0.09730 310787.520000
   6121   6124     1   0.10969 276646.080000
   6121   6125     1   0.10969 276646.080000
   6123   6133     1   0.10190 328360.320000
   6126   6127     1   0.09730 310787.520000
   6131   6132     1   0.09730 310787.520000
   6134   6135     1   0.10129 337397.760000
   6136   6137     1   0.10969 276646.080000
   6136   6139     1   0.10969 276646.080000
   6138   6140     1   0.10969 276646.080000
   6138   6141     1   0.10969 276646.080000
   6143   6152     1   0.10969 276646.080000
   6143   6153     1   0.10969 276646.080000
   6144   6145     1   0.10969 276646.080000
   6144   6147     1   0.10969 276646.080000
   6146   6148     1   0.10969 276646.080000
   6146   6149     1   0.10969 276646.080000
   6154   6155     1   0.10969 276646.080000
   6154   6156     1   0.10969 276646.080000
   6159   6161     1   0.10969 276646.080000
   6160   6179     1   0.10969 276646.080000
   6162   6166     1   0.10969 276646.080000
   6163   6165     1   0.10969 276646.080000
   6164   6167     1   0.10961 277566.560000
   6168   6178     1   0.09730 310787.520000
   6169   6171     1   0.09730 310787.520000
   6170   6173     1   0.10969 276646.080000
   6170   6174     1   0.10969 276646.080000
   6172   6182     1   0.10190 328360.320000
   6175   6176     1   0.09730 310787.520000
   6180   6181     1   0.09730 310787.520000
   6183   6185     1   0.10969 276646.080000
   6184   6203     1   0.10969 276646.080000
   6186   6190     1   0.10969 276646.080000
   6187   6189     1   0.10969 276646.080000
   6188   6191     1   0.10961 277566.560000
   6192   6202     1   0.09730 310787.520000
   6193   6195     1   0.09730 310787.520000
   6194   6197     1   0.10969 276646.080000
   6194   6198     1   0.10969 276646.080000
   6196   6206     1   0.10190 328360.320000
   6199   6200     1   0.09730 310787.520000
   6204   6205     1   0.09730 310787.520000
   6207   6208     1   0.10129 337397.760000
   6209   6210     1   0.10969 276646.080000
   6209   6212     1   0.10969 276646.080000
   6211   6213     1   0.10969 276646.080000
   6211   6214     1   0.10969 276646.080000
   6216   6225     1   0.10969 276646.080000
   6216   6226     1   0.10969 276646.080000
   6217   6218     1   0.10969 276646.080000
   6217   6220     1   0.10969 276646.080000
   6219   6221     1   0.10969 276646.080000
   6219   6222     1   0.10969 276646.080000
   6227   6228     1   0.10969 276646.080000
   6227   6229     1   0.10969 276646.080000
   6232   6234     1   0.10969 276646.080000
   6233   6252     1   0.10969 276646.080000
   6235   6239     1   0.10969 276646.080000
   6236   6238     1   0.10969 276646.080000
   6237   6240     1   0.10961 277566.560000
   6241   6251     1   0.09730 310787.520000
   6242   6244     1   0.09730 310787.520000
   6243   6246     1   0.10969 276646.080000
   6243   6247     1   0.10969 276646.080000
   6245   6255     1   0.10190 328360.320000
   6248   6249     1   0.09730 310787.520000
   6253   6254     1   0.09730 310787.520000
   6256   6258     1   0.10969 276646.080000
   6257   6276     1   0.10969 276646.080000
   6259   6263     1   0.10969 276646.080000
   6260   6262     1   0.10969 276646.080000
   6261   6264     1   0.10961 277566.560000
   6265   6275     1   0.09730 310787.520000
   6266   6268     1   0.09730 310787.520000
   6267   6270     1   0.10969 276646.080000
   6267   6271     1   0.10969 276646.080000
   6269   6279     1   0.10190 328360.320000
   6272   6273     1   0.09730 310787.520000
   6277   6278     1   0.09730 310787.520000
   6280   6281     1   0.10129 337397.760000
   6282   6283     1   0.10969 276646.080000
   6282   6285     1   0.10969 276646.080000
   6284   6286     1   0.10969 276646.080000
   6284   6287     1   0.10969 276646.080000
   6289   6298     1   0.10969 276646.080000
   6289   6299     1   0.10969 276646.080000
   6290   6291     1   0.10969 276646.080000
   6290   6293     1   0.10969 276646.080000
   6292   6294     1   0.10969 276646.080000
   6292   6295     1   0.10969 276646.080000
   6300   6301     1   0.10969 276646.080000
   6300   6302     1   0.10969 276646.080000
   6305   6307     1   0.10969 276646.080000
   6306   6325     1   0.10969 276646.080000
   6308   6312     1   0.10969 276646.080000
   6309   6311     1   0.10969 276646.080000
   6310   6313     1   0.10961 277566.560000
   6314   6324     1   0.09730 310787.520000
   6315   6317     1   0.09730 310787.520000
   6316   6319     1   0.10969 276646.080000
   6316   6320     1   0.10969 276646.080000
   6318   6328     1   0.10190 328360.320000
   6321   6322     1   0.09730 310787.520000
   6326   6327     1   0.09730 310787.520000
   6329   6331     1   0.10969 276646.080000
   6330   6349     1   0.10969 276646.080000
   6332   6336     1   0.10969 276646.080000
   6333   6335     1   0.10969 276646.080000
   6334   6337     1   0.10961 277566.560000
   6338   6348     1   0.09730 310787.520000
   6339   6341     1   0.09730 310787.520000
   6340   6343     1   0.10969 276646.080000
   6340   6344     1   0.10969 276646.080000
   6342   6352     1   0.10190 328360.320000
   6345   6346     1   0.09730 310787.520000
   6350   6351     1   0.09730 310787.520000
   6353   6354     1   0.10129 337397.760000
   6355   6356     1   0.10969 276646.080000
   6355   6358     1   0.10969 276646.080000
   6357   6359     1   0.10969 276646.080000
   6357   6360     1   0.10969 276646.080000
   6362   6371     1   0.10969 276646.080000
   6362   6372     1   0.10969 276646.080000
   6363   6364     1   0.10969 276646.080000
   6363   6366     1   0.10969 276646.080000
   6365   6367     1   0.10969 276646.080000
   6365   6368     1   0.10969 276646.080000
   6373   6374     1   0.10969 276646.080000
   6373   6375     1   0.10969 276646.080000
   6378   6380     1   0.10969 276646.080000
   6379   6398     1   0.10969 276646.080000
   6381   6385     1   0.10969 276646.080000
   6382   6384     1   0.10969 276646.080000
   6383   6386     1   0.10961 277566.560000
   6387   6397     1   0.09730 310787.520000
   6388   6390     1   0.09730 310787.520000
   6389   6392     1   0.10969 276646.080000
   6389   6393     1   0.10969 276646.080000
   6391   6401     1   0.10190 328360.320000
   6394   6395     1   0.09730 310787.520000
   6399   6400     1   0.09730 310787.520000
   6402   6404     1   0.10969 276646.080000
   6403   6422     1   0.10969 276646.080000
   6405   6409     1   0.10969 276646.080000
   6406   6408     1   0.10969 276646.080000
   6407   6410     1   0.10961 277566.560000
   6411   6421     1   0.09730 310787.520000
   6412   6414     1   0.09730 310787.520000
   6413   6416     1   0.10969 276646.080000
   6413   6417     1   0.10969 276646.080000
   6415   6425     1   0.10190 328360.320000
   6418   6419     1   0.09730 310787.520000
   6423   6424     1   0.09730 310787.520000
   6426   6427     1   0.10129 337397.760000
   6428   6429     1   0.10969 276646.080000
   6428   6431     1   0.10969 276646.080000
   6430   6432     1   0.10969 276646.080000
   6430   6433     1   0.10969 276646.080000
   6435   6444     1   0.10969 276646.080000
   6435   6445     1   0.10969 276646.080000
   6436   6437     1   0.10969 276646.080000
   6436   6439     1   0.10969 276646.080000
   6438   6440     1   0.10969 276646.080000
   6438   6441     1   0.10969 276646.080000
   6446   6447     1   0.10969 276646.080000
   6446   6448     1   0.10969 276646.080000
   6451   6453     1   0.10969 276646.080000
   6452   6471     1   0.10969 276646.080000
   6454   6458     1   0.10969 276646.080000
   6455   6457     1   0.10969 276646.080000
   6456   6459     1   0.10961 277566.560000
   6460   6470     1   0.09730 310787.520000
   6461   6463     1   0.09730 310787.520000
   6462   6465     1   0.10969 276646.080000
   6462   6466     1   0.10969 276646.080000
   6464   6474     1   0.10190 328360.320000
   6467   6468     1   0.09730 310787.520000
   6472   6473     1   0.09730 310787.520000
   6475   6477     1   0.10969 276646.080000
   6476   6495     1   0.10969 276646.080000
   6478   6482     1   0.10969 276646.080000
   6479   6481     1   0.10969 276646.080000
   6480   6483     1   0.10961 277566.560000
   6484   6494     1   0.09730 310787.520000
   6485   6487     1   0.09730 310787.520000
   6486   6489     1   0.10969 276646.080000
   6486   6490     1   0.10969 276646.080000
   6488   6498     1   0.10190 328360.320000
   6491   6492     1   0.09730 310787.520000
   6496   6497     1   0.09730 310787.520000
   6499   6500     1   0.10129 337397.760000
   6501   6502     1   0.10969 276646.080000
   6501   6504     1   0.10969 276646.080000
   6503   6505     1   0.10969 276646.080000
   6503   6506     1   0.10969 276646.080000
   6508   6517     1   0.10969 276646.080000
   6508   6518     1   0.10969 276646.080000
   6509   6510     1   0.10969 276646.080000
   6509   6512     1   0.10969 276646.080000
   6511   6513     1   0.10969 276646.080000
   6511   6514     1   0.10969 276646.080000
   6519   6520     1   0.10969 276646.080000
   6519   6521     1   0.10969 276646.080000
   6524   6526     1   0.10969 276646.080000
   6525   6544     1   0.10969 276646.080000
   6527   6531     1   0.10969 276646.080000
   6528   6530     1   0.10969 276646.080000
   6529   6532     1   0.10961 277566.560000
   6533   6543     1   0.09730 310787.520000
   6534   6536     1   0.09730 310787.520000
   6535   6538     1   0.10969 276646.080000
   6535   6539     1   0.10969 276646.080000
   6537   6547     1   0.10190 328360.320000
   6540   6541     1   0.09730 310787.520000
   6545   6546     1   0.09730 310787.520000
   6548   6550     1   0.10969 276646.080000
   6549   6568     1   0.10969 276646.080000
   6551   6555     1   0.10969 276646.080000
   6552   6554     1   0.10969 276646.080000
   6553   6556     1   0.10961 277566.560000
   6557   6567     1   0.09730 310787.520000
   6558   6560     1   0.09730 310787.520000
   6559   6562     1   0.10969 276646.080000
   6559   6563     1   0.10969 276646.080000
   6561   6571     1   0.10190 328360.320000
   6564   6565     1   0.09730 310787.520000
   6569   6570     1   0.09730 310787.520000
   6572   6573     1   0.10129 337397.760000
   6574   6575     1   0.10969 276646.080000
   6574   6577     1   0.10969 276646.080000
   6576   6578     1   0.10969 276646.080000
   6576   6579     1   0.10969 276646.080000
   6581   6590     1   0.10969 276646.080000
   6581   6591     1   0.10969 276646.080000
   6582   6583     1   0.10969 276646.080000
   6582   6585     1   0.10969 276646.080000
   6584   6586     1   0.10969 276646.080000
   6584   6587     1   0.10969 276646.080000
   6592   6593     1   0.10969 276646.080000
   6592   6594     1   0.10969 276646.080000
   6597   6599     1   0.10969 276646.080000
   6598   6617     1   0.10969 276646.080000
   6600   6604     1   0.10969 276646.080000
   6601   6603     1   0.10969 276646.080000
   6602   6605     1   0.10961 277566.560000
   6606   6616     1   0.09730 310787.520000
   6607   6609     1   0.09730 310787.520000
   6608   6611     1   0.10969 276646.080000
   6608   6612     1   0.10969 276646.080000
   6610   6620     1   0.10190 328360.320000
   6613   6614     1   0.09730 310787.520000
   6618   6619     1   0.09730 310787.520000
   6621   6623     1   0.10969 276646.080000
   6622   6641     1   0.10969 276646.080000
   6624   6628     1   0.10969 276646.080000
   6625   6627     1   0.10969 276646.080000
   6626   6629     1   0.10961 277566.560000
   6630   6640     1   0.09730 310787.520000
   6631   6633     1   0.09730 310787.520000
   6632   6635     1   0.10969 276646.080000
   6632   6636     1   0.10969 276646.080000
   6634   6644     1   0.10190 328360.320000
   6637   6638     1   0.09730 310787.520000
   6642   6643     1   0.09730 310787.520000
   6645   6646     1   0.10129 337397.760000
   6647   6648     1   0.10969 276646.080000
   6647   6650     1   0.10969 276646.080000
   6649   6651     1   0.10969 276646.080000
   6649   6652     1   0.10969 276646.080000
   6654   6663     1   0.10969 276646.080000
   6654   6664     1   0.10969 276646.080000
   6655   6656     1   0.10969 276646.080000
   6655   6658     1   0.10969 276646.080000
   6657   6659     1   0.10969 276646.080000
   6657   6660     1   0.10969 276646.080000
   6665   6666     1   0.10969 276646.080000
   6665   6667     1   0.10969 276646.080000
   6670   6672     1   0.10969 276646.080000
   6671   6690     1   0.10969 276646.080000
   6673   6677     1   0.10969 276646.080000
   6674   6676     1   0.10969 276646.080000
   6675   6678     1   0.10961 277566.560000
   6679   6689     1   0.09730 310787.520000
   6680   6682     1   0.09730 310787.520000
   6681   6684     1   0.10969 276646.080000
   6681   6685     1   0.10969 276646.080000
   6683   6693     1   0.10190 328360.320000
   6686   6687     1   0.09730 310787.520000
   6691   6692     1   0.09730 310787.520000
   6694   6696     1   0.10969 276646.080000
   6695   6714     1   0.10969 276646.080000
   6697   6701     1   0.10969 276646.080000
   6698   6700     1   0.10969 276646.080000
   6699   6702     1   0.10961 277566.560000
   6703   6713     1   0.09730 310787.520000
   6704   6706     1   0.09730 310787.520000
   6705   6708     1   0.10969 276646.080000
   6705   6709     1   0.10969 276646.080000
   6707   6717     1   0.10190 328360.320000
   6710   6711     1   0.09730 310787.520000
   6715   6716     1   0.09730 310787.520000
   6718   6719     1   0.10129 337397.760000
   6720   6721     1   0.10969 276646.080000
   6720   6723     1   0.10969 276646.080000
   6722   6724     1   0.10969 276646.080000
   6722   6725     1   0.10969 276646.080000
   6727   6736     1   0.10969 276646.080000
   6727   6737     1   0.10969 276646.080000
   6728   6729     1   0.10969 276646.080000
   6728   6731     1   0.10969 276646.080000
   6730   6732     1   0.10969 276646.080000
   6730   6733     1   0.10969 276646.080000
   6738   6739     1   0.10969 276646.080000
   6738   6740     1   0.10969 276646.080000
   6743   6745     1   0.10969 276646.080000
   6744   6763     1   0.10969 276646.080000
   6746   6750     1   0.10969 276646.080000
   6747   6749     1   0.10969 276646.080000
   6748   6751     1   0.10961 277566.560000
   6752   6762     1   0.09730 310787.520000
   6753   6755     1   0.09730 310787.520000
   6754   6757     1   0.10969 276646.080000
   6754   6758     1   0.10969 276646.080000
   6756   6766     1   0.10190 328360.320000
   6759   6760     1   0.09730 310787.520000
   6764   6765     1   0.09730 310787.520000
   6767   6769     1   0.10969 276646.080000
   6768   6787     1   0.10969 276646.080000
   6770   6774     1   0.10969 276646.080000
   6771   6773     1   0.10969 276646.080000
   6772   6775     1   0.10961 277566.560000
   6776   6786     1   0.09730 310787.520000
   6777   6779     1   0.09730 310787.520000
   6778   6781     1   0.10969 276646.080000
   6778   6782     1   0.10969 276646.080000
   6780   6790     1   0.10190 328360.320000
   6783   6784     1   0.09730 310787.520000
   6788   6789     1   0.09730 310787.520000
   6791   6792     1   0.10129 337397.760000
   6793   6794     1   0.10969 276646.080000
   6793   6796     1   0.10969 276646.080000
   6795   6797     1   0.10969 276646.080000
   6795   6798     1   0.10969 276646.080000
   6800   6809     1   0.10969 276646.080000
   6800   6810     1   0.10969 276646.080000
   6801   6802     1   0.10969 276646.080000
   6801   6804     1   0.10969 276646.080000
   6803   6805     1   0.10969 276646.080000
   6803   6806     1   0.10969 276646.080000
   6811   6812     1   0.10969 276646.080000
   6811   6813     1   0.10969 276646.080000
   6816   6818     1   0.10969 276646.080000
   6817   6836     1   0.10969 276646.080000
   6819   6823     1   0.10969 276646.080000
   6820   6822     1   0.10969 276646.080000
   6821   6824     1   0.10961 277566.560000
   6825   6835     1   0.09730 310787.520000
   6826   6828     1   0.09730 310787.520000
   6827   6830     1   0.10969 276646.080000
   6827   6831     1   0.10969 276646.080000
   6829   6839     1   0.10190 328360.320000
   6832   6833     1   0.09730 310787.520000
   6837   6838     1   0.09730 310787.520000
   6840   6842     1   0.10969 276646.080000
   6841   6860     1   0.10969 276646.080000
   6843   6847     1   0.10969 276646.080000
   6844   6846     1   0.10969 276646.080000
   6845   6848     1   0.10961 277566.560000
   6849   6859     1   0.09730 310787.520000
   6850   6852     1   0.09730 310787.520000
   6851   6854     1   0.10969 276646.080000
   6851   6855     1   0.10969 276646.080000
   6853   6863     1   0.10190 328360.320000
   6856   6857     1   0.09730 310787.520000
   6861   6862     1   0.09730 310787.520000
   6864   6865     1   0.10129 337397.760000
   6866   6867     1   0.10969 276646.080000
   6866   6869     1   0.10969 276646.080000
   6868   6870     1   0.10969 276646.080000
   6868   6871     1   0.10969 276646.080000
   6873   6882     1   0.10969 276646.080000
   6873   6883     1   0.10969 276646.080000
   6874   6875     1   0.10969 276646.080000
   6874   6877     1   0.10969 276646.080000
   6876   6878     1   0.10969 276646.080000
   6876   6879     1   0.10969 276646.080000
   6884   6885     1   0.10969 276646.080000
   6884   6886     1   0.10969 276646.080000
   6889   6891     1   0.10969 276646.080000
   6890   6909     1   0.10969 276646.080000
   6892   6896     1   0.10969 276646.080000
   6893   6895     1   0.10969 276646.080000
   6894   6897     1   0.10961 277566.560000
   6898   6908     1   0.09730 310787.520000
   6899   6901     1   0.09730 310787.520000
   6900   6903     1   0.10969 276646.080000
   6900   6904     1   0.10969 276646.080000
   6902   6912     1   0.10190 328360.320000
   6905   6906     1   0.09730 310787.520000
   6910   6911     1   0.09730 310787.520000
   6913   6915     1   0.10969 276646.080000
   6914   6933     1   0.10969 276646.080000
   6916   6920     1   0.10969 276646.080000
   6917   6919     1   0.10969 276646.080000
   6918   6921     1   0.10961 277566.560000
   6922   6932     1   0.09730 310787.520000
   6923   6925     1   0.09730 310787.520000
   6924   6927     1   0.10969 276646.080000
   6924   6928     1   0.10969 276646.080000
   6926   6936     1   0.10190 328360.320000
   6929   6930     1   0.09730 310787.520000
   6934   6935     1   0.09730 310787.520000
   6937   6938     1   0.10129 337397.760000
   6939   6940     1   0.10969 276646.080000
   6939   6942     1   0.10969 276646.080000
   6941   6943     1   0.10969 276646.080000
   6941   6944     1   0.10969 276646.080000
   6946   6955     1   0.10969 276646.080000
   6946   6956     1   0.10969 276646.080000
   6947   6948     1   0.10969 276646.080000
   6947   6950     1   0.10969 276646.080000
   6949   6951     1   0.10969 276646.080000
   6949   6952     1   0.10969 276646.080000
   6957   6958     1   0.10969 276646.080000
   6957   6959     1   0.10969 276646.080000
   6962   6964     1   0.10969 276646.080000
   6963   6982     1   0.10969 276646.080000
   6965   6969     1   0.10969 276646.080000
   6966   6968     1   0.10969 276646.080000
   6967   6970     1   0.10961 277566.560000
   6971   6981     1   0.09730 310787.520000
   6972   6974     1   0.09730 310787.520000
   6973   6976     1   0.10969 276646.080000
   6973   6977     1   0.10969 276646.080000
   6975   6985     1   0.10190 328360.320000
   6978   6979     1   0.09730 310787.520000
   6983   6984     1   0.09730 310787.520000
   6986   6988     1   0.10969 276646.080000
   6987   7006     1   0.10969 276646.080000
   6989   6993     1   0.10969 276646.080000
   6990   6992     1   0.10969 276646.080000
   6991   6994     1   0.10961 277566.560000
   6995   7005     1   0.09730 310787.520000
   6996   6998     1   0.09730 310787.520000
   6997   7000     1   0.10969 276646.080000
   6997   7001     1   0.10969 276646.080000
   6999   7009     1   0.10190 328360.320000
   7002   7003     1   0.09730 310787.520000
   7007   7008     1   0.09730 310787.520000
   7010   7011     1   0.10129 337397.760000
   7012   7013     1   0.10969 276646.080000
   7012   7015     1   0.10969 276646.080000
   7014   7016     1   0.10969 276646.080000
   7014   7017     1   0.10969 276646.080000
   7019   7028     1   0.10969 276646.080000
   7019   7029     1   0.10969 276646.080000
   7020   7021     1   0.10969 276646.080000
   7020   7023     1   0.10969 276646.080000
   7022   7024     1   0.10969 276646.080000
   7022   7025     1   0.10969 276646.080000
   7030   7031     1   0.10969 276646.080000
   7030   7032     1   0.10969 276646.080000
   7035   7037     1   0.10969 276646.080000
   7036   7055     1   0.10969 276646.080000
   7038   7042     1   0.10969 276646.080000
   7039   7041     1   0.10969 276646.080000
   7040   7043     1   0.10961 277566.560000
   7044   7054     1   0.09730 310787.520000
   7045   7047     1   0.09730 310787.520000
   7046   7049     1   0.10969 276646.080000
   7046   7050     1   0.10969 276646.080000
   7048   7058     1   0.10190 328360.320000
   7051   7052     1   0.09730 310787.520000
   7056   7057     1   0.09730 310787.520000
   7059   7061     1   0.10969 276646.080000
   7060   7079     1   0.10969 276646.080000
   7062   7066     1   0.10969 276646.080000
   7063   7065     1   0.10969 276646.080000
   7064   7067     1   0.10961 277566.560000
   7068   7078     1   0.09730 310787.520000
   7069   7071     1   0.09730 310787.520000
   7070   7073     1   0.10969 276646.080000
   7070   7074     1   0.10969 276646.080000
   7072   7082     1   0.10190 328360.320000
   7075   7076     1   0.09730 310787.520000
   7080   7081     1   0.09730 310787.520000
   7083   7084     1   0.10129 337397.760000
   7085   7086     1   0.10969 276646.080000
   7085   7088     1   0.10969 276646.080000
   7087   7089     1   0.10969 276646.080000
   7087   7090     1   0.10969 276646.080000
   7092   7101     1   0.10969 276646.080000
   7092   7102     1   0.10969 276646.080000
   7093   7094     1   0.10969 276646.080000
   7093   7096     1   0.10969 276646.080000
   7095   7097     1   0.10969 276646.080000
   7095   7098     1   0.10969 276646.080000
   7103   7104     1   0.10969 276646.080000
   7103   7105     1   0.10969 276646.080000
   7108   7110     1   0.10969 276646.080000
   7109   7128     1   0.10969 276646.080000
   7111   7115     1   0.10969 276646.080000
   7112   7114     1   0.10969 276646.080000
   7113   7116     1   0.10961 277566.560000
   7117   7127     1   0.09730 310787.520000
   7118   7120     1   0.09730 310787.520000
   7119   7122     1   0.10969 276646.080000
   7119   7123     1   0.10969 276646.080000
   7121   7131     1   0.10190 328360.320000
   7124   7125     1   0.09730 310787.520000
   7129   7130     1   0.09730 310787.520000
   7132   7134     1   0.10969 276646.080000
   7133   7152     1   0.10969 276646.080000
   7135   7139     1   0.10969 276646.080000
   7136   7138     1   0.10969 276646.080000
   7137   7140     1   0.10961 277566.560000
   7141   7151     1   0.09730 310787.520000
   7142   7144     1   0.09730 310787.520000
   7143   7146     1   0.10969 276646.080000
   7143   7147     1   0.10969 276646.080000
   7145   7155     1   0.10190 328360.320000
   7148   7149     1   0.09730 310787.520000
   7153   7154     1   0.09730 310787.520000
   7156   7157     1   0.10129 337397.760000
   7158   7159     1   0.10969 276646.080000
   7158   7161     1   0.10969 276646.080000
   7160   7162     1   0.10969 276646.080000
   7160   7163     1   0.10969 276646.080000
   7165   7174     1   0.10969 276646.080000
   7165   7175     1   0.10969 276646.080000
   7166   7167     1   0.10969 276646.080000
   7166   7169     1   0.10969 276646.080000
   7168   7170     1   0.10969 276646.080000
   7168   7171     1   0.10969 276646.080000
   7176   7177     1   0.10969 276646.080000
   7176   7178     1   0.10969 276646.080000
   7181   7183     1   0.10969 276646.080000
   7182   7201     1   0.10969 276646.080000
   7184   7188     1   0.10969 276646.080000
   7185   7187     1   0.10969 276646.080000
   7186   7189     1   0.10961 277566.560000
   7190   7200     1   0.09730 310787.520000
   7191   7193     1   0.09730 310787.520000
   7192   7195     1   0.10969 276646.080000
   7192   7196     1   0.10969 276646.080000
   7194   7204     1   0.10190 328360.320000
   7197   7198     1   0.09730 310787.520000
   7202   7203     1   0.09730 310787.520000
   7205   7207     1   0.10969 276646.080000
   7206   7225     1   0.10969 276646.080000
   7208   7212     1   0.10969 276646.080000
   7209   7211     1   0.10969 276646.080000
   7210   7213     1   0.10961 277566.560000
   7214   7224     1   0.09730 310787.520000
   7215   7217     1   0.09730 310787.520000
   7216   7219     1   0.10969 276646.080000
   7216   7220     1   0.10969 276646.080000
   7218   7228     1   0.10190 328360.320000
   7221   7222     1   0.09730 310787.520000
   7226   7227     1   0.09730 310787.520000
   7229   7230     1   0.10129 337397.760000
   7231   7232     1   0.10969 276646.080000
   7231   7234     1   0.10969 276646.080000
   7233   7235     1   0.10969 276646.080000
   7233   7236     1   0.10969 276646.080000
   7238   7247     1   0.10969 276646.080000
   7238   7248     1   0.10969 276646.080000
   7239   7240     1   0.10969 276646.080000
   7239   7242     1   0.10969 276646.080000
   7241   7243     1   0.10969 276646.080000
   7241   7244     1   0.10969 276646.080000
   7249   7250     1   0.10969 276646.080000
   7249   7251     1   0.10969 276646.080000
   7254   7256     1   0.10969 276646.080000
   7255   7274     1   0.10969 276646.080000
   7257   7261     1   0.10969 276646.080000
   7258   7260     1   0.10969 276646.080000
   7259   7262     1   0.10961 277566.560000
   7263   7273     1   0.09730 310787.520000
   7264   7266     1   0.09730 310787.520000
   7265   7268     1   0.10969 276646.080000
   7265   7269     1   0.10969 276646.080000
   7267   7277     1   0.10190 328360.320000
   7270   7271     1   0.09730 310787.520000
   7275   7276     1   0.09730 310787.520000
   7278   7280     1   0.10969 276646.080000
   7279   7298     1   0.10969 276646.080000
   7281   7285     1   0.10969 276646.080000
   7282   7284     1   0.10969 276646.080000
   7283   7286     1   0.10961 277566.560000
   7287   7297     1   0.09730 310787.520000
   7288   7290     1   0.09730 310787.520000
   7289   7292     1   0.10969 276646.080000
   7289   7293     1   0.10969 276646.080000
   7291   7301     1   0.10190 328360.320000
   7294   7295     1   0.09730 310787.520000
   7299   7300     1   0.09730 310787.520000
   7302   7303     1   0.10129 337397.760000
   7304   7305     1   0.10969 276646.080000
   7304   7307     1   0.10969 276646.080000
   7306   7308     1   0.10969 276646.080000
   7306   7309     1   0.10969 276646.080000
   7311   7320     1   0.10969 276646.080000
   7311   7321     1   0.10969 276646.080000
   7312   7313     1   0.10969 276646.080000
   7312   7315     1   0.10969 276646.080000
   7314   7316     1   0.10969 276646.080000
   7314   7317     1   0.10969 276646.080000
   7322   7323     1   0.10969 276646.080000
   7322   7324     1   0.10969 276646.080000
   7327   7329     1   0.10969 276646.080000
   7328   7347     1   0.10969 276646.080000
   7330   7334     1   0.10969 276646.080000
   7331   7333     1   0.10969 276646.080000
   7332   7335     1   0.10961 277566.560000
   7336   7346     1   0.09730 310787.520000
   7337   7339     1   0.09730 310787.520000
   7338   7341     1   0.10969 276646.080000
   7338   7342     1   0.10969 276646.080000
   7340   7350     1   0.10190 328360.320000
   7343   7344     1   0.09730 310787.520000
   7348   7349     1   0.09730 310787.520000
   7351   7353     1   0.10969 276646.080000
   7352   7371     1   0.10969 276646.080000
   7354   7358     1   0.10969 276646.080000
   7355   7357     1   0.10969 276646.080000
   7356   7359     1   0.10961 277566.560000
   7360   7370     1   0.09730 310787.520000
   7361   7363     1   0.09730 310787.520000
   7362   7365     1   0.10969 276646.080000
   7362   7366     1   0.10969 276646.080000
   7364   7374     1   0.10190 328360.320000
   7367   7368     1   0.09730 310787.520000
   7372   7373     1   0.09730 310787.520000
   7375   7376     1   0.10129 337397.760000
   7377   7378     1   0.10969 276646.080000
   7377   7380     1   0.10969 276646.080000
   7379   7381     1   0.10969 276646.080000
   7379   7382     1   0.10969 276646.080000
   7384   7393     1   0.10969 276646.080000
   7384   7394     1   0.10969 276646.080000
   7385   7386     1   0.10969 276646.080000
   7385   7388     1   0.10969 276646.080000
   7387   7389     1   0.10969 276646.080000
   7387   7390     1   0.10969 276646.080000
   7395   7396     1   0.10969 276646.080000
   7395   7397     1   0.10969 276646.080000
   7400   7402     1   0.10969 276646.080000
   7401   7420     1   0.10969 276646.080000
   7403   7407     1   0.10969 276646.080000
   7404   7406     1   0.10969 276646.080000
   7405   7408     1   0.10961 277566.560000
   7409   7419     1   0.09730 310787.520000
   7410   7412     1   0.09730 310787.520000
   7411   7414     1   0.10969 276646.080000
   7411   7415     1   0.10969 276646.080000
   7413   7423     1   0.10190 328360.320000
   7416   7417     1   0.09730 310787.520000
   7421   7422     1   0.09730 310787.520000
   7424   7426     1   0.10969 276646.080000
   7425   7444     1   0.10969 276646.080000
   7427   7431     1   0.10969 276646.080000
   7428   7430     1   0.10969 276646.080000
   7429   7432     1   0.10961 277566.560000
   7433   7443     1   0.09730 310787.520000
   7434   7436     1   0.09730 310787.520000
   7435   7438     1   0.10969 276646.080000
   7435   7439     1   0.10969 276646.080000
   7437   7447     1   0.10190 328360.320000
   7440   7441     1   0.09730 310787.520000
   7445   7446     1   0.09730 310787.520000
   7448   7449     1   0.10129 337397.760000
   7450   7451     1   0.10969 276646.080000
   7450   7453     1   0.10969 276646.080000
   7452   7454     1   0.10969 276646.080000
   7452   7455     1   0.10969 276646.080000
   7457   7466     1   0.10969 276646.080000
   7457   7467     1   0.10969 276646.080000
   7458   7459     1   0.10969 276646.080000
   7458   7461     1   0.10969 276646.080000
   7460   7462     1   0.10969 276646.080000
   7460   7463     1   0.10969 276646.080000
   7468   7469     1   0.10969 276646.080000
   7468   7470     1   0.10969 276646.080000
   7473   7475     1   0.10969 276646.080000
   7474   7493     1   0.10969 276646.080000
   7476   7480     1   0.10969 276646.080000
   7477   7479     1   0.10969 276646.080000
   7478   7481     1   0.10961 277566.560000
   7482   7492     1   0.09730 310787.520000
   7483   7485     1   0.09730 310787.520000
   7484   7487     1   0.10969 276646.080000
   7484   7488     1   0.10969 276646.080000
   7486   7496     1   0.10190 328360.320000
   7489   7490     1   0.09730 310787.520000
   7494   7495     1   0.09730 310787.520000
   7497   7499     1   0.10969 276646.080000
   7498   7517     1   0.10969 276646.080000
   7500   7504     1   0.10969 276646.080000
   7501   7503     1   0.10969 276646.080000
   7502   7505     1   0.10961 277566.560000
   7506   7516     1   0.09730 310787.520000
   7507   7509     1   0.09730 310787.520000
   7508   7511     1   0.10969 276646.080000
   7508   7512     1   0.10969 276646.080000
   7510   7520     1   0.10190 328360.320000
   7513   7514     1   0.09730 310787.520000
   7518   7519     1   0.09730 310787.520000
   7521   7522     1   0.10129 337397.760000
   7523   7524     1   0.10969 276646.080000
   7523   7526     1   0.10969 276646.080000
   7525   7527     1   0.10969 276646.080000
   7525   7528     1   0.10969 276646.080000
   7530   7539     1   0.10969 276646.080000
   7530   7540     1   0.10969 276646.080000
   7531   7532     1   0.10969 276646.080000
   7531   7534     1   0.10969 276646.080000
   7533   7535     1   0.10969 276646.080000
   7533   7536     1   0.10969 276646.080000
   7541   7542     1   0.10969 276646.080000
   7541   7543     1   0.10969 276646.080000
   7546   7548     1   0.10969 276646.080000
   7547   7566     1   0.10969 276646.080000
   7549   7553     1   0.10969 276646.080000
   7550   7552     1   0.10969 276646.080000
   7551   7554     1   0.10961 277566.560000
   7555   7565     1   0.09730 310787.520000
   7556   7558     1   0.09730 310787.520000
   7557   7560     1   0.10969 276646.080000
   7557   7561     1   0.10969 276646.080000
   7559   7569     1   0.10190 328360.320000
   7562   7563     1   0.09730 310787.520000
   7567   7568     1   0.09730 310787.520000
   7570   7572     1   0.10969 276646.080000
   7571   7590     1   0.10969 276646.080000
   7573   7577     1   0.10969 276646.080000
   7574   7576     1   0.10969 276646.080000
   7575   7578     1   0.10961 277566.560000
   7579   7589     1   0.09730 310787.520000
   7580   7582     1   0.09730 310787.520000
   7581   7584     1   0.10969 276646.080000
   7581   7585     1   0.10969 276646.080000
   7583   7593     1   0.10190 328360.320000
   7586   7587     1   0.09730 310787.520000
   7591   7592     1   0.09730 310787.520000
   7594   7595     1   0.10129 337397.760000
   7596   7597     1   0.10969 276646.080000
   7596   7599     1   0.10969 276646.080000
   7598   7600     1   0.10969 276646.080000
   7598   7601     1   0.10969 276646.080000
   7603   7612     1   0.10969 276646.080000
   7603   7613     1   0.10969 276646.080000
   7604   7605     1   0.10969 276646.080000
   7604   7607     1   0.10969 276646.080000
   7606   7608     1   0.10969 276646.080000
   7606   7609     1   0.10969 276646.080000
   7614   7615     1   0.10969 276646.080000
   7614   7616     1   0.10969 276646.080000
   7619   7621     1   0.10969 276646.080000
   7620   7639     1   0.10969 276646.080000
   7622   7626     1   0.10969 276646.080000
   7623   7625     1   0.10969 276646.080000
   7624   7627     1   0.10961 277566.560000
   7628   7638     1   0.09730 310787.520000
   7629   7631     1   0.09730 310787.520000
   7630   7633     1   0.10969 276646.080000
   7630   7634     1   0.10969 276646.080000
   7632   7642     1   0.10190 328360.320000
   7635   7636     1   0.09730 310787.520000
   7640   7641     1   0.09730 310787.520000
   7643   7645     1   0.10969 276646.080000
   7644   7663     1   0.10969 276646.080000
   7646   7650     1   0.10969 276646.080000
   7647   7649     1   0.10969 276646.080000
   7648   7651     1   0.10961 277566.560000
   7652   7662     1   0.09730 310787.520000
   7653   7655     1   0.09730 310787.520000
   7654   7657     1   0.10969 276646.080000
   7654   7658     1   0.10969 276646.080000
   7656   7666     1   0.10190 328360.320000
   7659   7660     1   0.09730 310787.520000
   7664   7665     1   0.09730 310787.520000
   7667   7668     1   0.10129 337397.760000
   7669   7670     1   0.10969 276646.080000
   7669   7672     1   0.10969 276646.080000
   7671   7673     1   0.10969 276646.080000
   7671   7674     1   0.10969 276646.080000
   7676   7685     1   0.10969 276646.080000
   7676   7686     1   0.10969 276646.080000
   7677   7678     1   0.10969 276646.080000
   7677   7680     1   0.10969 276646.080000
   7679   7681     1   0.10969 276646.080000
   7679   7682     1   0.10969 276646.080000
   7687   7688     1   0.10969 276646.080000
   7687   7689     1   0.10969 276646.080000
   7692   7694     1   0.10969 276646.080000
   7693   7712     1   0.10969 276646.080000
   7695   7699     1   0.10969 276646.080000
   7696   7698     1   0.10969 276646.080000
   7697   7700     1   0.10961 277566.560000
   7701   7711     1   0.09730 310787.520000
   7702   7704     1   0.09730 310787.520000
   7703   7706     1   0.10969 276646.080000
   7703   7707     1   0.10969 276646.080000
   7705   7715     1   0.10190 328360.320000
   7708   7709     1   0.09730 310787.520000
   7713   7714     1   0.09730 310787.520000
   7716   7718     1   0.10969 276646.080000
   7717   7736     1   0.10969 276646.080000
   7719   7723     1   0.10969 276646.080000
   7720   7722     1   0.10969 276646.080000
   7721   7724     1   0.10961 277566.560000
   7725   7735     1   0.09730 310787.520000
   7726   7728     1   0.09730 310787.520000
   7727   7730     1   0.10969 276646.080000
   7727   7731     1   0.10969 276646.080000
   7729   7739     1   0.10190 328360.320000
   7732   7733     1   0.09730 310787.520000
   7737   7738     1   0.09730 310787.520000
   7740   7741     1   0.10129 337397.760000
   7742   7743     1   0.10969 276646.080000
   7742   7745     1   0.10969 276646.080000
   7744   7746     1   0.10969 276646.080000
   7744   7747     1   0.10969 276646.080000
   7749   7758     1   0.10969 276646.080000
   7749   7759     1   0.10969 276646.080000
   7750   7751     1   0.10969 276646.080000
   7750   7753     1   0.10969 276646.080000
   7752   7754     1   0.10969 276646.080000
   7752   7755     1   0.10969 276646.080000
   7760   7761     1   0.10969 276646.080000
   7760   7762     1   0.10969 276646.080000
   7765   7767     1   0.10969 276646.080000
   7766   7785     1   0.10969 276646.080000
   7768   7772     1   0.10969 276646.080000
   7769   7771     1   0.10969 276646.080000
   7770   7773     1   0.10961 277566.560000
   7774   7784     1   0.09730 310787.520000
   7775   7777     1   0.09730 310787.520000
   7776   7779     1   0.10969 276646.080000
   7776   7780     1   0.10969 276646.080000
   7778   7788     1   0.10190 328360.320000
   7781   7782     1   0.09730 310787.520000
   7786   7787     1   0.09730 310787.520000
   7789   7791     1   0.10969 276646.080000
   7790   7809     1   0.10969 276646.080000
   7792   7796     1   0.10969 276646.080000
   7793   7795     1   0.10969 276646.080000
   7794   7797     1   0.10961 277566.560000
   7798   7808     1   0.09730 310787.520000
   7799   7801     1   0.09730 310787.520000
   7800   7803     1   0.10969 276646.080000
   7800   7804     1   0.10969 276646.080000
   7802   7812     1   0.10190 328360.320000
   7805   7806     1   0.09730 310787.520000
   7810   7811     1   0.09730 310787.520000
   7813   7814     1   0.10129 337397.760000
   7815   7816     1   0.10969 276646.080000
   7815   7818     1   0.10969 276646.080000
   7817   7819     1   0.10969 276646.080000
   7817   7820     1   0.10969 276646.080000
   7822   7831     1   0.10969 276646.080000
   7822   7832     1   0.10969 276646.080000
   7823   7824     1   0.10969 276646.080000
   7823   7826     1   0.10969 276646.080000
   7825   7827     1   0.10969 276646.080000
   7825   7828     1   0.10969 276646.080000
   7833   7834     1   0.10969 276646.080000
   7833   7835     1   0.10969 276646.080000
   7838   7840     1   0.10969 276646.080000
   7839   7858     1   0.10969 276646.080000
   7841   7845     1   0.10969 276646.080000
   7842   7844     1   0.10969 276646.080000
   7843   7846     1   0.10961 277566.560000
   7847   7857     1   0.09730 310787.520000
   7848   7850     1   0.09730 310787.520000
   7849   7852     1   0.10969 276646.080000
   7849   7853     1   0.10969 276646.080000
   7851   7861     1   0.10190 328360.320000
   7854   7855     1   0.09730 310787.520000
   7859   7860     1   0.09730 310787.520000
   7862   7864     1   0.10969 276646.080000
   7863   7882     1   0.10969 276646.080000
   7865   7869     1   0.10969 276646.080000
   7866   7868     1   0.10969 276646.080000
   7867   7870     1   0.10961 277566.560000
   7871   7881     1   0.09730 310787.520000
   7872   7874     1   0.09730 310787.520000
   7873   7876     1   0.10969 276646.080000
   7873   7877     1   0.10969 276646.080000
   7875   7885     1   0.10190 328360.320000
   7878   7879     1   0.09730 310787.520000
   7883   7884     1   0.09730 310787.520000
   7886   7887     1   0.10129 337397.760000
   7888   7889     1   0.10969 276646.080000
   7888   7891     1   0.10969 276646.080000
   7890   7892     1   0.10969 276646.080000
   7890   7893     1   0.10969 276646.080000
   7895   7904     1   0.10969 276646.080000
   7895   7905     1   0.10969 276646.080000
   7896   7897     1   0.10969 276646.080000
   7896   7899     1   0.10969 276646.080000
   7898   7900     1   0.10969 276646.080000
   7898   7901     1   0.10969 276646.080000
   7906   7907     1   0.10969 276646.080000
   7906   7908     1   0.10969 276646.080000
   7911   7913     1   0.10969 276646.080000
   7912   7931     1   0.10969 276646.080000
   7914   7918     1   0.10969 276646.080000
   7915   7917     1   0.10969 276646.080000
   7916   7919     1   0.10961 277566.560000
   7920   7930     1   0.09730 310787.520000
   7921   7923     1   0.09730 310787.520000
   7922   7925     1   0.10969 276646.080000
   7922   7926     1   0.10969 276646.080000
   7924   7934     1   0.10190 328360.320000
   7927   7928     1   0.09730 310787.520000
   7932   7933     1   0.09730 310787.520000
   7935   7937     1   0.10969 276646.080000
   7936   7955     1   0.10969 276646.080000
   7938   7942     1   0.10969 276646.080000
   7939   7941     1   0.10969 276646.080000
   7940   7943     1   0.10961 277566.560000
   7944   7954     1   0.09730 310787.520000
   7945   7947     1   0.09730 310787.520000
   7946   7949     1   0.10969 276646.080000
   7946   7950     1   0.10969 276646.080000
   7948   7958     1   0.10190 328360.320000
   7951   7952     1   0.09730 310787.520000
   7956   7957     1   0.09730 310787.520000
   7959   7960     1   0.10129 337397.760000
   7961   7962     1   0.10969 276646.080000
   7961   7964     1   0.10969 276646.080000
   7963   7965     1   0.10969 276646.080000
   7963   7966     1   0.10969 276646.080000
   7968   7977     1   0.10969 276646.080000
   7968   7978     1   0.10969 276646.080000
   7969   7970     1   0.10969 276646.080000
   7969   7972     1   0.10969 276646.080000
   7971   7973     1   0.10969 276646.080000
   7971   7974     1   0.10969 276646.080000
   7979   7980     1   0.10969 276646.080000
   7979   7981     1   0.10969 276646.080000
   7984   7986     1   0.10969 276646.080000
   7985   8004     1   0.10969 276646.080000
   7987   7991     1   0.10969 276646.080000
   7988   7990     1   0.10969 276646.080000
   7989   7992     1   0.10961 277566.560000
   7993   8003     1   0.09730 310787.520000
   7994   7996     1   0.09730 310787.520000
   7995   7998     1   0.10969 276646.080000
   7995   7999     1   0.10969 276646.080000
   7997   8007     1   0.10190 328360.320000
   8000   8001     1   0.09730 310787.520000
   8005   8006     1   0.09730 310787.520000
   8008   8010     1   0.10969 276646.080000
   8009   8028     1   0.10969 276646.080000
   8011   8015     1   0.10969 276646.080000
   8012   8014     1   0.10969 276646.080000
   8013   8016     1   0.10961 277566.560000
   8017   8027     1   0.09730 310787.520000
   8018   8020     1   0.09730 310787.520000
   8019   8022     1   0.10969 276646.080000
   8019   8023     1   0.10969 276646.080000
   8021   8031     1   0.10190 328360.320000
   8024   8025     1   0.09730 310787.520000
   8029   8030     1   0.09730 310787.520000
   8032   8033     1   0.10129 337397.760000
   8034   8035     1   0.10969 276646.080000
   8034   8037     1   0.10969 276646.080000
   8036   8038     1   0.10969 276646.080000
   8036   8039     1   0.10969 276646.080000
   8041   8050     1   0.10969 276646.080000
   8041   8051     1   0.10969 276646.080000
   8042   8043     1   0.10969 276646.080000
   8042   8045     1   0.10969 276646.080000
   8044   8046     1   0.10969 276646.080000
   8044   8047     1   0.10969 276646.080000
   8052   8053     1   0.10969 276646.080000
   8052   8054     1   0.10969 276646.080000
   8057   8059     1   0.10969 276646.080000
   8058   8077     1   0.10969 276646.080000
   8060   8064     1   0.10969 276646.080000
   8061   8063     1   0.10969 276646.080000
   8062   8065     1   0.10961 277566.560000
   8066   8076     1   0.09730 310787.520000
   8067   8069     1   0.09730 310787.520000
   8068   8071     1   0.10969 276646.080000
   8068   8072     1   0.10969 276646.080000
   8070   8080     1   0.10190 328360.320000
   8073   8074     1   0.09730 310787.520000
   8078   8079     1   0.09730 310787.520000
   8081   8083     1   0.10969 276646.080000
   8082   8101     1   0.10969 276646.080000
   8084   8088     1   0.10969 276646.080000
   8085   8087     1   0.10969 276646.080000
   8086   8089     1   0.10961 277566.560000
   8090   8100     1   0.09730 310787.520000
   8091   8093     1   0.09730 310787.520000
   8092   8095     1   0.10969 276646.080000
   8092   8096     1   0.10969 276646.080000
   8094   8104     1   0.10190 328360.320000
   8097   8098     1   0.09730 310787.520000
   8102   8103     1   0.09730 310787.520000
   8105   8106     1   0.10129 337397.760000
   8107   8108     1   0.10969 276646.080000
   8107   8110     1   0.10969 276646.080000
   8109   8111     1   0.10969 276646.080000
   8109   8112     1   0.10969 276646.080000
   8114   8123     1   0.10969 276646.080000
   8114   8124     1   0.10969 276646.080000
   8115   8116     1   0.10969 276646.080000
   8115   8118     1   0.10969 276646.080000
   8117   8119     1   0.10969 276646.080000
   8117   8120     1   0.10969 276646.080000
   8125   8126     1   0.10969 276646.080000
   8125   8127     1   0.10969 276646.080000
   8130   8132     1   0.10969 276646.080000
   8131   8150     1   0.10969 276646.080000
   8133   8137     1   0.10969 276646.080000
   8134   8136     1   0.10969 276646.080000
   8135   8138     1   0.10961 277566.560000
   8139   8149     1   0.09730 310787.520000
   8140   8142     1   0.09730 310787.520000
   8141   8144     1   0.10969 276646.080000
   8141   8145     1   0.10969 276646.080000
   8143   8153     1   0.10190 328360.320000
   8146   8147     1   0.09730 310787.520000
   8151   8152     1   0.09730 310787.520000
   8154   8156     1   0.10969 276646.080000
   8155   8174     1   0.10969 276646.080000
   8157   8161     1   0.10969 276646.080000
   8158   8160     1   0.10969 276646.080000
   8159   8162     1   0.10961 277566.560000
   8163   8173     1   0.09730 310787.520000
   8164   8166     1   0.09730 310787.520000
   8165   8168     1   0.10969 276646.080000
   8165   8169     1   0.10969 276646.080000
   8167   8177     1   0.10190 328360.320000
   8170   8171     1   0.09730 310787.520000
   8175   8176     1   0.09730 310787.520000
   8178   8179     1   0.10129 337397.760000
   8180   8181     1   0.10969 276646.080000
   8180   8183     1   0.10969 276646.080000
   8182   8184     1   0.10969 276646.080000
   8182   8185     1   0.10969 276646.080000
   8187   8196     1   0.10969 276646.080000
   8187   8197     1   0.10969 276646.080000
   8188   8189     1   0.10969 276646.080000
   8188   8191     1   0.10969 276646.080000
   8190   8192     1   0.10969 276646.080000
   8190   8193     1   0.10969 276646.080000
   8198   8199     1   0.10969 276646.080000
   8198   8200     1   0.10969 276646.080000
   8203   8205     1   0.10969 276646.080000
   8204   8223     1   0.10969 276646.080000
   8206   8210     1   0.10969 276646.080000
   8207   8209     1   0.10969 276646.080000
   8208   8211     1   0.10961 277566.560000
   8212   8222     1   0.09730 310787.520000
   8213   8215     1   0.09730 310787.520000
   8214   8217     1   0.10969 276646.080000
   8214   8218     1   0.10969 276646.080000
   8216   8226     1   0.10190 328360.320000
   8219   8220     1   0.09730 310787.520000
   8224   8225     1   0.09730 310787.520000
   8227   8229     1   0.10969 276646.080000
   8228   8247     1   0.10969 276646.080000
   8230   8234     1   0.10969 276646.080000
   8231   8233     1   0.10969 276646.080000
   8232   8235     1   0.10961 277566.560000
   8236   8246     1   0.09730 310787.520000
   8237   8239     1   0.09730 310787.520000
   8238   8241     1   0.10969 276646.080000
   8238   8242     1   0.10969 276646.080000
   8240   8250     1   0.10190 328360.320000
   8243   8244     1   0.09730 310787.520000
   8248   8249     1   0.09730 310787.520000
   8251   8252     1   0.10129 337397.760000
   8253   8254     1   0.10969 276646.080000
   8253   8256     1   0.10969 276646.080000
   8255   8257     1   0.10969 276646.080000
   8255   8258     1   0.10969 276646.080000
   8260   8269     1   0.10969 276646.080000
   8260   8270     1   0.10969 276646.080000
   8261   8262     1   0.10969 276646.080000
   8261   8264     1   0.10969 276646.080000
   8263   8265     1   0.10969 276646.080000
   8263   8266     1   0.10969 276646.080000
   8271   8272     1   0.10969 276646.080000
   8271   8273     1   0.10969 276646.080000
   8276   8278     1   0.10969 276646.080000
   8277   8296     1   0.10969 276646.080000
   8279   8283     1   0.10969 276646.080000
   8280   8282     1   0.10969 276646.080000
   8281   8284     1   0.10961 277566.560000
   8285   8295     1   0.09730 310787.520000
   8286   8288     1   0.09730 310787.520000
   8287   8290     1   0.10969 276646.080000
   8287   8291     1   0.10969 276646.080000
   8289   8299     1   0.10190 328360.320000
   8292   8293     1   0.09730 310787.520000
   8297   8298     1   0.09730 310787.520000
   8300   8302     1   0.10969 276646.080000
   8301   8320     1   0.10969 276646.080000
   8303   8307     1   0.10969 276646.080000
   8304   8306     1   0.10969 276646.080000
   8305   8308     1   0.10961 277566.560000
   8309   8319     1   0.09730 310787.520000
   8310   8312     1   0.09730 310787.520000
   8311   8314     1   0.10969 276646.080000
   8311   8315     1   0.10969 276646.080000
   8313   8323     1   0.10190 328360.320000
   8316   8317     1   0.09730 310787.520000
   8321   8322     1   0.09730 310787.520000
   8324   8325     1   0.10129 337397.760000
   8326   8327     1   0.10969 276646.080000
   8326   8329     1   0.10969 276646.080000
   8328   8330     1   0.10969 276646.080000
   8328   8331     1   0.10969 276646.080000
   8333   8342     1   0.10969 276646.080000
   8333   8343     1   0.10969 276646.080000
   8334   8335     1   0.10969 276646.080000
   8334   8337     1   0.10969 276646.080000
   8336   8338     1   0.10969 276646.080000
   8336   8339     1   0.10969 276646.080000
   8344   8345     1   0.10969 276646.080000
   8344   8346     1   0.10969 276646.080000
   8349   8351     1   0.10969 276646.080000
   8350   8369     1   0.10969 276646.080000
   8352   8356     1   0.10969 276646.080000
   8353   8355     1   0.10969 276646.080000
   8354   8357     1   0.10961 277566.560000
   8358   8368     1   0.09730 310787.520000
   8359   8361     1   0.09730 310787.520000
   8360   8363     1   0.10969 276646.080000
   8360   8364     1   0.10969 276646.080000
   8362   8372     1   0.10190 328360.320000
   8365   8366     1   0.09730 310787.520000
   8370   8371     1   0.09730 310787.520000
   8373   8375     1   0.10969 276646.080000
   8374   8393     1   0.10969 276646.080000
   8376   8380     1   0.10969 276646.080000
   8377   8379     1   0.10969 276646.080000
   8378   8381     1   0.10961 277566.560000
   8382   8392     1   0.09730 310787.520000
   8383   8385     1   0.09730 310787.520000
   8384   8387     1   0.10969 276646.080000
   8384   8388     1   0.10969 276646.080000
   8386   8396     1   0.10190 328360.320000
   8389   8390     1   0.09730 310787.520000
   8394   8395     1   0.09730 310787.520000
   8397   8398     1   0.10129 337397.760000
   8399   8400     1   0.10969 276646.080000
   8399   8402     1   0.10969 276646.080000
   8401   8403     1   0.10969 276646.080000
   8401   8404     1   0.10969 276646.080000
   8406   8415     1   0.10969 276646.080000
   8406   8416     1   0.10969 276646.080000
   8407   8408     1   0.10969 276646.080000
   8407   8410     1   0.10969 276646.080000
   8409   8411     1   0.10969 276646.080000
   8409   8412     1   0.10969 276646.080000
   8417   8418     1   0.10969 276646.080000
   8417   8419     1   0.10969 276646.080000
   8422   8424     1   0.10969 276646.080000
   8423   8442     1   0.10969 276646.080000
   8425   8429     1   0.10969 276646.080000
   8426   8428     1   0.10969 276646.080000
   8427   8430     1   0.10961 277566.560000
   8431   8441     1   0.09730 310787.520000
   8432   8434     1   0.09730 310787.520000
   8433   8436     1   0.10969 276646.080000
   8433   8437     1   0.10969 276646.080000
   8435   8445     1   0.10190 328360.320000
   8438   8439     1   0.09730 310787.520000
   8443   8444     1   0.09730 310787.520000
   8446   8448     1   0.10969 276646.080000
   8447   8466     1   0.10969 276646.080000
   8449   8453     1   0.10969 276646.080000
   8450   8452     1   0.10969 276646.080000
   8451   8454     1   0.10961 277566.560000
   8455   8465     1   0.09730 310787.520000
   8456   8458     1   0.09730 310787.520000
   8457   8460     1   0.10969 276646.080000
   8457   8461     1   0.10969 276646.080000
   8459   8469     1   0.10190 328360.320000
   8462   8463     1   0.09730 310787.520000
   8467   8468     1   0.09730 310787.520000
   8470   8471     1   0.10129 337397.760000
   8472   8473     1   0.10969 276646.080000
   8472   8475     1   0.10969 276646.080000
   8474   8476     1   0.10969 276646.080000
   8474   8477     1   0.10969 276646.080000
   8479   8488     1   0.10969 276646.080000
   8479   8489     1   0.10969 276646.080000
   8480   8481     1   0.10969 276646.080000
   8480   8483     1   0.10969 276646.080000
   8482   8484     1   0.10969 276646.080000
   8482   8485     1   0.10969 276646.080000
   8490   8491     1   0.10969 276646.080000
   8490   8492     1   0.10969 276646.080000
   8495   8497     1   0.10969 276646.080000
   8496   8515     1   0.10969 276646.080000
   8498   8502     1   0.10969 276646.080000
   8499   8501     1   0.10969 276646.080000
   8500   8503     1   0.10961 277566.560000
   8504   8514     1   0.09730 310787.520000
   8505   8507     1   0.09730 310787.520000
   8506   8509     1   0.10969 276646.080000
   8506   8510     1   0.10969 276646.080000
   8508   8518     1   0.10190 328360.320000
   8511   8512     1   0.09730 310787.520000
   8516   8517     1   0.09730 310787.520000
   8519   8521     1   0.10969 276646.080000
   8520   8539     1   0.10969 276646.080000
   8522   8526     1   0.10969 276646.080000
   8523   8525     1   0.10969 276646.080000
   8524   8527     1   0.10961 277566.560000
   8528   8538     1   0.09730 310787.520000
   8529   8531     1   0.09730 310787.520000
   8530   8533     1   0.10969 276646.080000
   8530   8534     1   0.10969 276646.080000
   8532   8542     1   0.10190 328360.320000
   8535   8536     1   0.09730 310787.520000
   8540   8541     1   0.09730 310787.520000
   8543   8544     1   0.10129 337397.760000
   8545   8546     1   0.10969 276646.080000
   8545   8548     1   0.10969 276646.080000
   8547   8549     1   0.10969 276646.080000
   8547   8550     1   0.10969 276646.080000
   8552   8561     1   0.10969 276646.080000
   8552   8562     1   0.10969 276646.080000
   8553   8554     1   0.10969 276646.080000
   8553   8556     1   0.10969 276646.080000
   8555   8557     1   0.10969 276646.080000
   8555   8558     1   0.10969 276646.080000
   8563   8564     1   0.10969 276646.080000
   8563   8565     1   0.10969 276646.080000
   8568   8570     1   0.10969 276646.080000
   8569   8588     1   0.10969 276646.080000
   8571   8575     1   0.10969 276646.080000
   8572   8574     1   0.10969 276646.080000
   8573   8576     1   0.10961 277566.560000
   8577   8587     1   0.09730 310787.520000
   8578   8580     1   0.09730 310787.520000
   8579   8582     1   0.10969 276646.080000
   8579   8583     1   0.10969 276646.080000
   8581   8591     1   0.10190 328360.320000
   8584   8585     1   0.09730 310787.520000
   8589   8590     1   0.09730 310787.520000
   8592   8594     1   0.10969 276646.080000
   8593   8612     1   0.10969 276646.080000
   8595   8599     1   0.10969 276646.080000
   8596   8598     1   0.10969 276646.080000
   8597   8600     1   0.10961 277566.560000
   8601   8611     1   0.09730 310787.520000
   8602   8604     1   0.09730 310787.520000
   8603   8606     1   0.10969 276646.080000
   8603   8607     1   0.10969 276646.080000
   8605   8615     1   0.10190 328360.320000
   8608   8609     1   0.09730 310787.520000
   8613   8614     1   0.09730 310787.520000
   8616   8617     1   0.10129 337397.760000
   8618   8619     1   0.10969 276646.080000
   8618   8621     1   0.10969 276646.080000
   8620   8622     1   0.10969 276646.080000
   8620   8623     1   0.10969 276646.080000
   8625   8634     1   0.10969 276646.080000
   8625   8635     1   0.10969 276646.080000
   8626   8627     1   0.10969 276646.080000
   8626   8629     1   0.10969 276646.080000
   8628   8630     1   0.10969 276646.080000
   8628   8631     1   0.10969 276646.080000
   8636   8637     1   0.10969 276646.080000
   8636   8638     1   0.10969 276646.080000
   8641   8643     1   0.10969 276646.080000
   8642   8661     1   0.10969 276646.080000
   8644   8648     1   0.10969 276646.080000
   8645   8647     1   0.10969 276646.080000
   8646   8649     1   0.10961 277566.560000
   8650   8660     1   0.09730 310787.520000
   8651   8653     1   0.09730 310787.520000
   8652   8655     1   0.10969 276646.080000
   8652   8656     1   0.10969 276646.080000
   8654   8664     1   0.10190 328360.320000
   8657   8658     1   0.09730 310787.520000
   8662   8663     1   0.09730 310787.520000
   8665   8667     1   0.10969 276646.080000
   8666   8685     1   0.10969 276646.080000
   8668   8672     1   0.10969 276646.080000
   8669   8671     1   0.10969 276646.080000
   8670   8673     1   0.10961 277566.560000
   8674   8684     1   0.09730 310787.520000
   8675   8677     1   0.09730 310787.520000
   8676   8679     1   0.10969 276646.080000
   8676   8680     1   0.10969 276646.080000
   8678   8688     1   0.10190 328360.320000
   8681   8682     1   0.09730 310787.520000
   8686   8687     1   0.09730 310787.520000
   8689   8690     1   0.10129 337397.760000
   8691   8692     1   0.10969 276646.080000
   8691   8694     1   0.10969 276646.080000
   8693   8695     1   0.10969 276646.080000
   8693   8696     1   0.10969 276646.080000
   8698   8707     1   0.10969 276646.080000
   8698   8708     1   0.10969 276646.080000
   8699   8700     1   0.10969 276646.080000
   8699   8702     1   0.10969 276646.080000
   8701   8703     1   0.10969 276646.080000
   8701   8704     1   0.10969 276646.080000
   8709   8710     1   0.10969 276646.080000
   8709   8711     1   0.10969 276646.080000
   8714   8716     1   0.10969 276646.080000
   8715   8734     1   0.10969 276646.080000
   8717   8721     1   0.10969 276646.080000
   8718   8720     1   0.10969 276646.080000
   8719   8722     1   0.10961 277566.560000
   8723   8733     1   0.09730 310787.520000
   8724   8726     1   0.09730 310787.520000
   8725   8728     1   0.10969 276646.080000
   8725   8729     1   0.10969 276646.080000
   8727   8737     1   0.10190 328360.320000
   8730   8731     1   0.09730 310787.520000
   8735   8736     1   0.09730 310787.520000
   8738   8740     1   0.10969 276646.080000
   8739   8758     1   0.10969 276646.080000
   8741   8745     1   0.10969 276646.080000
   8742   8744     1   0.10969 276646.080000
   8743   8746     1   0.10961 277566.560000
   8747   8757     1   0.09730 310787.520000
   8748   8750     1   0.09730 310787.520000
   8749   8752     1   0.10969 276646.080000
   8749   8753     1   0.10969 276646.080000
   8751   8761     1   0.10190 328360.320000
   8754   8755     1   0.09730 310787.520000
   8759   8760     1   0.09730 310787.520000
   8762   8763     1   0.10129 337397.760000
   8764   8765     1   0.10969 276646.080000
   8764   8767     1   0.10969 276646.080000
   8766   8768     1   0.10969 276646.080000
   8766   8769     1   0.10969 276646.080000
   8771   8780     1   0.10969 276646.080000
   8771   8781     1   0.10969 276646.080000
   8772   8773     1   0.10969 276646.080000
   8772   8775     1   0.10969 276646.080000
   8774   8776     1   0.10969 276646.080000
   8774   8777     1   0.10969 276646.080000
   8782   8783     1   0.10969 276646.080000
   8782   8784     1   0.10969 276646.080000
   8787   8789     1   0.10969 276646.080000
   8788   8807     1   0.10969 276646.080000
   8790   8794     1   0.10969 276646.080000
   8791   8793     1   0.10969 276646.080000
   8792   8795     1   0.10961 277566.560000
   8796   8806     1   0.09730 310787.520000
   8797   8799     1   0.09730 310787.520000
   8798   8801     1   0.10969 276646.080000
   8798   8802     1   0.10969 276646.080000
   8800   8810     1   0.10190 328360.320000
   8803   8804     1   0.09730 310787.520000
   8808   8809     1   0.09730 310787.520000
   8811   8813     1   0.10969 276646.080000
   8812   8831     1   0.10969 276646.080000
   8814   8818     1   0.10969 276646.080000
   8815   8817     1   0.10969 276646.080000
   8816   8819     1   0.10961 277566.560000
   8820   8830     1   0.09730 310787.520000
   8821   8823     1   0.09730 310787.520000
   8822   8825     1   0.10969 276646.080000
   8822   8826     1   0.10969 276646.080000
   8824   8834     1   0.10190 328360.320000
   8827   8828     1   0.09730 310787.520000
   8832   8833     1   0.09730 310787.520000
   8835   8836     1   0.10129 337397.760000
   8837   8838     1   0.10969 276646.080000
   8837   8840     1   0.10969 276646.080000
   8839   8841     1   0.10969 276646.080000
   8839   8842     1   0.10969 276646.080000
   8844   8853     1   0.10969 276646.080000
   8844   8854     1   0.10969 276646.080000
   8845   8846     1   0.10969 276646.080000
   8845   8848     1   0.10969 276646.080000
   8847   8849     1   0.10969 276646.080000
   8847   8850     1   0.10969 276646.080000
   8855   8856     1   0.10969 276646.080000
   8855   8857     1   0.10969 276646.080000
   8860   8862     1   0.10969 276646.080000
   8861   8880     1   0.10969 276646.080000
   8863   8867     1   0.10969 276646.080000
   8864   8866     1   0.10969 276646.080000
   8865   8868     1   0.10961 277566.560000
   8869   8879     1   0.09730 310787.520000
   8870   8872     1   0.09730 310787.520000
   8871   8874     1   0.10969 276646.080000
   8871   8875     1   0.10969 276646.080000
   8873   8883     1   0.10190 328360.320000
   8876   8877     1   0.09730 310787.520000
   8881   8882     1   0.09730 310787.520000
   8884   8886     1   0.10969 276646.080000
   8885   8904     1   0.10969 276646.080000
   8887   8891     1   0.10969 276646.080000
   8888   8890     1   0.10969 276646.080000
   8889   8892     1   0.10961 277566.560000
   8893   8903     1   0.09730 310787.520000
   8894   8896     1   0.09730 310787.520000
   8895   8898     1   0.10969 276646.080000
   8895   8899     1   0.10969 276646.080000
   8897   8907     1   0.10190 328360.320000
   8900   8901     1   0.09730 310787.520000
   8905   8906     1   0.09730 310787.520000
   8908   8909     1   0.10129 337397.760000
   8910   8911     1   0.10969 276646.080000
   8910   8913     1   0.10969 276646.080000
   8912   8914     1   0.10969 276646.080000
   8912   8915     1   0.10969 276646.080000
   8917   8926     1   0.10969 276646.080000
   8917   8927     1   0.10969 276646.080000
   8918   8919     1   0.10969 276646.080000
   8918   8921     1   0.10969 276646.080000
   8920   8922     1   0.10969 276646.080000
   8920   8923     1   0.10969 276646.080000
   8928   8929     1   0.10969 276646.080000
   8928   8930     1   0.10969 276646.080000
   8933   8935     1   0.10969 276646.080000
   8934   8953     1   0.10969 276646.080000
   8936   8940     1   0.10969 276646.080000
   8937   8939     1   0.10969 276646.080000
   8938   8941     1   0.10961 277566.560000
   8942   8952     1   0.09730 310787.520000
   8943   8945     1   0.09730 310787.520000
   8944   8947     1   0.10969 276646.080000
   8944   8948     1   0.10969 276646.080000
   8946   8956     1   0.10190 328360.320000
   8949   8950     1   0.09730 310787.520000
   8954   8955     1   0.09730 310787.520000
   8957   8959     1   0.10969 276646.080000
   8958   8977     1   0.10969 276646.080000
   8960   8964     1   0.10969 276646.080000
   8961   8963     1   0.10969 276646.080000
   8962   8965     1   0.10961 277566.560000
   8966   8976     1   0.09730 310787.520000
   8967   8969     1   0.09730 310787.520000
   8968   8971     1   0.10969 276646.080000
   8968   8972     1   0.10969 276646.080000
   8970   8980     1   0.10190 328360.320000
   8973   8974     1   0.09730 310787.520000
   8978   8979     1   0.09730 310787.520000
   8981   8982     1   0.10129 337397.760000
   8983   8984     1   0.10969 276646.080000
   8983   8986     1   0.10969 276646.080000
   8985   8987     1   0.10969 276646.080000
   8985   8988     1   0.10969 276646.080000
   8990   8999     1   0.10969 276646.080000
   8990   9000     1   0.10969 276646.080000
   8991   8992     1   0.10969 276646.080000
   8991   8994     1   0.10969 276646.080000
   8993   8995     1   0.10969 276646.080000
   8993   8996     1   0.10969 276646.080000
   9001   9002     1   0.10969 276646.080000
   9001   9003     1   0.10969 276646.080000
   9006   9008     1   0.10969 276646.080000
   9007   9026     1   0.10969 276646.080000
   9009   9013     1   0.10969 276646.080000
   9010   9012     1   0.10969 276646.080000
   9011   9014     1   0.10961 277566.560000
   9015   9025     1   0.09730 310787.520000
   9016   9018     1   0.09730 310787.520000
   9017   9020     1   0.10969 276646.080000
   9017   9021     1   0.10969 276646.080000
   9019   9029     1   0.10190 328360.320000
   9022   9023     1   0.09730 310787.520000
   9027   9028     1   0.09730 310787.520000
   9030   9032     1   0.10969 276646.080000
   9031   9050     1   0.10969 276646.080000
   9033   9037     1   0.10969 276646.080000
   9034   9036     1   0.10969 276646.080000
   9035   9038     1   0.10961 277566.560000
   9039   9049     1   0.09730 310787.520000
   9040   9042     1   0.09730 310787.520000
   9041   9044     1   0.10969 276646.080000
   9041   9045     1   0.10969 276646.080000
   9043   9053     1   0.10190 328360.320000
   9046   9047     1   0.09730 310787.520000
   9051   9052     1   0.09730 310787.520000
   9054   9055     1   0.10129 337397.760000
   9056   9057     1   0.10969 276646.080000
   9056   9059     1   0.10969 276646.080000
   9058   9060     1   0.10969 276646.080000
   9058   9061     1   0.10969 276646.080000
   9063   9072     1   0.10969 276646.080000
   9063   9073     1   0.10969 276646.080000
   9064   9065     1   0.10969 276646.080000
   9064   9067     1   0.10969 276646.080000
   9066   9068     1   0.10969 276646.080000
   9066   9069     1   0.10969 276646.080000
   9074   9075     1   0.10969 276646.080000
   9074   9076     1   0.10969 276646.080000
   9079   9081     1   0.10969 276646.080000
   9080   9099     1   0.10969 276646.080000
   9082   9086     1   0.10969 276646.080000
   9083   9085     1   0.10969 276646.080000
   9084   9087     1   0.10961 277566.560000
   9088   9098     1   0.09730 310787.520000
   9089   9091     1   0.09730 310787.520000
   9090   9093     1   0.10969 276646.080000
   9090   9094     1   0.10969 276646.080000
   9092   9102     1   0.10190 328360.320000
   9095   9096     1   0.09730 310787.520000
   9100   9101     1   0.09730 310787.520000
   9103   9105     1   0.10969 276646.080000
   9104   9123     1   0.10969 276646.080000
   9106   9110     1   0.10969 276646.080000
   9107   9109     1   0.10969 276646.080000
   9108   9111     1   0.10961 277566.560000
   9112   9122     1   0.09730 310787.520000
   9113   9115     1   0.09730 310787.520000
   9114   9117     1   0.10969 276646.080000
   9114   9118     1   0.10969 276646.080000
   9116   9126     1   0.10190 328360.320000
   9119   9120     1   0.09730 310787.520000
   9124   9125     1   0.09730 310787.520000
   9127   9128     1   0.10129 337397.760000
   9129   9130     1   0.10969 276646.080000
   9129   9132     1   0.10969 276646.080000
   9131   9133     1   0.10969 276646.080000
   9131   9134     1   0.10969 276646.080000
   9136   9145     1   0.10969 276646.080000
   9136   9146     1   0.10969 276646.080000
   9137   9138     1   0.10969 276646.080000
   9137   9140     1   0.10969 276646.080000
   9139   9141     1   0.10969 276646.080000
   9139   9142     1   0.10969 276646.080000
   9147   9148     1   0.10969 276646.080000
   9147   9149     1   0.10969 276646.080000
   9152   9154     1   0.10969 276646.080000
   9153   9172     1   0.10969 276646.080000
   9155   9159     1   0.10969 276646.080000
   9156   9158     1   0.10969 276646.080000
   9157   9160     1   0.10961 277566.560000
   9161   9171     1   0.09730 310787.520000
   9162   9164     1   0.09730 310787.520000
   9163   9166     1   0.10969 276646.080000
   9163   9167     1   0.10969 276646.080000
   9165   9175     1   0.10190 328360.320000
   9168   9169     1   0.09730 310787.520000
   9173   9174     1   0.09730 310787.520000
   9176   9178     1   0.10969 276646.080000
   9177   9196     1   0.10969 276646.080000
   9179   9183     1   0.10969 276646.080000
   9180   9182     1   0.10969 276646.080000
   9181   9184     1   0.10961 277566.560000
   9185   9195     1   0.09730 310787.520000
   9186   9188     1   0.09730 310787.520000
   9187   9190     1   0.10969 276646.080000
   9187   9191     1   0.10969 276646.080000
   9189   9199     1   0.10190 328360.320000
   9192   9193     1   0.09730 310787.520000
   9197   9198     1   0.09730 310787.520000
   9200   9201     1   0.10129 337397.760000
   9202   9203     1   0.10969 276646.080000
   9202   9205     1   0.10969 276646.080000
   9204   9206     1   0.10969 276646.080000
   9204   9207     1   0.10969 276646.080000
   9209   9218     1   0.10969 276646.080000
   9209   9219     1   0.10969 276646.080000
   9210   9211     1   0.10969 276646.080000
   9210   9213     1   0.10969 276646.080000
   9212   9214     1   0.10969 276646.080000
   9212   9215     1   0.10969 276646.080000
   9220   9221     1   0.10969 276646.080000
   9220   9222     1   0.10969 276646.080000
   9225   9227     1   0.10969 276646.080000
   9226   9245     1   0.10969 276646.080000
   9228   9232     1   0.10969 276646.080000
   9229   9231     1   0.10969 276646.080000
   9230   9233     1   0.10961 277566.560000
   9234   9244     1   0.09730 310787.520000
   9235   9237     1   0.09730 310787.520000
   9236   9239     1   0.10969 276646.080000
   9236   9240     1   0.10969 276646.080000
   9238   9248     1   0.10190 328360.320000
   9241   9242     1   0.09730 310787.520000
   9246   9247     1   0.09730 310787.520000
   9249   9251     1   0.10969 276646.080000
   9250   9269     1   0.10969 276646.080000
   9252   9256     1   0.10969 276646.080000
   9253   9255     1   0.10969 276646.080000
   9254   9257     1   0.10961 277566.560000
   9258   9268     1   0.09730 310787.520000
   9259   9261     1   0.09730 310787.520000
   9260   9263     1   0.10969 276646.080000
   9260   9264     1   0.10969 276646.080000
   9262   9272     1   0.10190 328360.320000
   9265   9266     1   0.09730 310787.520000
   9270   9271     1   0.09730 310787.520000
   9273   9274     1   0.10129 337397.760000
   9275   9276     1   0.10969 276646.080000
   9275   9278     1   0.10969 276646.080000
   9277   9279     1   0.10969 276646.080000
   9277   9280     1   0.10969 276646.080000
   9282   9291     1   0.10969 276646.080000
   9282   9292     1   0.10969 276646.080000
   9283   9284     1   0.10969 276646.080000
   9283   9286     1   0.10969 276646.080000
   9285   9287     1   0.10969 276646.080000
   9285   9288     1   0.10969 276646.080000
   9293   9294     1   0.10969 276646.080000
   9293   9295     1   0.10969 276646.080000
   9298   9300     1   0.10969 276646.080000
   9299   9318     1   0.10969 276646.080000
   9301   9305     1   0.10969 276646.080000
   9302   9304     1   0.10969 276646.080000
   9303   9306     1   0.10961 277566.560000
   9307   9317     1   0.09730 310787.520000
   9308   9310     1   0.09730 310787.520000
   9309   9312     1   0.10969 276646.080000
   9309   9313     1   0.10969 276646.080000
   9311   9321     1   0.10190 328360.320000
   9314   9315     1   0.09730 310787.520000
   9319   9320     1   0.09730 310787.520000
   9322   9324     1   0.10969 276646.080000
   9323   9342     1   0.10969 276646.080000
   9325   9329     1   0.10969 276646.080000
   9326   9328     1   0.10969 276646.080000
   9327   9330     1   0.10961 277566.560000
   9331   9341     1   0.09730 310787.520000
   9332   9334     1   0.09730 310787.520000
   9333   9336     1   0.10969 276646.080000
   9333   9337     1   0.10969 276646.080000
   9335   9345     1   0.10190 328360.320000
   9338   9339     1   0.09730 310787.520000
   9343   9344     1   0.09730 310787.520000
   9346   9347     1   0.10129 337397.760000
   9348   9349     1   0.10969 276646.080000
   9348   9351     1   0.10969 276646.080000
   9350   9352     1   0.10969 276646.080000
   9350   9353     1   0.10969 276646.080000
   9355   9364     1   0.10969 276646.080000
   9355   9365     1   0.10969 276646.080000
   9356   9357     1   0.10969 276646.080000
   9356   9359     1   0.10969 276646.080000
   9358   9360     1   0.10969 276646.080000
   9358   9361     1   0.10969 276646.080000
   9366   9367     1   0.10969 276646.080000
   9366   9368     1   0.10969 276646.080000
   9371   9373     1   0.10969 276646.080000
   9372   9391     1   0.10969 276646.080000
   9374   9378     1   0.10969 276646.080000
   9375   9377     1   0.10969 276646.080000
   9376   9379     1   0.10961 277566.560000
   9380   9390     1   0.09730 310787.520000
   9381   9383     1   0.09730 310787.520000
   9382   9385     1   0.10969 276646.080000
   9382   9386     1   0.10969 276646.080000
   9384   9394     1   0.10190 328360.320000
   9387   9388     1   0.09730 310787.520000
   9392   9393     1   0.09730 310787.520000
   9395   9397     1   0.10969 276646.080000
   9396   9415     1   0.10969 276646.080000
   9398   9402     1   0.10969 276646.080000
   9399   9401     1   0.10969 276646.080000
   9400   9403     1   0.10961 277566.560000
   9404   9414     1   0.09730 310787.520000
   9405   9407     1   0.09730 310787.520000
   9406   9409     1   0.10969 276646.080000
   9406   9410     1   0.10969 276646.080000
   9408   9418     1   0.10190 328360.320000
   9411   9412     1   0.09730 310787.520000
   9416   9417     1   0.09730 310787.520000
   9419   9420     1   0.10129 337397.760000
   9421   9422     1   0.10969 276646.080000
   9421   9424     1   0.10969 276646.080000
   9423   9425     1   0.10969 276646.080000
   9423   9426     1   0.10969 276646.080000
   9428   9437     1   0.10969 276646.080000
   9428   9438     1   0.10969 276646.080000
   9429   9430     1   0.10969 276646.080000
   9429   9432     1   0.10969 276646.080000
   9431   9433     1   0.10969 276646.080000
   9431   9434     1   0.10969 276646.080000
   9439   9440     1   0.10969 276646.080000
   9439   9441     1   0.10969 276646.080000
   9444   9446     1   0.10969 276646.080000
   9445   9464     1   0.10969 276646.080000
   9447   9451     1   0.10969 276646.080000
   9448   9450     1   0.10969 276646.080000
   9449   9452     1   0.10961 277566.560000
   9453   9463     1   0.09730 310787.520000
   9454   9456     1   0.09730 310787.520000
   9455   9458     1   0.10969 276646.080000
   9455   9459     1   0.10969 276646.080000
   9457   9467     1   0.10190 328360.320000
   9460   9461     1   0.09730 310787.520000
   9465   9466     1   0.09730 310787.520000
   9468   9470     1   0.10969 276646.080000
   9469   9488     1   0.10969 276646.080000
   9471   9475     1   0.10969 276646.080000
   9472   9474     1   0.10969 276646.080000
   9473   9476     1   0.10961 277566.560000
   9477   9487     1   0.09730 310787.520000
   9478   9480     1   0.09730 310787.520000
   9479   9482     1   0.10969 276646.080000
   9479   9483     1   0.10969 276646.080000
   9481   9491     1   0.10190 328360.320000
   9484   9485     1   0.09730 310787.520000
   9489   9490     1   0.09730 310787.520000
   9492   9493     1   0.10129 337397.760000
   9494   9495     1   0.10969 276646.080000
   9494   9497     1   0.10969 276646.080000
   9496   9498     1   0.10969 276646.080000
   9496   9499     1   0.10969 276646.080000
   9501   9510     1   0.10969 276646.080000
   9501   9511     1   0.10969 276646.080000
   9502   9503     1   0.10969 276646.080000
   9502   9505     1   0.10969 276646.080000
   9504   9506     1   0.10969 276646.080000
   9504   9507     1   0.10969 276646.080000
   9512   9513     1   0.10969 276646.080000
   9512   9514     1   0.10969 276646.080000
   9517   9519     1   0.10969 276646.080000
   9518   9537     1   0.10969 276646.080000
   9520   9524     1   0.10969 276646.080000
   9521   9523     1   0.10969 276646.080000
   9522   9525     1   0.10961 277566.560000
   9526   9536     1   0.09730 310787.520000
   9527   9529     1   0.09730 310787.520000
   9528   9531     1   0.10969 276646.080000
   9528   9532     1   0.10969 276646.080000
   9530   9540     1   0.10190 328360.320000
   9533   9534     1   0.09730 310787.520000
   9538   9539     1   0.09730 310787.520000
   9541   9543     1   0.10969 276646.080000
   9542   9561     1   0.10969 276646.080000
   9544   9548     1   0.10969 276646.080000
   9545   9547     1   0.10969 276646.080000
   9546   9549     1   0.10961 277566.560000
   9550   9560     1   0.09730 310787.520000
   9551   9553     1   0.09730 310787.520000
   9552   9555     1   0.10969 276646.080000
   9552   9556     1   0.10969 276646.080000
   9554   9564     1   0.10190 328360.320000
   9557   9558     1   0.09730 310787.520000
   9562   9563     1   0.09730 310787.520000
   9565   9566     1   0.10129 337397.760000
   9567   9568     1   0.10969 276646.080000
   9567   9570     1   0.10969 276646.080000
   9569   9571     1   0.10969 276646.080000
   9569   9572     1   0.10969 276646.080000
   9574   9583     1   0.10969 276646.080000
   9574   9584     1   0.10969 276646.080000
   9575   9576     1   0.10969 276646.080000
   9575   9578     1   0.10969 276646.080000
   9577   9579     1   0.10969 276646.080000
   9577   9580     1   0.10969 276646.080000
   9585   9586     1   0.10969 276646.080000
   9585   9587     1   0.10969 276646.080000
   9590   9592     1   0.10969 276646.080000
   9591   9610     1   0.10969 276646.080000
   9593   9597     1   0.10969 276646.080000
   9594   9596     1   0.10969 276646.080000
   9595   9598     1   0.10961 277566.560000
   9599   9609     1   0.09730 310787.520000
   9600   9602     1   0.09730 310787.520000
   9601   9604     1   0.10969 276646.080000
   9601   9605     1   0.10969 276646.080000
   9603   9613     1   0.10190 328360.320000
   9606   9607     1   0.09730 310787.520000
   9611   9612     1   0.09730 310787.520000
   9614   9616     1   0.10969 276646.080000
   9615   9634     1   0.10969 276646.080000
   9617   9621     1   0.10969 276646.080000
   9618   9620     1   0.10969 276646.080000
   9619   9622     1   0.10961 277566.560000
   9623   9633     1   0.09730 310787.520000
   9624   9626     1   0.09730 310787.520000
   9625   9628     1   0.10969 276646.080000
   9625   9629     1   0.10969 276646.080000
   9627   9637     1   0.10190 328360.320000
   9630   9631     1   0.09730 310787.520000
   9635   9636     1   0.09730 310787.520000
   9638   9639     1   0.10129 337397.760000
   9640   9641     1   0.10969 276646.080000
   9640   9643     1   0.10969 276646.080000
   9642   9644     1   0.10969 276646.080000
   9642   9645     1   0.10969 276646.080000
   9647   9656     1   0.10969 276646.080000
   9647   9657     1   0.10969 276646.080000
   9648   9649     1   0.10969 276646.080000
   9648   9651     1   0.10969 276646.080000
   9650   9652     1   0.10969 276646.080000
   9650   9653     1   0.10969 276646.080000
   9658   9659     1   0.10969 276646.080000
   9658   9660     1   0.10969 276646.080000
   9663   9665     1   0.10969 276646.080000
   9664   9683     1   0.10969 276646.080000
   9666   9670     1   0.10969 276646.080000
   9667   9669     1   0.10969 276646.080000
   9668   9671     1   0.10961 277566.560000
   9672   9682     1   0.09730 310787.520000
   9673   9675     1   0.09730 310787.520000
   9674   9677     1   0.10969 276646.080000
   9674   9678     1   0.10969 276646.080000
   9676   9686     1   0.10190 328360.320000
   9679   9680     1   0.09730 310787.520000
   9684   9685     1   0.09730 310787.520000
   9687   9689     1   0.10969 276646.080000
   9688   9707     1   0.10969 276646.080000
   9690   9694     1   0.10969 276646.080000
   9691   9693     1   0.10969 276646.080000
   9692   9695     1   0.10961 277566.560000
   9696   9706     1   0.09730 310787.520000
   9697   9699     1   0.09730 310787.520000
   9698   9701     1   0.10969 276646.080000
   9698   9702     1   0.10969 276646.080000
   9700   9710     1   0.10190 328360.320000
   9703   9704     1   0.09730 310787.520000
   9708   9709     1   0.09730 310787.520000
   9711   9712     1   0.10129 337397.760000
   9713   9714     1   0.10969 276646.080000
   9713   9716     1   0.10969 276646.080000
   9715   9717     1   0.10969 276646.080000
   9715   9718     1   0.10969 276646.080000
   9720   9729     1   0.10969 276646.080000
   9720   9730     1   0.10969 276646.080000
   9721   9722     1   0.10969 276646.080000
   9721   9724     1   0.10969 276646.080000
   9723   9725     1   0.10969 276646.080000
   9723   9726     1   0.10969 276646.080000
   9731   9732     1   0.10969 276646.080000
   9731   9733     1   0.10969 276646.080000
   9736   9738     1   0.10969 276646.080000
   9737   9756     1   0.10969 276646.080000
   9739   9743     1   0.10969 276646.080000
   9740   9742     1   0.10969 276646.080000
   9741   9744     1   0.10961 277566.560000
   9745   9755     1   0.09730 310787.520000
   9746   9748     1   0.09730 310787.520000
   9747   9750     1   0.10969 276646.080000
   9747   9751     1   0.10969 276646.080000
   9749   9759     1   0.10190 328360.320000
   9752   9753     1   0.09730 310787.520000
   9757   9758     1   0.09730 310787.520000
   9760   9762     1   0.10969 276646.080000
   9761   9780     1   0.10969 276646.080000
   9763   9767     1   0.10969 276646.080000
   9764   9766     1   0.10969 276646.080000
   9765   9768     1   0.10961 277566.560000
   9769   9779     1   0.09730 310787.520000
   9770   9772     1   0.09730 310787.520000
   9771   9774     1   0.10969 276646.080000
   9771   9775     1   0.10969 276646.080000
   9773   9783     1   0.10190 328360.320000
   9776   9777     1   0.09730 310787.520000
   9781   9782     1   0.09730 310787.520000
   9784   9785     1   0.10129 337397.760000
   9786   9787     1   0.10969 276646.080000
   9786   9789     1   0.10969 276646.080000
   9788   9790     1   0.10969 276646.080000
   9788   9791     1   0.10969 276646.080000
   9793   9802     1   0.10969 276646.080000
   9793   9803     1   0.10969 276646.080000
   9794   9795     1   0.10969 276646.080000
   9794   9797     1   0.10969 276646.080000
   9796   9798     1   0.10969 276646.080000
   9796   9799     1   0.10969 276646.080000
   9804   9805     1   0.10969 276646.080000
   9804   9806     1   0.10969 276646.080000
   9809   9811     1   0.10969 276646.080000
   9810   9829     1   0.10969 276646.080000
   9812   9816     1   0.10969 276646.080000
   9813   9815     1   0.10969 276646.080000
   9814   9817     1   0.10961 277566.560000
   9818   9828     1   0.09730 310787.520000
   9819   9821     1   0.09730 310787.520000
   9820   9823     1   0.10969 276646.080000
   9820   9824     1   0.10969 276646.080000
   9822   9832     1   0.10190 328360.320000
   9825   9826     1   0.09730 310787.520000
   9830   9831     1   0.09730 310787.520000
   9833   9835     1   0.10969 276646.080000
   9834   9853     1   0.10969 276646.080000
   9836   9840     1   0.10969 276646.080000
   9837   9839     1   0.10969 276646.080000
   9838   9841     1   0.10961 277566.560000
   9842   9852     1   0.09730 310787.520000
   9843   9845     1   0.09730 310787.520000
   9844   9847     1   0.10969 276646.080000
   9844   9848     1   0.10969 276646.080000
   9846   9856     1   0.10190 328360.320000
   9849   9850     1   0.09730 310787.520000
   9854   9855     1   0.09730 310787.520000
   9857   9858     1   0.10129 337397.760000
   9859   9860     1   0.10969 276646.080000
   9859   9862     1   0.10969 276646.080000
   9861   9863     1   0.10969 276646.080000
   9861   9864     1   0.10969 276646.080000
   9866   9875     1   0.10969 276646.080000
   9866   9876     1   0.10969 276646.080000
   9867   9868     1   0.10969 276646.080000
   9867   9870     1   0.10969 276646.080000
   9869   9871     1   0.10969 276646.080000
   9869   9872     1   0.10969 276646.080000
   9877   9878     1   0.10969 276646.080000
   9877   9879     1   0.10969 276646.080000
   9882   9884     1   0.10969 276646.080000
   9883   9902     1   0.10969 276646.080000
   9885   9889     1   0.10969 276646.080000
   9886   9888     1   0.10969 276646.080000
   9887   9890     1   0.10961 277566.560000
   9891   9901     1   0.09730 310787.520000
   9892   9894     1   0.09730 310787.520000
   9893   9896     1   0.10969 276646.080000
   9893   9897     1   0.10969 276646.080000
   9895   9905     1   0.10190 328360.320000
   9898   9899     1   0.09730 310787.520000
   9903   9904     1   0.09730 310787.520000
   9906   9908     1   0.10969 276646.080000
   9907   9926     1   0.10969 276646.080000
   9909   9913     1   0.10969 276646.080000
   9910   9912     1   0.10969 276646.080000
   9911   9914     1   0.10961 277566.560000
   9915   9925     1   0.09730 310787.520000
   9916   9918     1   0.09730 310787.520000
   9917   9920     1   0.10969 276646.080000
   9917   9921     1   0.10969 276646.080000
   9919   9929     1   0.10190 328360.320000
   9922   9923     1   0.09730 310787.520000
   9927   9928     1   0.09730 310787.520000
   9930   9931     1   0.10129 337397.760000
   9932   9933     1   0.10969 276646.080000
   9932   9935     1   0.10969 276646.080000
   9934   9936     1   0.10969 276646.080000
   9934   9937     1   0.10969 276646.080000
   9939   9948     1   0.10969 276646.080000
   9939   9949     1   0.10969 276646.080000
   9940   9941     1   0.10969 276646.080000
   9940   9943     1   0.10969 276646.080000
   9942   9944     1   0.10969 276646.080000
   9942   9945     1   0.10969 276646.080000
   9950   9951     1   0.10969 276646.080000
   9950   9952     1   0.10969 276646.080000
   9955   9957     1   0.10969 276646.080000
   9956   9975     1   0.10969 276646.080000
   9958   9962     1   0.10969 276646.080000
   9959   9961     1   0.10969 276646.080000
   9960   9963     1   0.10961 277566.560000
   9964   9974     1   0.09730 310787.520000
   9965   9967     1   0.09730 310787.520000
   9966   9969     1   0.10969 276646.080000
   9966   9970     1   0.10969 276646.080000
   9968   9978     1   0.10190 328360.320000
   9971   9972     1   0.09730 310787.520000
   9976   9977     1   0.09730 310787.520000
   9979   9981     1   0.10969 276646.080000
   9980   9999     1   0.10969 276646.080000
   9982   9986     1   0.10969 276646.080000
   9983   9985     1   0.10969 276646.080000
   9984   9987     1   0.10961 277566.560000
   9988   9998     1   0.09730 310787.520000
   9989   9991     1   0.09730 310787.520000
   9990   9993     1   0.10969 276646.080000
   9990   9994     1   0.10969 276646.080000
   9992  10002     1   0.10190 328360.320000
   9995   9996     1   0.09730 310787.520000
  10000  10001     1   0.09730 310787.520000
  10003  10004     1   0.10129 337397.760000
  10005  10006     1   0.10969 276646.080000
  10005  10008     1   0.10969 276646.080000
  10007  10009     1   0.10969 276646.080000
  10007  10010     1   0.10969 276646.080000
  10012  10021     1   0.10969 276646.080000
  10012  10022     1   0.10969 276646.080000
  10013  10014     1   0.10969 276646.080000
  10013  10016     1   0.10969 276646.080000
  10015  10017     1   0.10969 276646.080000
  10015  10018     1   0.10969 276646.080000
  10023  10024     1   0.10969 276646.080000
  10023  10025     1   0.10969 276646.080000
  10028  10030     1   0.10969 276646.080000
  10029  10048     1   0.10969 276646.080000
  10031  10035     1   0.10969 276646.080000
  10032  10034     1   0.10969 276646.080000
  10033  10036     1   0.10961 277566.560000
  10037  10047     1   0.09730 310787.520000
  10038  10040     1   0.09730 310787.520000
  10039  10042     1   0.10969 276646.080000
  10039  10043     1   0.10969 276646.080000
  10041  10051     1   0.10190 328360.320000
  10044  10045     1   0.09730 310787.520000
  10049  10050     1   0.09730 310787.520000
  10052  10054     1   0.10969 276646.080000
  10053  10072     1   0.10969 276646.080000
  10055  10059     1   0.10969 276646.080000
  10056  10058     1   0.10969 276646.080000
  10057  10060     1   0.10961 277566.560000
  10061  10071     1   0.09730 310787.520000
  10062  10064     1   0.09730 310787.520000
  10063  10066     1   0.10969 276646.080000
  10063  10067     1   0.10969 276646.080000
  10065  10075     1   0.10190 328360.320000
  10068  10069     1   0.09730 310787.520000
  10073  10074     1   0.09730 310787.520000
  10076  10077     1   0.10129 337397.760000
  10078  10079     1   0.10969 276646.080000
  10078  10081     1   0.10969 276646.080000
  10080  10082     1   0.10969 276646.080000
  10080  10083     1   0.10969 276646.080000
  10085  10094     1   0.10969 276646.080000
  10085  10095     1   0.10969 276646.080000
  10086  10087     1   0.10969 276646.080000
  10086  10089     1   0.10969 276646.080000
  10088  10090     1   0.10969 276646.080000
  10088  10091     1   0.10969 276646.080000
  10096  10097     1   0.10969 276646.080000
  10096  10098     1   0.10969 276646.080000
  10101  10103     1   0.10969 276646.080000
  10102  10121     1   0.10969 276646.080000
  10104  10108     1   0.10969 276646.080000
  10105  10107     1   0.10969 276646.080000
  10106  10109     1   0.10961 277566.560000
  10110  10120     1   0.09730 310787.520000
  10111  10113     1   0.09730 310787.520000
  10112  10115     1   0.10969 276646.080000
  10112  10116     1   0.10969 276646.080000
  10114  10124     1   0.10190 328360.320000
  10117  10118     1   0.09730 310787.520000
  10122  10123     1   0.09730 310787.520000
  10125  10127     1   0.10969 276646.080000
  10126  10145     1   0.10969 276646.080000
  10128  10132     1   0.10969 276646.080000
  10129  10131     1   0.10969 276646.080000
  10130  10133     1   0.10961 277566.560000
  10134  10144     1   0.09730 310787.520000
  10135  10137     1   0.09730 310787.520000
  10136  10139     1   0.10969 276646.080000
  10136  10140     1   0.10969 276646.080000
  10138  10148     1   0.10190 328360.320000
  10141  10142     1   0.09730 310787.520000
  10146  10147     1   0.09730 310787.520000
  10149  10150     1   0.10129 337397.760000
  10151  10152     1   0.10969 276646.080000
  10151  10154     1   0.10969 276646.080000
  10153  10155     1   0.10969 276646.080000
  10153  10156     1   0.10969 276646.080000
  10158  10167     1   0.10969 276646.080000
  10158  10168     1   0.10969 276646.080000
  10159  10160     1   0.10969 276646.080000
  10159  10162     1   0.10969 276646.080000
  10161  10163     1   0.10969 276646.080000
  10161  10164     1   0.10969 276646.080000
  10169  10170     1   0.10969 276646.080000
  10169  10171     1   0.10969 276646.080000
  10174  10176     1   0.10969 276646.080000
  10175  10194     1   0.10969 276646.080000
  10177  10181     1   0.10969 276646.080000
  10178  10180     1   0.10969 276646.080000
  10179  10182     1   0.10961 277566.560000
  10183  10193     1   0.09730 310787.520000
  10184  10186     1   0.09730 310787.520000
  10185  10188     1   0.10969 276646.080000
  10185  10189     1   0.10969 276646.080000
  10187  10197     1   0.10190 328360.320000
  10190  10191     1   0.09730 310787.520000
  10195  10196     1   0.09730 310787.520000
  10198  10200     1   0.10969 276646.080000
  10199  10218     1   0.10969 276646.080000
  10201  10205     1   0.10969 276646.080000
  10202  10204     1   0.10969 276646.080000
  10203  10206     1   0.10961 277566.560000
  10207  10217     1   0.09730 310787.520000
  10208  10210     1   0.09730 310787.520000
  10209  10212     1   0.10969 276646.080000
  10209  10213     1   0.10969 276646.080000
  10211  10221     1   0.10190 328360.320000
  10214  10215     1   0.09730 310787.520000
  10219  10220     1   0.09730 310787.520000
  10222  10223     1   0.10129 337397.760000
  10224  10225     1   0.10969 276646.080000
  10224  10227     1   0.10969 276646.080000
  10226  10228     1   0.10969 276646.080000
  10226  10229     1   0.10969 276646.080000
  10231  10240     1   0.10969 276646.080000
  10231  10241     1   0.10969 276646.080000
  10232  10233     1   0.10969 276646.080000
  10232  10235     1   0.10969 276646.080000
  10234  10236     1   0.10969 276646.080000
  10234  10237     1   0.10969 276646.080000
  10242  10243     1   0.10969 276646.080000
  10242  10244     1   0.10969 276646.080000
  10247  10249     1   0.10969 276646.080000
  10248  10267     1   0.10969 276646.080000
  10250  10254     1   0.10969 276646.080000
  10251  10253     1   0.10969 276646.080000
  10252  10255     1   0.10961 277566.560000
  10256  10266     1   0.09730 310787.520000
  10257  10259     1   0.09730 310787.520000
  10258  10261     1   0.10969 276646.080000
  10258  10262     1   0.10969 276646.080000
  10260  10270     1   0.10190 328360.320000
  10263  10264     1   0.09730 310787.520000
  10268  10269     1   0.09730 310787.520000
  10271  10273     1   0.10969 276646.080000
  10272  10291     1   0.10969 276646.080000
  10274  10278     1   0.10969 276646.080000
  10275  10277     1   0.10969 276646.080000
  10276  10279     1   0.10961 277566.560000
  10280  10290     1   0.09730 310787.520000
  10281  10283     1   0.09730 310787.520000
  10282  10285     1   0.10969 276646.080000
  10282  10286     1   0.10969 276646.080000
  10284  10294     1   0.10190 328360.320000
  10287  10288     1   0.09730 310787.520000
  10292  10293     1   0.09730 310787.520000
  10295  10296     1   0.10129 337397.760000
  10297  10298     1   0.10969 276646.080000
  10297  10300     1   0.10969 276646.080000
  10299  10301     1   0.10969 276646.080000
  10299  10302     1   0.10969 276646.080000
  10304  10313     1   0.10969 276646.080000
  10304  10314     1   0.10969 276646.080000
  10305  10306     1   0.10969 276646.080000
  10305  10308     1   0.10969 276646.080000
  10307  10309     1   0.10969 276646.080000
  10307  10310     1   0.10969 276646.080000
  10315  10316     1   0.10969 276646.080000
  10315  10317     1   0.10969 276646.080000
  10320  10322     1   0.10969 276646.080000
  10321  10340     1   0.10969 276646.080000
  10323  10327     1   0.10969 276646.080000
  10324  10326     1   0.10969 276646.080000
  10325  10328     1   0.10961 277566.560000
  10329  10339     1   0.09730 310787.520000
  10330  10332     1   0.09730 310787.520000
  10331  10334     1   0.10969 276646.080000
  10331  10335     1   0.10969 276646.080000
  10333  10343     1   0.10190 328360.320000
  10336  10337     1   0.09730 310787.520000
  10341  10342     1   0.09730 310787.520000
  10344  10346     1   0.10969 276646.080000
  10345  10364     1   0.10969 276646.080000
  10347  10351     1   0.10969 276646.080000
  10348  10350     1   0.10969 276646.080000
  10349  10352     1   0.10961 277566.560000
  10353  10363     1   0.09730 310787.520000
  10354  10356     1   0.09730 310787.520000
  10355  10358     1   0.10969 276646.080000
  10355  10359     1   0.10969 276646.080000
  10357  10367     1   0.10190 328360.320000
  10360  10361     1   0.09730 310787.520000
  10365  10366     1   0.09730 310787.520000
  10368  10369     1   0.10129 337397.760000
  10370  10371     1   0.10969 276646.080000
  10370  10373     1   0.10969 276646.080000
  10372  10374     1   0.10969 276646.080000
  10372  10375     1   0.10969 276646.080000
  10377  10386     1   0.10969 276646.080000
  10377  10387     1   0.10969 276646.080000
  10378  10379     1   0.10969 276646.080000
  10378  10381     1   0.10969 276646.080000
  10380  10382     1   0.10969 276646.080000
  10380  10383     1   0.10969 276646.080000
  10388  10389     1   0.10969 276646.080000
  10388  10390     1   0.10969 276646.080000
  10393  10395     1   0.10969 276646.080000
  10394  10413     1   0.10969 276646.080000
  10396  10400     1   0.10969 276646.080000
  10397  10399     1   0.10969 276646.080000
  10398  10401     1   0.10961 277566.560000
  10402  10412     1   0.09730 310787.520000
  10403  10405     1   0.09730 310787.520000
  10404  10407     1   0.10969 276646.080000
  10404  10408     1   0.10969 276646.080000
  10406  10416     1   0.10190 328360.320000
  10409  10410     1   0.09730 310787.520000
  10414  10415     1   0.09730 310787.520000
  10417  10419     1   0.10969 276646.080000
  10418  10437     1   0.10969 276646.080000
  10420  10424     1   0.10969 276646.080000
  10421  10423     1   0.10969 276646.080000
  10422  10425     1   0.10961 277566.560000
  10426  10436     1   0.09730 310787.520000
  10427  10429     1   0.09730 310787.520000
  10428  10431     1   0.10969 276646.080000
  10428  10432     1   0.10969 276646.080000
  10430  10440     1   0.10190 328360.320000
  10433  10434     1   0.09730 310787.520000
  10438  10439     1   0.09730 310787.520000
  10441  10442     1   0.10129 337397.760000
  10443  10444     1   0.10969 276646.080000
  10443  10446     1   0.10969 276646.080000
  10445  10447     1   0.10969 276646.080000
  10445  10448     1   0.10969 276646.080000
  10450  10459     1   0.10969 276646.080000
  10450  10460     1   0.10969 276646.080000
  10451  10452     1   0.10969 276646.080000
  10451  10454     1   0.10969 276646.080000
  10453  10455     1   0.10969 276646.080000
  10453  10456     1   0.10969 276646.080000
  10461  10462     1   0.10969 276646.080000
  10461  10463     1   0.10969 276646.080000
  10466  10468     1   0.10969 276646.080000
  10467  10486     1   0.10969 276646.080000
  10469  10473     1   0.10969 276646.080000
  10470  10472     1   0.10969 276646.080000
  10471  10474     1   0.10961 277566.560000
  10475  10485     1   0.09730 310787.520000
  10476  10478     1   0.09730 310787.520000
  10477  10480     1   0.10969 276646.080000
  10477  10481     1   0.10969 276646.080000
  10479  10489     1   0.10190 328360.320000
  10482  10483     1   0.09730 310787.520000
  10487  10488     1   0.09730 310787.520000
  10490  10492     1   0.10969 276646.080000
  10491  10510     1   0.10969 276646.080000
  10493  10497     1   0.10969 276646.080000
  10494  10496     1   0.10969 276646.080000
  10495  10498     1   0.10961 277566.560000
  10499  10509     1   0.09730 310787.520000
  10500  10502     1   0.09730 310787.520000
  10501  10504     1   0.10969 276646.080000
  10501  10505     1   0.10969 276646.080000
  10503  10513     1   0.10190 328360.320000
  10506  10507     1   0.09730 310787.520000
  10511  10512     1   0.09730 310787.520000
  10514  10515     1   0.10129 337397.760000
  10516  10517     1   0.10969 276646.080000
  10516  10519     1   0.10969 276646.080000
  10518  10520     1   0.10969 276646.080000
  10518  10521     1   0.10969 276646.080000
  10523  10532     1   0.10969 276646.080000
  10523  10533     1   0.10969 276646.080000
  10524  10525     1   0.10969 276646.080000
  10524  10527     1   0.10969 276646.080000
  10526  10528     1   0.10969 276646.080000
  10526  10529     1   0.10969 276646.080000
  10534  10535     1   0.10969 276646.080000
  10534  10536     1   0.10969 276646.080000
  10539  10541     1   0.10969 276646.080000
  10540  10559     1   0.10969 276646.080000
  10542  10546     1   0.10969 276646.080000
  10543  10545     1   0.10969 276646.080000
  10544  10547     1   0.10961 277566.560000
  10548  10558     1   0.09730 310787.520000
  10549  10551     1   0.09730 310787.520000
  10550  10553     1   0.10969 276646.080000
  10550  10554     1   0.10969 276646.080000
  10552  10562     1   0.10190 328360.320000
  10555  10556     1   0.09730 310787.520000
  10560  10561     1   0.09730 310787.520000
  10563  10565     1   0.10969 276646.080000
  10564  10583     1   0.10969 276646.080000
  10566  10570     1   0.10969 276646.080000
  10567  10569     1   0.10969 276646.080000
  10568  10571     1   0.10961 277566.560000
  10572  10582     1   0.09730 310787.520000
  10573  10575     1   0.09730 310787.520000
  10574  10577     1   0.10969 276646.080000
  10574  10578     1   0.10969 276646.080000
  10576  10586     1   0.10190 328360.320000
  10579  10580     1   0.09730 310787.520000
  10584  10585     1   0.09730 310787.520000
  10587  10588     1   0.10129 337397.760000
  10589  10590     1   0.10969 276646.080000
  10589  10592     1   0.10969 276646.080000
  10591  10593     1   0.10969 276646.080000
  10591  10594     1   0.10969 276646.080000
  10596  10605     1   0.10969 276646.080000
  10596  10606     1   0.10969 276646.080000
  10597  10598     1   0.10969 276646.080000
  10597  10600     1   0.10969 276646.080000
  10599  10601     1   0.10969 276646.080000
  10599  10602     1   0.10969 276646.080000
  10607  10608     1   0.10969 276646.080000
  10607  10609     1   0.10969 276646.080000
  10612  10614     1   0.10969 276646.080000
  10613  10632     1   0.10969 276646.080000
  10615  10619     1   0.10969 276646.080000
  10616  10618     1   0.10969 276646.080000
  10617  10620     1   0.10961 277566.560000
  10621  10631     1   0.09730 310787.520000
  10622  10624     1   0.09730 310787.520000
  10623  10626     1   0.10969 276646.080000
  10623  10627     1   0.10969 276646.080000
  10625  10635     1   0.10190 328360.320000
  10628  10629     1   0.09730 310787.520000
  10633  10634     1   0.09730 310787.520000
  10636  10638     1   0.10969 276646.080000
  10637  10656     1   0.10969 276646.080000
  10639  10643     1   0.10969 276646.080000
  10640  10642     1   0.10969 276646.080000
  10641  10644     1   0.10961 277566.560000
  10645  10655     1   0.09730 310787.520000
  10646  10648     1   0.09730 310787.520000
  10647  10650     1   0.10969 276646.080000
  10647  10651     1   0.10969 276646.080000
  10649  10659     1   0.10190 328360.320000
  10652  10653     1   0.09730 310787.520000
  10657  10658     1   0.09730 310787.520000
  10660  10661     1   0.10129 337397.760000
  10662  10663     1   0.10969 276646.080000
  10662  10665     1   0.10969 276646.080000
  10664  10666     1   0.10969 276646.080000
  10664  10667     1   0.10969 276646.080000
  10669  10678     1   0.10969 276646.080000
  10669  10679     1   0.10969 276646.080000
  10670  10671     1   0.10969 276646.080000
  10670  10673     1   0.10969 276646.080000
  10672  10674     1   0.10969 276646.080000
  10672  10675     1   0.10969 276646.080000
  10680  10681     1   0.10969 276646.080000
  10680  10682     1   0.10969 276646.080000
  10685  10687     1   0.10969 276646.080000
  10686  10705     1   0.10969 276646.080000
  10688  10692     1   0.10969 276646.080000
  10689  10691     1   0.10969 276646.080000
  10690  10693     1   0.10961 277566.560000
  10694  10704     1   0.09730 310787.520000
  10695  10697     1   0.09730 310787.520000
  10696  10699     1   0.10969 276646.080000
  10696  10700     1   0.10969 276646.080000
  10698  10708     1   0.10190 328360.320000
  10701  10702     1   0.09730 310787.520000
  10706  10707     1   0.09730 310787.520000
  10709  10711     1   0.10969 276646.080000
  10710  10729     1   0.10969 276646.080000
  10712  10716     1   0.10969 276646.080000
  10713  10715     1   0.10969 276646.080000
  10714  10717     1   0.10961 277566.560000
  10718  10728     1   0.09730 310787.520000
  10719  10721     1   0.09730 310787.520000
  10720  10723     1   0.10969 276646.080000
  10720  10724     1   0.10969 276646.080000
  10722  10732     1   0.10190 328360.320000
  10725  10726     1   0.09730 310787.520000
  10730  10731     1   0.09730 310787.520000
  10733  10734     1   0.10129 337397.760000
  10735  10736     1   0.10969 276646.080000
  10735  10738     1   0.10969 276646.080000
  10737  10739     1   0.10969 276646.080000
  10737  10740     1   0.10969 276646.080000
  10742  10751     1   0.10969 276646.080000
  10742  10752     1   0.10969 276646.080000
  10743  10744     1   0.10969 276646.080000
  10743  10746     1   0.10969 276646.080000
  10745  10747     1   0.10969 276646.080000
  10745  10748     1   0.10969 276646.080000
  10753  10754     1   0.10969 276646.080000
  10753  10755     1   0.10969 276646.080000
  10758  10760     1   0.10969 276646.080000
  10759  10778     1   0.10969 276646.080000
  10761  10765     1   0.10969 276646.080000
  10762  10764     1   0.10969 276646.080000
  10763  10766     1   0.10961 277566.560000
  10767  10777     1   0.09730 310787.520000
  10768  10770     1   0.09730 310787.520000
  10769  10772     1   0.10969 276646.080000
  10769  10773     1   0.10969 276646.080000
  10771  10781     1   0.10190 328360.320000
  10774  10775     1   0.09730 310787.520000
  10779  10780     1   0.09730 310787.520000
  10782  10784     1   0.10969 276646.080000
  10783  10802     1   0.10969 276646.080000
  10785  10789     1   0.10969 276646.080000
  10786  10788     1   0.10969 276646.080000
  10787  10790     1   0.10961 277566.560000
  10791  10801     1   0.09730 310787.520000
  10792  10794     1   0.09730 310787.520000
  10793  10796     1   0.10969 276646.080000
  10793  10797     1   0.10969 276646.080000
  10795  10805     1   0.10190 328360.320000
  10798  10799     1   0.09730 310787.520000
  10803  10804     1   0.09730 310787.520000
  10806  10807     1   0.10129 337397.760000
  10808  10809     1   0.10969 276646.080000
  10808  10811     1   0.10969 276646.080000
  10810  10812     1   0.10969 276646.080000
  10810  10813     1   0.10969 276646.080000
  10815  10824     1   0.10969 276646.080000
  10815  10825     1   0.10969 276646.080000
  10816  10817     1   0.10969 276646.080000
  10816  10819     1   0.10969 276646.080000
  10818  10820     1   0.10969 276646.080000
  10818  10821     1   0.10969 276646.080000
  10826  10827     1   0.10969 276646.080000
  10826  10828     1   0.10969 276646.080000
  10831  10833     1   0.10969 276646.080000
  10832  10851     1   0.10969 276646.080000
  10834  10838     1   0.10969 276646.080000
  10835  10837     1   0.10969 276646.080000
  10836  10839     1   0.10961 277566.560000
  10840  10850     1   0.09730 310787.520000
  10841  10843     1   0.09730 310787.520000
  10842  10845     1   0.10969 276646.080000
  10842  10846     1   0.10969 276646.080000
  10844  10854     1   0.10190 328360.320000
  10847  10848     1   0.09730 310787.520000
  10852  10853     1   0.09730 310787.520000
  10855  10857     1   0.10969 276646.080000
  10856  10875     1   0.10969 276646.080000
  10858  10862     1   0.10969 276646.080000
  10859  10861     1   0.10969 276646.080000
  10860  10863     1   0.10961 277566.560000
  10864  10874     1   0.09730 310787.520000
  10865  10867     1   0.09730 310787.520000
  10866  10869     1   0.10969 276646.080000
  10866  10870     1   0.10969 276646.080000
  10868  10878     1   0.10190 328360.320000
  10871  10872     1   0.09730 310787.520000
  10876  10877     1   0.09730 310787.520000
  10879  10880     1   0.10129 337397.760000
  10881  10882     1   0.10969 276646.080000
  10881  10884     1   0.10969 276646.080000
  10883  10885     1   0.10969 276646.080000
  10883  10886     1   0.10969 276646.080000
  10888  10897     1   0.10969 276646.080000
  10888  10898     1   0.10969 276646.080000
  10889  10890     1   0.10969 276646.080000
  10889  10892     1   0.10969 276646.080000
  10891  10893     1   0.10969 276646.080000
  10891  10894     1   0.10969 276646.080000
  10899  10900     1   0.10969 276646.080000
  10899  10901     1   0.10969 276646.080000
  10904  10906     1   0.10969 276646.080000
  10905  10924     1   0.10969 276646.080000
  10907  10911     1   0.10969 276646.080000
  10908  10910     1   0.10969 276646.080000
  10909  10912     1   0.10961 277566.560000
  10913  10923     1   0.09730 310787.520000
  10914  10916     1   0.09730 310787.520000
  10915  10918     1   0.10969 276646.080000
  10915  10919     1   0.10969 276646.080000
  10917  10927     1   0.10190 328360.320000
  10920  10921     1   0.09730 310787.520000
  10925  10926     1   0.09730 310787.520000
  10928  10930     1   0.10969 276646.080000
  10929  10948     1   0.10969 276646.080000
  10931  10935     1   0.10969 276646.080000
  10932  10934     1   0.10969 276646.080000
  10933  10936     1   0.10961 277566.560000
  10937  10947     1   0.09730 310787.520000
  10938  10940     1   0.09730 310787.520000
  10939  10942     1   0.10969 276646.080000
  10939  10943     1   0.10969 276646.080000
  10941  10951     1   0.10190 328360.320000
  10944  10945     1   0.09730 310787.520000
  10949  10950     1   0.09730 310787.520000
  10952  10953     1   0.10129 337397.760000
  10954  10955     1   0.10969 276646.080000
  10954  10957     1   0.10969 276646.080000
  10956  10958     1   0.10969 276646.080000
  10956  10959     1   0.10969 276646.080000
  10961  10970     1   0.10969 276646.080000
  10961  10971     1   0.10969 276646.080000
  10962  10963     1   0.10969 276646.080000
  10962  10965     1   0.10969 276646.080000
  10964  10966     1   0.10969 276646.080000
  10964  10967     1   0.10969 276646.080000
  10972  10973     1   0.10969 276646.080000
  10972  10974     1   0.10969 276646.080000
  10977  10979     1   0.10969 276646.080000
  10978  10997     1   0.10969 276646.080000
  10980  10984     1   0.10969 276646.080000
  10981  10983     1   0.10969 276646.080000
  10982  10985     1   0.10961 277566.560000
  10986  10996     1   0.09730 310787.520000
  10987  10989     1   0.09730 310787.520000
  10988  10991     1   0.10969 276646.080000
  10988  10992     1   0.10969 276646.080000
  10990  11000     1   0.10190 328360.320000
  10993  10994     1   0.09730 310787.520000
  10998  10999     1   0.09730 310787.520000
  11001  11003     1   0.10969 276646.080000
  11002  11021     1   0.10969 276646.080000
  11004  11008     1   0.10969 276646.080000
  11005  11007     1   0.10969 276646.080000
  11006  11009     1   0.10961 277566.560000
  11010  11020     1   0.09730 310787.520000
  11011  11013     1   0.09730 310787.520000
  11012  11015     1   0.10969 276646.080000
  11012  11016     1   0.10969 276646.080000
  11014  11024     1   0.10190 328360.320000
  11017  11018     1   0.09730 310787.520000
  11022  11023     1   0.09730 310787.520000
  11025  11026     1   0.10129 337397.760000
  11027  11028     1   0.10969 276646.080000
  11027  11030     1   0.10969 276646.080000
  11029  11031     1   0.10969 276646.080000
  11029  11032     1   0.10969 276646.080000
  11034  11043     1   0.10969 276646.080000
  11034  11044     1   0.10969 276646.080000
  11035  11036     1   0.10969 276646.080000
  11035  11038     1   0.10969 276646.080000
  11037  11039     1   0.10969 276646.080000
  11037  11040     1   0.10969 276646.080000
  11045  11046     1   0.10969 276646.080000
  11045  11047     1   0.10969 276646.080000
  11050  11052     1   0.10969 276646.080000
  11051  11070     1   0.10969 276646.080000
  11053  11057     1   0.10969 276646.080000
  11054  11056     1   0.10969 276646.080000
  11055  11058     1   0.10961 277566.560000
  11059  11069     1   0.09730 310787.520000
  11060  11062     1   0.09730 310787.520000
  11061  11064     1   0.10969 276646.080000
  11061  11065     1   0.10969 276646.080000
  11063  11073     1   0.10190 328360.320000
  11066  11067     1   0.09730 310787.520000
  11071  11072     1   0.09730 310787.520000
  11074  11076     1   0.10969 276646.080000
  11075  11094     1   0.10969 276646.080000
  11077  11081     1   0.10969 276646.080000
  11078  11080     1   0.10969 276646.080000
  11079  11082     1   0.10961 277566.560000
  11083  11093     1   0.09730 310787.520000
  11084  11086     1   0.09730 310787.520000
  11085  11088     1   0.10969 276646.080000
  11085  11089     1   0.10969 276646.080000
  11087  11097     1   0.10190 328360.320000
  11090  11091     1   0.09730 310787.520000
  11095  11096     1   0.09730 310787.520000
  11098  11099     1   0.10129 337397.760000
  11100  11101     1   0.10969 276646.080000
  11100  11103     1   0.10969 276646.080000
  11102  11104     1   0.10969 276646.080000
  11102  11105     1   0.10969 276646.080000
  11107  11116     1   0.10969 276646.080000
  11107  11117     1   0.10969 276646.080000
  11108  11109     1   0.10969 276646.080000
  11108  11111     1   0.10969 276646.080000
  11110  11112     1   0.10969 276646.080000
  11110  11113     1   0.10969 276646.080000
  11118  11119     1   0.10969 276646.080000
  11118  11120     1   0.10969 276646.080000
  11123  11125     1   0.10969 276646.080000
  11124  11143     1   0.10969 276646.080000
  11126  11130     1   0.10969 276646.080000
  11127  11129     1   0.10969 276646.080000
  11128  11131     1   0.10961 277566.560000
  11132  11142     1   0.09730 310787.520000
  11133  11135     1   0.09730 310787.520000
  11134  11137     1   0.10969 276646.080000
  11134  11138     1   0.10969 276646.080000
  11136  11146     1   0.10190 328360.320000
  11139  11140     1   0.09730 310787.520000
  11144  11145     1   0.09730 310787.520000
  11147  11149     1   0.10969 276646.080000
  11148  11167     1   0.10969 276646.080000
  11150  11154     1   0.10969 276646.080000
  11151  11153     1   0.10969 276646.080000
  11152  11155     1   0.10961 277566.560000
  11156  11166     1   0.09730 310787.520000
  11157  11159     1   0.09730 310787.520000
  11158  11161     1   0.10969 276646.080000
  11158  11162     1   0.10969 276646.080000
  11160  11170     1   0.10190 328360.320000
  11163  11164     1   0.09730 310787.520000
  11168  11169     1   0.09730 310787.520000
  11171  11172     1   0.10129 337397.760000
  11173  11174     1   0.10969 276646.080000
  11173  11176     1   0.10969 276646.080000
  11175  11177     1   0.10969 276646.080000
  11175  11178     1   0.10969 276646.080000
  11180  11189     1   0.10969 276646.080000
  11180  11190     1   0.10969 276646.080000
  11181  11182     1   0.10969 276646.080000
  11181  11184     1   0.10969 276646.080000
  11183  11185     1   0.10969 276646.080000
  11183  11186     1   0.10969 276646.080000
  11191  11192     1   0.10969 276646.080000
  11191  11193     1   0.10969 276646.080000
  11196  11198     1   0.10969 276646.080000
  11197  11216     1   0.10969 276646.080000
  11199  11203     1   0.10969 276646.080000
  11200  11202     1   0.10969 276646.080000
  11201  11204     1   0.10961 277566.560000
  11205  11215     1   0.09730 310787.520000
  11206  11208     1   0.09730 310787.520000
  11207  11210     1   0.10969 276646.080000
  11207  11211     1   0.10969 276646.080000
  11209  11219     1   0.10190 328360.320000
  11212  11213     1   0.09730 310787.520000
  11217  11218     1   0.09730 310787.520000
  11220  11222     1   0.10969 276646.080000
  11221  11240     1   0.10969 276646.080000
  11223  11227     1   0.10969 276646.080000
  11224  11226     1   0.10969 276646.080000
  11225  11228     1   0.10961 277566.560000
  11229  11239     1   0.09730 310787.520000
  11230  11232     1   0.09730 310787.520000
  11231  11234     1   0.10969 276646.080000
  11231  11235     1   0.10969 276646.080000
  11233  11243     1   0.10190 328360.320000
  11236  11237     1   0.09730 310787.520000
  11241  11242     1   0.09730 310787.520000
  11244  11245     1   0.10129 337397.760000
  11246  11247     1   0.10969 276646.080000
  11246  11249     1   0.10969 276646.080000
  11248  11250     1   0.10969 276646.080000
  11248  11251     1   0.10969 276646.080000
  11253  11262     1   0.10969 276646.080000
  11253  11263     1   0.10969 276646.080000
  11254  11255     1   0.10969 276646.080000
  11254  11257     1   0.10969 276646.080000
  11256  11258     1   0.10969 276646.080000
  11256  11259     1   0.10969 276646.080000
  11264  11265     1   0.10969 276646.080000
  11264  11266     1   0.10969 276646.080000
  11269  11271     1   0.10969 276646.080000
  11270  11289     1   0.10969 276646.080000
  11272  11276     1   0.10969 276646.080000
  11273  11275     1   0.10969 276646.080000
  11274  11277     1   0.10961 277566.560000
  11278  11288     1   0.09730 310787.520000
  11279  11281     1   0.09730 310787.520000
  11280  11283     1   0.10969 276646.080000
  11280  11284     1   0.10969 276646.080000
  11282  11292     1   0.10190 328360.320000
  11285  11286     1   0.09730 310787.520000
  11290  11291     1   0.09730 310787.520000
  11293  11295     1   0.10969 276646.080000
  11294  11313     1   0.10969 276646.080000
  11296  11300     1   0.10969 276646.080000
  11297  11299     1   0.10969 276646.080000
  11298  11301     1   0.10961 277566.560000
  11302  11312     1   0.09730 310787.520000
  11303  11305     1   0.09730 310787.520000
  11304  11307     1   0.10969 276646.080000
  11304  11308     1   0.10969 276646.080000
  11306  11316     1   0.10190 328360.320000
  11309  11310     1   0.09730 310787.520000
  11314  11315     1   0.09730 310787.520000
  11317  11318     1   0.10129 337397.760000
  11319  11320     1   0.10969 276646.080000
  11319  11322     1   0.10969 276646.080000
  11321  11323     1   0.10969 276646.080000
  11321  11324     1   0.10969 276646.080000
  11326  11335     1   0.10969 276646.080000
  11326  11336     1   0.10969 276646.080000
  11327  11328     1   0.10969 276646.080000
  11327  11330     1   0.10969 276646.080000
  11329  11331     1   0.10969 276646.080000
  11329  11332     1   0.10969 276646.080000
  11337  11338     1   0.10969 276646.080000
  11337  11339     1   0.10969 276646.080000
  11342  11344     1   0.10969 276646.080000
  11343  11362     1   0.10969 276646.080000
  11345  11349     1   0.10969 276646.080000
  11346  11348     1   0.10969 276646.080000
  11347  11350     1   0.10961 277566.560000
  11351  11361     1   0.09730 310787.520000
  11352  11354     1   0.09730 310787.520000
  11353  11356     1   0.10969 276646.080000
  11353  11357     1   0.10969 276646.080000
  11355  11365     1   0.10190 328360.320000
  11358  11359     1   0.09730 310787.520000
  11363  11364     1   0.09730 310787.520000
  11366  11368     1   0.10969 276646.080000
  11367  11386     1   0.10969 276646.080000
  11369  11373     1   0.10969 276646.080000
  11370  11372     1   0.10969 276646.080000
  11371  11374     1   0.10961 277566.560000
  11375  11385     1   0.09730 310787.520000
  11376  11378     1   0.09730 310787.520000
  11377  11380     1   0.10969 276646.080000
  11377  11381     1   0.10969 276646.080000
  11379  11389     1   0.10190 328360.320000
  11382  11383     1   0.09730 310787.520000
  11387  11388     1   0.09730 310787.520000
  11390  11391     1   0.10129 337397.760000
  11392  11393     1   0.10969 276646.080000
  11392  11395     1   0.10969 276646.080000
  11394  11396     1   0.10969 276646.080000
  11394  11397     1   0.10969 276646.080000
  11399  11408     1   0.10969 276646.080000
  11399  11409     1   0.10969 276646.080000
  11400  11401     1   0.10969 276646.080000
  11400  11403     1   0.10969 276646.080000
  11402  11404     1   0.10969 276646.080000
  11402  11405     1   0.10969 276646.080000
  11410  11411     1   0.10969 276646.080000
  11410  11412     1   0.10969 276646.080000
  11415  11417     1   0.10969 276646.080000
  11416  11435     1   0.10969 276646.080000
  11418  11422     1   0.10969 276646.080000
  11419  11421     1   0.10969 276646.080000
  11420  11423     1   0.10961 277566.560000
  11424  11434     1   0.09730 310787.520000
  11425  11427     1   0.09730 310787.520000
  11426  11429     1   0.10969 276646.080000
  11426  11430     1   0.10969 276646.080000
  11428  11438     1   0.10190 328360.320000
  11431  11432     1   0.09730 310787.520000
  11436  11437     1   0.09730 310787.520000
  11439  11441     1   0.10969 276646.080000
  11440  11459     1   0.10969 276646.080000
  11442  11446     1   0.10969 276646.080000
  11443  11445     1   0.10969 276646.080000
  11444  11447     1   0.10961 277566.560000
  11448  11458     1   0.09730 310787.520000
  11449  11451     1   0.09730 310787.520000
  11450  11453     1   0.10969 276646.080000
  11450  11454     1   0.10969 276646.080000
  11452  11462     1   0.10190 328360.320000
  11455  11456     1   0.09730 310787.520000
  11460  11461     1   0.09730 310787.520000
  11463  11464     1   0.10129 337397.760000
  11465  11466     1   0.10969 276646.080000
  11465  11468     1   0.10969 276646.080000
  11467  11469     1   0.10969 276646.080000
  11467  11470     1   0.10969 276646.080000
  11472  11481     1   0.10969 276646.080000
  11472  11482     1   0.10969 276646.080000
  11473  11474     1   0.10969 276646.080000
  11473  11476     1   0.10969 276646.080000
  11475  11477     1   0.10969 276646.080000
  11475  11478     1   0.10969 276646.080000
  11483  11484     1   0.10969 276646.080000
  11483  11485     1   0.10969 276646.080000
  11488  11490     1   0.10969 276646.080000
  11489  11508     1   0.10969 276646.080000
  11491  11495     1   0.10969 276646.080000
  11492  11494     1   0.10969 276646.080000
  11493  11496     1   0.10961 277566.560000
  11497  11507     1   0.09730 310787.520000
  11498  11500     1   0.09730 310787.520000
  11499  11502     1   0.10969 276646.080000
  11499  11503     1   0.10969 276646.080000
  11501  11511     1   0.10190 328360.320000
  11504  11505     1   0.09730 310787.520000
  11509  11510     1   0.09730 310787.520000
  11512  11514     1   0.10969 276646.080000
  11513  11532     1   0.10969 276646.080000
  11515  11519     1   0.10969 276646.080000
  11516  11518     1   0.10969 276646.080000
  11517  11520     1   0.10961 277566.560000
  11521  11531     1   0.09730 310787.520000
  11522  11524     1   0.09730 310787.520000
  11523  11526     1   0.10969 276646.080000
  11523  11527     1   0.10969 276646.080000
  11525  11535     1   0.10190 328360.320000
  11528  11529     1   0.09730 310787.520000
  11533  11534     1   0.09730 310787.520000
  11536  11537     1   0.10129 337397.760000
  11538  11539     1   0.10969 276646.080000
  11538  11541     1   0.10969 276646.080000
  11540  11542     1   0.10969 276646.080000
  11540  11543     1   0.10969 276646.080000
  11545  11554     1   0.10969 276646.080000
  11545  11555     1   0.10969 276646.080000
  11546  11547     1   0.10969 276646.080000
  11546  11549     1   0.10969 276646.080000
  11548  11550     1   0.10969 276646.080000
  11548  11551     1   0.10969 276646.080000
  11556  11557     1   0.10969 276646.080000
  11556  11558     1   0.10969 276646.080000
  11561  11563     1   0.10969 276646.080000
  11562  11581     1   0.10969 276646.080000
  11564  11568     1   0.10969 276646.080000
  11565  11567     1   0.10969 276646.080000
  11566  11569     1   0.10961 277566.560000
  11570  11580     1   0.09730 310787.520000
  11571  11573     1   0.09730 310787.520000
  11572  11575     1   0.10969 276646.080000
  11572  11576     1   0.10969 276646.080000
  11574  11584     1   0.10190 328360.320000
  11577  11578     1   0.09730 310787.520000
  11582  11583     1   0.09730 310787.520000
  11585  11587     1   0.10969 276646.080000
  11586  11605     1   0.10969 276646.080000
  11588  11592     1   0.10969 276646.080000
  11589  11591     1   0.10969 276646.080000
  11590  11593     1   0.10961 277566.560000
  11594  11604     1   0.09730 310787.520000
  11595  11597     1   0.09730 310787.520000
  11596  11599     1   0.10969 276646.080000
  11596  11600     1   0.10969 276646.080000
  11598  11608     1   0.10190 328360.320000
  11601  11602     1   0.09730 310787.520000
  11606  11607     1   0.09730 310787.520000
  11609  11610     1   0.10129 337397.760000
  11611  11612     1   0.10969 276646.080000
  11611  11614     1   0.10969 276646.080000
  11613  11615     1   0.10969 276646.080000
  11613  11616     1   0.10969 276646.080000
  11618  11627     1   0.10969 276646.080000
  11618  11628     1   0.10969 276646.080000
  11619  11620     1   0.10969 276646.080000
  11619  11622     1   0.10969 276646.080000
  11621  11623     1   0.10969 276646.080000
  11621  11624     1   0.10969 276646.080000
  11629  11630     1   0.10969 276646.080000
  11629  11631     1   0.10969 276646.080000
  11634  11636     1   0.10969 276646.080000
  11635  11654     1   0.10969 276646.080000
  11637  11641     1   0.10969 276646.080000
  11638  11640     1   0.10969 276646.080000
  11639  11642     1   0.10961 277566.560000
  11643  11653     1   0.09730 310787.520000
  11644  11646     1   0.09730 310787.520000
  11645  11648     1   0.10969 276646.080000
  11645  11649     1   0.10969 276646.080000
  11647  11657     1   0.10190 328360.320000
  11650  11651     1   0.09730 310787.520000
  11655  11656     1   0.09730 310787.520000
  11658  11660     1   0.10969 276646.080000
  11659  11678     1   0.10969 276646.080000
  11661  11665     1   0.10969 276646.080000
  11662  11664     1   0.10969 276646.080000
  11663  11666     1   0.10961 277566.560000
  11667  11677     1   0.09730 310787.520000
  11668  11670     1   0.09730 310787.520000
  11669  11672     1   0.10969 276646.080000
  11669  11673     1   0.10969 276646.080000
  11671  11681     1   0.10190 328360.320000
  11674  11675     1   0.09730 310787.520000
  11679  11680     1   0.09730 310787.520000
  11682  11683     1   0.10129 337397.760000
  11684  11685     1   0.10969 276646.080000
  11684  11687     1   0.10969 276646.080000
  11686  11688     1   0.10969 276646.080000
  11686  11689     1   0.10969 276646.080000
  11691  11700     1   0.10969 276646.080000
  11691  11701     1   0.10969 276646.080000
  11692  11693     1   0.10969 276646.080000
  11692  11695     1   0.10969 276646.080000
  11694  11696     1   0.10969 276646.080000
  11694  11697     1   0.10969 276646.080000
  11702  11703     1   0.10969 276646.080000
  11702  11704     1   0.10969 276646.080000
  11707  11709     1   0.10969 276646.080000
  11708  11727     1   0.10969 276646.080000
  11710  11714     1   0.10969 276646.080000
  11711  11713     1   0.10969 276646.080000
  11712  11715     1   0.10961 277566.560000
  11716  11726     1   0.09730 310787.520000
  11717  11719     1   0.09730 310787.520000
  11718  11721     1   0.10969 276646.080000
  11718  11722     1   0.10969 276646.080000
  11720  11730     1   0.10190 328360.320000
  11723  11724     1   0.09730 310787.520000
  11728  11729     1   0.09730 310787.520000
  11731  11733     1   0.10969 276646.080000
  11732  11751     1   0.10969 276646.080000
  11734  11738     1   0.10969 276646.080000
  11735  11737     1   0.10969 276646.080000
  11736  11739     1   0.10961 277566.560000
  11740  11750     1   0.09730 310787.520000
  11741  11743     1   0.09730 310787.520000
  11742  11745     1   0.10969 276646.080000
  11742  11746     1   0.10969 276646.080000
  11744  11754     1   0.10190 328360.320000
  11747  11748     1   0.09730 310787.520000
  11752  11753     1   0.09730 310787.520000
  11755  11756     1   0.10129 337397.760000
  11757  11758     1   0.10969 276646.080000
  11757  11760     1   0.10969 276646.080000
  11759  11761     1   0.10969 276646.080000
  11759  11762     1   0.10969 276646.080000
  11764  11773     1   0.10969 276646.080000
  11764  11774     1   0.10969 276646.080000
  11765  11766     1   0.10969 276646.080000
  11765  11768     1   0.10969 276646.080000
  11767  11769     1   0.10969 276646.080000
  11767  11770     1   0.10969 276646.080000
  11775  11776     1   0.10969 276646.080000
  11775  11777     1   0.10969 276646.080000
  11780  11782     1   0.10969 276646.080000
  11781  11800     1   0.10969 276646.080000
  11783  11787     1   0.10969 276646.080000
  11784  11786     1   0.10969 276646.080000
  11785  11788     1   0.10961 277566.560000
  11789  11799     1   0.09730 310787.520000
  11790  11792     1   0.09730 310787.520000
  11791  11794     1   0.10969 276646.080000
  11791  11795     1   0.10969 276646.080000
  11793  11803     1   0.10190 328360.320000
  11796  11797     1   0.09730 310787.520000
  11801  11802     1   0.09730 310787.520000
  11804  11806     1   0.10969 276646.080000
  11805  11824     1   0.10969 276646.080000
  11807  11811     1   0.10969 276646.080000
  11808  11810     1   0.10969 276646.080000
  11809  11812     1   0.10961 277566.560000
  11813  11823     1   0.09730 310787.520000
  11814  11816     1   0.09730 310787.520000
  11815  11818     1   0.10969 276646.080000
  11815  11819     1   0.10969 276646.080000
  11817  11827     1   0.10190 328360.320000
  11820  11821     1   0.09730 310787.520000
  11825  11826     1   0.09730 310787.520000
  11828  11829     1   0.10129 337397.760000
  11830  11831     1   0.10969 276646.080000
  11830  11833     1   0.10969 276646.080000
  11832  11834     1   0.10969 276646.080000
  11832  11835     1   0.10969 276646.080000
  11837  11846     1   0.10969 276646.080000
  11837  11847     1   0.10969 276646.080000
  11838  11839     1   0.10969 276646.080000
  11838  11841     1   0.10969 276646.080000
  11840  11842     1   0.10969 276646.080000
  11840  11843     1   0.10969 276646.080000
  11848  11849     1   0.10969 276646.080000
  11848  11850     1   0.10969 276646.080000
  11853  11855     1   0.10969 276646.080000
  11854  11873     1   0.10969 276646.080000
  11856  11860     1   0.10969 276646.080000
  11857  11859     1   0.10969 276646.080000
  11858  11861     1   0.10961 277566.560000
  11862  11872     1   0.09730 310787.520000
  11863  11865     1   0.09730 310787.520000
  11864  11867     1   0.10969 276646.080000
  11864  11868     1   0.10969 276646.080000
  11866  11876     1   0.10190 328360.320000
  11869  11870     1   0.09730 310787.520000
  11874  11875     1   0.09730 310787.520000
  11877  11879     1   0.10969 276646.080000
  11878  11897     1   0.10969 276646.080000
  11880  11884     1   0.10969 276646.080000
  11881  11883     1   0.10969 276646.080000
  11882  11885     1   0.10961 277566.560000
  11886  11896     1   0.09730 310787.520000
  11887  11889     1   0.09730 310787.520000
  11888  11891     1   0.10969 276646.080000
  11888  11892     1   0.10969 276646.080000
  11890  11900     1   0.10190 328360.320000
  11893  11894     1   0.09730 310787.520000
  11898  11899     1   0.09730 310787.520000
  11901  11902     1   0.10129 337397.760000
  11903  11904     1   0.10969 276646.080000
  11903  11906     1   0.10969 276646.080000
  11905  11907     1   0.10969 276646.080000
  11905  11908     1   0.10969 276646.080000
  11910  11919     1   0.10969 276646.080000
  11910  11920     1   0.10969 276646.080000
  11911  11912     1   0.10969 276646.080000
  11911  11914     1   0.10969 276646.080000
  11913  11915     1   0.10969 276646.080000
  11913  11916     1   0.10969 276646.080000
  11921  11922     1   0.10969 276646.080000
  11921  11923     1   0.10969 276646.080000
  11926  11928     1   0.10969 276646.080000
  11927  11946     1   0.10969 276646.080000
  11929  11933     1   0.10969 276646.080000
  11930  11932     1   0.10969 276646.080000
  11931  11934     1   0.10961 277566.560000
  11935  11945     1   0.09730 310787.520000
  11936  11938     1   0.09730 310787.520000
  11937  11940     1   0.10969 276646.080000
  11937  11941     1   0.10969 276646.080000
  11939  11949     1   0.10190 328360.320000
  11942  11943     1   0.09730 310787.520000
  11947  11948     1   0.09730 310787.520000
  11950  11952     1   0.10969 276646.080000
  11951  11970     1   0.10969 276646.080000
  11953  11957     1   0.10969 276646.080000
  11954  11956     1   0.10969 276646.080000
  11955  11958     1   0.10961 277566.560000
  11959  11969     1   0.09730 310787.520000
  11960  11962     1   0.09730 310787.520000
  11961  11964     1   0.10969 276646.080000
  11961  11965     1   0.10969 276646.080000
  11963  11973     1   0.10190 328360.320000
  11966  11967     1   0.09730 310787.520000
  11971  11972     1   0.09730 310787.520000
  11974  11975     1   0.10129 337397.760000
  11976  11977     1   0.10969 276646.080000
  11976  11979     1   0.10969 276646.080000
  11978  11980     1   0.10969 276646.080000
  11978  11981     1   0.10969 276646.080000
  11983  11992     1   0.10969 276646.080000
  11983  11993     1   0.10969 276646.080000
  11984  11985     1   0.10969 276646.080000
  11984  11987     1   0.10969 276646.080000
  11986  11988     1   0.10969 276646.080000
  11986  11989     1   0.10969 276646.080000
  11994  11995     1   0.10969 276646.080000
  11994  11996     1   0.10969 276646.080000
  11999  12001     1   0.10969 276646.080000
  12000  12019     1   0.10969 276646.080000
  12002  12006     1   0.10969 276646.080000
  12003  12005     1   0.10969 276646.080000
  12004  12007     1   0.10961 277566.560000
  12008  12018     1   0.09730 310787.520000
  12009  12011     1   0.09730 310787.520000
  12010  12013     1   0.10969 276646.080000
  12010  12014     1   0.10969 276646.080000
  12012  12022     1   0.10190 328360.320000
  12015  12016     1   0.09730 310787.520000
  12020  12021     1   0.09730 310787.520000
  12023  12025     1   0.10969 276646.080000
  12024  12043     1   0.10969 276646.080000
  12026  12030     1   0.10969 276646.080000
  12027  12029     1   0.10969 276646.080000
  12028  12031     1   0.10961 277566.560000
  12032  12042     1   0.09730 310787.520000
  12033  12035     1   0.09730 310787.520000
  12034  12037     1   0.10969 276646.080000
  12034  12038     1   0.10969 276646.080000
  12036  12046     1   0.10190 328360.320000
  12039  12040     1   0.09730 310787.520000
  12044  12045     1   0.09730 310787.520000
  12047  12048     1   0.10129 337397.760000
  12049  12050     1   0.10969 276646.080000
  12049  12052     1   0.10969 276646.080000
  12051  12053     1   0.10969 276646.080000
  12051  12054     1   0.10969 276646.080000
  12056  12065     1   0.10969 276646.080000
  12056  12066     1   0.10969 276646.080000
  12057  12058     1   0.10969 276646.080000
  12057  12060     1   0.10969 276646.080000
  12059  12061     1   0.10969 276646.080000
  12059  12062     1   0.10969 276646.080000
  12067  12068     1   0.10969 276646.080000
  12067  12069     1   0.10969 276646.080000
  12072  12074     1   0.10969 276646.080000
  12073  12092     1   0.10969 276646.080000
  12075  12079     1   0.10969 276646.080000
  12076  12078     1   0.10969 276646.080000
  12077  12080     1   0.10961 277566.560000
  12081  12091     1   0.09730 310787.520000
  12082  12084     1   0.09730 310787.520000
  12083  12086     1   0.10969 276646.080000
  12083  12087     1   0.10969 276646.080000
  12085  12095     1   0.10190 328360.320000
  12088  12089     1   0.09730 310787.520000
  12093  12094     1   0.09730 310787.520000
  12096  12098     1   0.10969 276646.080000
  12097  12116     1   0.10969 276646.080000
  12099  12103     1   0.10969 276646.080000
  12100  12102     1   0.10969 276646.080000
  12101  12104     1   0.10961 277566.560000
  12105  12115     1   0.09730 310787.520000
  12106  12108     1   0.09730 310787.520000
  12107  12110     1   0.10969 276646.080000
  12107  12111     1   0.10969 276646.080000
  12109  12119     1   0.10190 328360.320000
  12112  12113     1   0.09730 310787.520000
  12117  12118     1   0.09730 310787.520000
  12120  12121     1   0.10129 337397.760000
  12122  12123     1   0.10969 276646.080000
  12122  12125     1   0.10969 276646.080000
  12124  12126     1   0.10969 276646.080000
  12124  12127     1   0.10969 276646.080000
  12129  12138     1   0.10969 276646.080000
  12129  12139     1   0.10969 276646.080000
  12130  12131     1   0.10969 276646.080000
  12130  12133     1   0.10969 276646.080000
  12132  12134     1   0.10969 276646.080000
  12132  12135     1   0.10969 276646.080000
  12140  12141     1   0.10969 276646.080000
  12140  12142     1   0.10969 276646.080000
  12145  12147     1   0.10969 276646.080000
  12146  12165     1   0.10969 276646.080000
  12148  12152     1   0.10969 276646.080000
  12149  12151     1   0.10969 276646.080000
  12150  12153     1   0.10961 277566.560000
  12154  12164     1   0.09730 310787.520000
  12155  12157     1   0.09730 310787.520000
  12156  12159     1   0.10969 276646.080000
  12156  12160     1   0.10969 276646.080000
  12158  12168     1   0.10190 328360.320000
  12161  12162     1   0.09730 310787.520000
  12166  12167     1   0.09730 310787.520000
  12169  12171     1   0.10969 276646.080000
  12170  12189     1   0.10969 276646.080000
  12172  12176     1   0.10969 276646.080000
  12173  12175     1   0.10969 276646.080000
  12174  12177     1   0.10961 277566.560000
  12178  12188     1   0.09730 310787.520000
  12179  12181     1   0.09730 310787.520000
  12180  12183     1   0.10969 276646.080000
  12180  12184     1   0.10969 276646.080000
  12182  12192     1   0.10190 328360.320000
  12185  12186     1   0.09730 310787.520000
  12190  12191     1   0.09730 310787.520000
  12193  12194     1   0.10129 337397.760000
  12195  12196     1   0.10969 276646.080000
  12195  12198     1   0.10969 276646.080000
  12197  12199     1   0.10969 276646.080000
  12197  12200     1   0.10969 276646.080000
  12202  12211     1   0.10969 276646.080000
  12202  12212     1   0.10969 276646.080000
  12203  12204     1   0.10969 276646.080000
  12203  12206     1   0.10969 276646.080000
  12205  12207     1   0.10969 276646.080000
  12205  12208     1   0.10969 276646.080000
  12213  12214     1   0.10969 276646.080000
  12213  12215     1   0.10969 276646.080000
  12218  12220     1   0.10969 276646.080000
  12219  12238     1   0.10969 276646.080000
  12221  12225     1   0.10969 276646.080000
  12222  12224     1   0.10969 276646.080000
  12223  12226     1   0.10961 277566.560000
  12227  12237     1   0.09730 310787.520000
  12228  12230     1   0.09730 310787.520000
  12229  12232     1   0.10969 276646.080000
  12229  12233     1   0.10969 276646.080000
  12231  12241     1   0.10190 328360.320000
  12234  12235     1   0.09730 310787.520000
  12239  12240     1   0.09730 310787.520000
  12242  12244     1   0.10969 276646.080000
  12243  12262     1   0.10969 276646.080000
  12245  12249     1   0.10969 276646.080000
  12246  12248     1   0.10969 276646.080000
  12247  12250     1   0.10961 277566.560000
  12251  12261     1   0.09730 310787.520000
  12252  12254     1   0.09730 310787.520000
  12253  12256     1   0.10969 276646.080000
  12253  12257     1   0.10969 276646.080000
  12255  12265     1   0.10190 328360.320000
  12258  12259     1   0.09730 310787.520000
  12263  12264     1   0.09730 310787.520000
  12266  12267     1   0.10129 337397.760000
  12268  12269     1   0.10969 276646.080000
  12268  12271     1   0.10969 276646.080000
  12270  12272     1   0.10969 276646.080000
  12270  12273     1   0.10969 276646.080000
  12275  12284     1   0.10969 276646.080000
  12275  12285     1   0.10969 276646.080000
  12276  12277     1   0.10969 276646.080000
  12276  12279     1   0.10969 276646.080000
  12278  12280     1   0.10969 276646.080000
  12278  12281     1   0.10969 276646.080000
  12286  12287     1   0.10969 276646.080000
  12286  12288     1   0.10969 276646.080000
  12291  12293     1   0.10969 276646.080000
  12292  12311     1   0.10969 276646.080000
  12294  12298     1   0.10969 276646.080000
  12295  12297     1   0.10969 276646.080000
  12296  12299     1   0.10961 277566.560000
  12300  12310     1   0.09730 310787.520000
  12301  12303     1   0.09730 310787.520000
  12302  12305     1   0.10969 276646.080000
  12302  12306     1   0.10969 276646.080000
  12304  12314     1   0.10190 328360.320000
  12307  12308     1   0.09730 310787.520000
  12312  12313     1   0.09730 310787.520000
  12315  12317     1   0.10969 276646.080000
  12316  12335     1   0.10969 276646.080000
  12318  12322     1   0.10969 276646.080000
  12319  12321     1   0.10969 276646.080000
  12320  12323     1   0.10961 277566.560000
  12324  12334     1   0.09730 310787.520000
  12325  12327     1   0.09730 310787.520000
  12326  12329     1   0.10969 276646.080000
  12326  12330     1   0.10969 276646.080000
  12328  12338     1   0.10190 328360.320000
  12331  12332     1   0.09730 310787.520000
  12336  12337     1   0.09730 310787.520000
  12339  12340     1   0.10129 337397.760000
  12341  12342     1   0.10969 276646.080000
  12341  12344     1   0.10969 276646.080000
  12343  12345     1   0.10969 276646.080000
  12343  12346     1   0.10969 276646.080000
  12348  12357     1   0.10969 276646.080000
  12348  12358     1   0.10969 276646.080000
  12349  12350     1   0.10969 276646.080000
  12349  12352     1   0.10969 276646.080000
  12351  12353     1   0.10969 276646.080000
  12351  12354     1   0.10969 276646.080000
  12359  12360     1   0.10969 276646.080000
  12359  12361     1   0.10969 276646.080000
  12364  12366     1   0.10969 276646.080000
  12365  12384     1   0.10969 276646.080000
  12367  12371     1   0.10969 276646.080000
  12368  12370     1   0.10969 276646.080000
  12369  12372     1   0.10961 277566.560000
  12373  12383     1   0.09730 310787.520000
  12374  12376     1   0.09730 310787.520000
  12375  12378     1   0.10969 276646.080000
  12375  12379     1   0.10969 276646.080000
  12377  12387     1   0.10190 328360.320000
  12380  12381     1   0.09730 310787.520000
  12385  12386     1   0.09730 310787.520000
  12388  12390     1   0.10969 276646.080000
  12389  12408     1   0.10969 276646.080000
  12391  12395     1   0.10969 276646.080000
  12392  12394     1   0.10969 276646.080000
  12393  12396     1   0.10961 277566.560000
  12397  12407     1   0.09730 310787.520000
  12398  12400     1   0.09730 310787.520000
  12399  12402     1   0.10969 276646.080000
  12399  12403     1   0.10969 276646.080000
  12401  12411     1   0.10190 328360.320000
  12404  12405     1   0.09730 310787.520000
  12409  12410     1   0.09730 310787.520000
  12412  12413     1   0.10129 337397.760000
  12414  12415     1   0.10969 276646.080000
  12414  12417     1   0.10969 276646.080000
  12416  12418     1   0.10969 276646.080000
  12416  12419     1   0.10969 276646.080000
  12421  12430     1   0.10969 276646.080000
  12421  12431     1   0.10969 276646.080000
  12422  12423     1   0.10969 276646.080000
  12422  12425     1   0.10969 276646.080000
  12424  12426     1   0.10969 276646.080000
  12424  12427     1   0.10969 276646.080000
  12432  12433     1   0.10969 276646.080000
  12432  12434     1   0.10969 276646.080000
  12437  12439     1   0.10969 276646.080000
  12438  12457     1   0.10969 276646.080000
  12440  12444     1   0.10969 276646.080000
  12441  12443     1   0.10969 276646.080000
  12442  12445     1   0.10961 277566.560000
  12446  12456     1   0.09730 310787.520000
  12447  12449     1   0.09730 310787.520000
  12448  12451     1   0.10969 276646.080000
  12448  12452     1   0.10969 276646.080000
  12450  12460     1   0.10190 328360.320000
  12453  12454     1   0.09730 310787.520000
  12458  12459     1   0.09730 310787.520000
  12461  12463     1   0.10969 276646.080000
  12462  12481     1   0.10969 276646.080000
  12464  12468     1   0.10969 276646.080000
  12465  12467     1   0.10969 276646.080000
  12466  12469     1   0.10961 277566.560000
  12470  12480     1   0.09730 310787.520000
  12471  12473     1   0.09730 310787.520000
  12472  12475     1   0.10969 276646.080000
  12472  12476     1   0.10969 276646.080000
  12474  12484     1   0.10190 328360.320000
  12477  12478     1   0.09730 310787.520000
  12482  12483     1   0.09730 310787.520000

[ pairs ]
;    ai     aj funct         c0         c1         c2         c3
      1     15     1
      1     18     1
      1     30     1
      1     27     1
      4      9     1
      4     12     1
      4     21     1
      4     24     1
      8      7     1
      7     35     1
      7     36     1
      8     34     1
      8     33     1
      9     27     1
      9     40     1
      9     89     1
     12     30     1
     12     37     1
     12     64     1
     15     24     1
     15     38     1
     15    114     1
     18     21     1
     18     39     1
     18    139     1
     21     94     1
     24    119     1
     27     44     1
     30     69     1
     33     41     1
     34     66     1
     35     91     1
     36    116     1
     37     44     1
     38     94     1
     39    119     1
     40     69     1
     41     57     1
     41     54     1
     44     48     1
     44     51     1
     47     64     1
     47     61     1
     47     60     1
     48     54     1
     48     63     1
     48    189     1
     51     57     1
     51     62     1
     51    164     1
     54    144     1
     57    169     1
     60    141     1
     61    166     1
     62    144     1
     63    169     1
     66     82     1
     66     79     1
     69     73     1
     69     76     1
     72     89     1
     72     86     1
     72     85     1
     73     79     1
     73     88     1
     73    239     1
     76     82     1
     76     87     1
     76    214     1
     79    194     1
     82    219     1
     85    191     1
     86    216     1
     87    194     1
     88    219     1
     91    107     1
     91    104     1
     94     98     1
     94    101     1
     97    114     1
     97    111     1
     97    110     1
     98    104     1
     98    113     1
     98    289     1
    101    107     1
    101    112     1
    101    264     1
    104    244     1
    107    269     1
    110    241     1
    111    266     1
    112    244     1
    113    269     1
    116    132     1
    116    129     1
    119    123     1
    119    126     1
    122    139     1
    122    136     1
    122    135     1
    123    129     1
    123    138     1
    123    339     1
    126    132     1
    126    137     1
    126    314     1
    129    294     1
    132    319     1
    135    291     1
    136    316     1
    137    294     1
    138    319     1
    141    157     1
    141    154     1
    144    148     1
    144    151     1
    147    164     1
    147    161     1
    147    160     1
    148    154     1
    148    163     1
    148    389     1
    151    157     1
    151    162     1
    151    364     1
    154    344     1
    157    369     1
    160    341     1
    161    366     1
    162    344     1
    163    369     1
    166    182     1
    166    179     1
    169    173     1
    169    176     1
    172    189     1
    172    186     1
    172    185     1
    173    179     1
    173    188     1
    173    439     1
    176    182     1
    176    187     1
    176    414     1
    179    394     1
    182    419     1
    185    391     1
    186    416     1
    187    394     1
    188    419     1
    191    207     1
    191    204     1
    194    198     1
    194    201     1
    197    214     1
    197    211     1
    197    210     1
    198    204     1
    198    213     1
    198    489     1
    201    207     1
    201    212     1
    201    464     1
    204    444     1
    207    469     1
    210    441     1
    211    466     1
    212    444     1
    213    469     1
    216    232     1
    216    229     1
    219    223     1
    219    226     1
    222    239     1
    222    236     1
    222    235     1
    223    229     1
    223    238     1
    223    539     1
    226    232     1
    226    237     1
    226    514     1
    229    494     1
    232    519     1
    235    491     1
    236    516     1
    237    494     1
    238    519     1
    241    257     1
    241    254     1
    244    248     1
    244    251     1
    247    264     1
    247    261     1
    247    260     1
    248    254     1
    248    263     1
    248    589     1
    251    257     1
    251    262     1
    251    564     1
    254    544     1
    257    569     1
    260    541     1
    261    566     1
    262    544     1
    263    569     1
    266    282     1
    266    279     1
    269    273     1
    269    276     1
    272    289     1
    272    286     1
    272    285     1
    273    279     1
    273    288     1
    273    639     1
    276    282     1
    276    287     1
    276    614     1
    279    594     1
    282    619     1
    285    591     1
    286    616     1
    287    594     1
    288    619     1
    291    307     1
    291    304     1
    294    298     1
    294    301     1
    297    314     1
    297    311     1
    297    310     1
    298    304     1
    298    313     1
    298    689     1
    301    307     1
    301    312     1
    301    664     1
    304    644     1
    307    669     1
    310    641     1
    311    666     1
    312    644     1
    313    669     1
    316    332     1
    316    329     1
    319    323     1
    319    326     1
    322    339     1
    322    336     1
    322    335     1
    323    329     1
    323    338     1
    323    739     1
    326    332     1
    326    337     1
    326    714     1
    329    694     1
    332    719     1
    335    691     1
    336    716     1
    337    694     1
    338    719     1
    341    357     1
    341    354     1
    344    348     1
    344    351     1
    347    364     1
    347    361     1
    347    360     1
    348    354     1
    348    363     1
    348    789     1
    351    357     1
    351    362     1
    351    764     1
    354    744     1
    357    769     1
    360    741     1
    361    766     1
    362    744     1
    363    769     1
    366    382     1
    366    379     1
    369    373     1
    369    376     1
    372    389     1
    372    386     1
    372    385     1
    373    379     1
    373    388     1
    373    839     1
    376    382     1
    376    387     1
    376    814     1
    379    794     1
    382    819     1
    385    791     1
    386    816     1
    387    794     1
    388    819     1
    391    407     1
    391    404     1
    394    398     1
    394    401     1
    397    414     1
    397    411     1
    397    410     1
    398    404     1
    398    413     1
    398    889     1
    401    407     1
    401    412     1
    401    864     1
    404    844     1
    407    869     1
    410    841     1
    411    866     1
    412    844     1
    413    869     1
    416    432     1
    416    429     1
    419    423     1
    419    426     1
    422    439     1
    422    436     1
    422    435     1
    423    429     1
    423    438     1
    423    939     1
    426    432     1
    426    437     1
    426    914     1
    429    894     1
    432    919     1
    435    891     1
    436    916     1
    437    894     1
    438    919     1
    441    457     1
    441    454     1
    444    448     1
    444    451     1
    447    464     1
    447    461     1
    447    460     1
    448    454     1
    448    463     1
    448    989     1
    451    457     1
    451    462     1
    451    964     1
    454    944     1
    457    969     1
    460    941     1
    461    966     1
    462    944     1
    463    969     1
    466    482     1
    466    479     1
    469    473     1
    469    476     1
    472    489     1
    472    486     1
    472    485     1
    473    479     1
    473    488     1
    473   1039     1
    476    482     1
    476    487     1
    476   1014     1
    479    994     1
    482   1019     1
    485    991     1
    486   1016     1
    487    994     1
    488   1019     1
    491    507     1
    491    504     1
    494    498     1
    494    501     1
    497    514     1
    497    511     1
    497    510     1
    498    504     1
    498    513     1
    498   1089     1
    501    507     1
    501    512     1
    501   1064     1
    504   1044     1
    507   1069     1
    510   1041     1
    511   1066     1
    512   1044     1
    513   1069     1
    516    532     1
    516    529     1
    519    523     1
    519    526     1
    522    539     1
    522    536     1
    522    535     1
    523    529     1
    523    538     1
    523   1139     1
    526    532     1
    526    537     1
    526   1114     1
    529   1094     1
    532   1119     1
    535   1091     1
    536   1116     1
    537   1094     1
    538   1119     1
    541    557     1
    541    554     1
    544    548     1
    544    551     1
    547    564     1
    547    561     1
    547    560     1
    548    554     1
    548    563     1
    548   1189     1
    551    557     1
    551    562     1
    551   1164     1
    554   1144     1
    557   1169     1
    560   1141     1
    561   1166     1
    562   1144     1
    563   1169     1
    566    582     1
    566    579     1
    569    573     1
    569    576     1
    572    589     1
    572    586     1
    572    585     1
    573    579     1
    573    588     1
    573   1239     1
    576    582     1
    576    587     1
    576   1214     1
    579   1194     1
    582   1219     1
    585   1191     1
    586   1216     1
    587   1194     1
    588   1219     1
    591    607     1
    591    604     1
    594    598     1
    594    601     1
    597    614     1
    597    611     1
    597    610     1
    598    604     1
    598    613     1
    598   1289     1
    601    607     1
    601    612     1
    601   1264     1
    604   1244     1
    607   1269     1
    610   1241     1
    611   1266     1
    612   1244     1
    613   1269     1
    616    632     1
    616    629     1
    619    623     1
    619    626     1
    622    639     1
    622    636     1
    622    635     1
    623    629     1
    623    638     1
    623   1339     1
    626    632     1
    626    637     1
    626   1314     1
    629   1294     1
    632   1319     1
    635   1291     1
    636   1316     1
    637   1294     1
    638   1319     1
    641    657     1
    641    654     1
    644    648     1
    644    651     1
    647    664     1
    647    661     1
    647    660     1
    648    654     1
    648    663     1
    648   1389     1
    651    657     1
    651    662     1
    651   1364     1
    654   1344     1
    657   1369     1
    660   1341     1
    661   1366     1
    662   1344     1
    663   1369     1
    666    682     1
    666    679     1
    669    673     1
    669    676     1
    672    689     1
    672    686     1
    672    685     1
    673    679     1
    673    688     1
    673   1439     1
    676    682     1
    676    687     1
    676   1414     1
    679   1394     1
    682   1419     1
    685   1391     1
    686   1416     1
    687   1394     1
    688   1419     1
    691    707     1
    691    704     1
    694    698     1
    694    701     1
    697    714     1
    697    711     1
    697    710     1
    698    704     1
    698    713     1
    698   1489     1
    701    707     1
    701    712     1
    701   1464     1
    704   1444     1
    707   1469     1
    710   1441     1
    711   1466     1
    712   1444     1
    713   1469     1
    716    732     1
    716    729     1
    719    723     1
    719    726     1
    722    739     1
    722    736     1
    722    735     1
    723    729     1
    723    738     1
    723   1539     1
    726    732     1
    726    737     1
    726   1514     1
    729   1494     1
    732   1519     1
    735   1491     1
    736   1516     1
    737   1494     1
    738   1519     1
    741    757     1
    741    754     1
    744    748     1
    744    751     1
    747    764     1
    747    761     1
    747    760     1
    748    754     1
    748    763     1
    748   1589     1
    751    757     1
    751    762     1
    751   1564     1
    754   1544     1
    757   1569     1
    760   1541     1
    761   1566     1
    762   1544     1
    763   1569     1
    766    782     1
    766    779     1
    769    773     1
    769    776     1
    772    789     1
    772    786     1
    772    785     1
    773    779     1
    773    788     1
    773   1639     1
    776    782     1
    776    787     1
    776   1614     1
    779   1594     1
    782   1619     1
    785   1591     1
    786   1616     1
    787   1594     1
    788   1619     1
    791    807     1
    791    804     1
    794    798     1
    794    801     1
    797    814     1
    797    811     1
    797    810     1
    798    804     1
    798    813     1
    798   1689     1
    801    807     1
    801    812     1
    801   1664     1
    804   1644     1
    807   1669     1
    810   1641     1
    811   1666     1
    812   1644     1
    813   1669     1
    816    832     1
    816    829     1
    819    823     1
    819    826     1
    822    839     1
    822    836     1
    822    835     1
    823    829     1
    823    838     1
    823   1739     1
    826    832     1
    826    837     1
    826   1714     1
    829   1694     1
    832   1719     1
    835   1691     1
    836   1716     1
    837   1694     1
    838   1719     1
    841    857     1
    841    854     1
    844    848     1
    844    851     1
    847    864     1
    847    861     1
    847    860     1
    848    854     1
    848    863     1
    848   1789     1
    851    857     1
    851    862     1
    851   1764     1
    854   1744     1
    857   1769     1
    860   1741     1
    861   1766     1
    862   1744     1
    863   1769     1
    866    882     1
    866    879     1
    869    873     1
    869    876     1
    872    889     1
    872    886     1
    872    885     1
    873    879     1
    873    888     1
    873   1839     1
    876    882     1
    876    887     1
    876   1814     1
    879   1794     1
    882   1819     1
    885   1791     1
    886   1816     1
    887   1794     1
    888   1819     1
    891    907     1
    891    904     1
    894    898     1
    894    901     1
    897    914     1
    897    911     1
    897    910     1
    898    904     1
    898    913     1
    898   1889     1
    901    907     1
    901    912     1
    901   1864     1
    904   1844     1
    907   1869     1
    910   1841     1
    911   1866     1
    912   1844     1
    913   1869     1
    916    932     1
    916    929     1
    919    923     1
    919    926     1
    922    939     1
    922    936     1
    922    935     1
    923    929     1
    923    938     1
    923   1939     1
    926    932     1
    926    937     1
    926   1914     1
    929   1894     1
    932   1919     1
    935   1891     1
    936   1916     1
    937   1894     1
    938   1919     1
    941    957     1
    941    954     1
    944    948     1
    944    951     1
    947    964     1
    947    961     1
    947    960     1
    948    954     1
    948    963     1
    948   1989     1
    951    957     1
    951    962     1
    951   1964     1
    954   1944     1
    957   1969     1
    960   1941     1
    961   1966     1
    962   1944     1
    963   1969     1
    966    982     1
    966    979     1
    969    973     1
    969    976     1
    972    989     1
    972    986     1
    972    985     1
    973    979     1
    973    988     1
    973   2039     1
    976    982     1
    976    987     1
    976   2014     1
    979   1994     1
    982   2019     1
    985   1991     1
    986   2016     1
    987   1994     1
    988   2019     1
    991   1007     1
    991   1004     1
    994    998     1
    994   1001     1
    997   1014     1
    997   1011     1
    997   1010     1
    998   1004     1
    998   1013     1
    998   2089     1
   1001   1007     1
   1001   1012     1
   1001   2064     1
   1004   2044     1
   1007   2069     1
   1010   2041     1
   1011   2066     1
   1012   2044     1
   1013   2069     1
   1016   1032     1
   1016   1029     1
   1019   1023     1
   1019   1026     1
   1022   1039     1
   1022   1036     1
   1022   1035     1
   1023   1029     1
   1023   1038     1
   1023   2139     1
   1026   1032     1
   1026   1037     1
   1026   2114     1
   1029   2094     1
   1032   2119     1
   1035   2091     1
   1036   2116     1
   1037   2094     1
   1038   2119     1
   1041   1057     1
   1041   1054     1
   1044   1048     1
   1044   1051     1
   1047   1064     1
   1047   1061     1
   1047   1060     1
   1048   1054     1
   1048   1063     1
   1048   2189     1
   1051   1057     1
   1051   1062     1
   1051   2164     1
   1054   2144     1
   1057   2169     1
   1060   2141     1
   1061   2166     1
   1062   2144     1
   1063   2169     1
   1066   1082     1
   1066   1079     1
   1069   1073     1
   1069   1076     1
   1072   1089     1
   1072   1086     1
   1072   1085     1
   1073   1079     1
   1073   1088     1
   1073   2239     1
   1076   1082     1
   1076   1087     1
   1076   2214     1
   1079   2194     1
   1082   2219     1
   1085   2191     1
   1086   2216     1
   1087   2194     1
   1088   2219     1
   1091   1107     1
   1091   1104     1
   1094   1098     1
   1094   1101     1
   1097   1114     1
   1097   1111     1
   1097   1110     1
   1098   1104     1
   1098   1113     1
   1098   2289     1
   1101   1107     1
   1101   1112     1
   1101   2264     1
   1104   2244     1
   1107   2269     1
   1110   2241     1
   1111   2266     1
   1112   2244     1
   1113   2269     1
   1116   1132     1
   1116   1129     1
   1119   1123     1
   1119   1126     1
   1122   1139     1
   1122   1136     1
   1122   1135     1
   1123   1129     1
   1123   1138     1
   1123   2339     1
   1126   1132     1
   1126   1137     1
   1126   2314     1
   1129   2294     1
   1132   2319     1
   1135   2291     1
   1136   2316     1
   1137   2294     1
   1138   2319     1
   1141   1157     1
   1141   1154     1
   1144   1148     1
   1144   1151     1
   1147   1164     1
   1147   1161     1
   1147   1160     1
   1148   1154     1
   1148   1163     1
   1148   2389     1
   1151   1157     1
   1151   1162     1
   1151   2364     1
   1154   2344     1
   1157   2369     1
   1160   2341     1
   1161   2366     1
   1162   2344     1
   1163   2369     1
   1166   1182     1
   1166   1179     1
   1169   1173     1
   1169   1176     1
   1172   1189     1
   1172   1186     1
   1172   1185     1
   1173   1179     1
   1173   1188     1
   1173   2439     1
   1176   1182     1
   1176   1187     1
   1176   2414     1
   1179   2394     1
   1182   2419     1
   1185   2391     1
   1186   2416     1
   1187   2394     1
   1188   2419     1
   1191   1207     1
   1191   1204     1
   1194   1198     1
   1194   1201     1
   1197   1214     1
   1197   1211     1
   1197   1210     1
   1198   1204     1
   1198   1213     1
   1198   2489     1
   1201   1207     1
   1201   1212     1
   1201   2464     1
   1204   2444     1
   1207   2469     1
   1210   2441     1
   1211   2466     1
   1212   2444     1
   1213   2469     1
   1216   1232     1
   1216   1229     1
   1219   1223     1
   1219   1226     1
   1222   1239     1
   1222   1236     1
   1222   1235     1
   1223   1229     1
   1223   1238     1
   1223   2539     1
   1226   1232     1
   1226   1237     1
   1226   2514     1
   1229   2494     1
   1232   2519     1
   1235   2491     1
   1236   2516     1
   1237   2494     1
   1238   2519     1
   1241   1257     1
   1241   1254     1
   1244   1248     1
   1244   1251     1
   1247   1264     1
   1247   1261     1
   1247   1260     1
   1248   1254     1
   1248   1263     1
   1248   2589     1
   1251   1257     1
   1251   1262     1
   1251   2564     1
   1254   2544     1
   1257   2569     1
   1260   2541     1
   1261   2566     1
   1262   2544     1
   1263   2569     1
   1266   1282     1
   1266   1279     1
   1269   1273     1
   1269   1276     1
   1272   1289     1
   1272   1286     1
   1272   1285     1
   1273   1279     1
   1273   1288     1
   1273   2639     1
   1276   1282     1
   1276   1287     1
   1276   2614     1
   1279   2594     1
   1282   2619     1
   1285   2591     1
   1286   2616     1
   1287   2594     1
   1288   2619     1
   1291   1307     1
   1291   1304     1
   1294   1298     1
   1294   1301     1
   1297   1314     1
   1297   1311     1
   1297   1310     1
   1298   1304     1
   1298   1313     1
   1298   2689     1
   1301   1307     1
   1301   1312     1
   1301   2664     1
   1304   2644     1
   1307   2669     1
   1310   2641     1
   1311   2666     1
   1312   2644     1
   1313   2669     1
   1316   1332     1
   1316   1329     1
   1319   1323     1
   1319   1326     1
   1322   1339     1
   1322   1336     1
   1322   1335     1
   1323   1329     1
   1323   1338     1
   1323   2739     1
   1326   1332     1
   1326   1337     1
   1326   2714     1
   1329   2694     1
   1332   2719     1
   1335   2691     1
   1336   2716     1
   1337   2694     1
   1338   2719     1
   1341   1357     1
   1341   1354     1
   1344   1348     1
   1344   1351     1
   1347   1364     1
   1347   1361     1
   1347   1360     1
   1348   1354     1
   1348   1363     1
   1348   2789     1
   1351   1357     1
   1351   1362     1
   1351   2764     1
   1354   2744     1
   1357   2769     1
   1360   2741     1
   1361   2766     1
   1362   2744     1
   1363   2769     1
   1366   1382     1
   1366   1379     1
   1369   1373     1
   1369   1376     1
   1372   1389     1
   1372   1386     1
   1372   1385     1
   1373   1379     1
   1373   1388     1
   1373   2839     1
   1376   1382     1
   1376   1387     1
   1376   2814     1
   1379   2794     1
   1382   2819     1
   1385   2791     1
   1386   2816     1
   1387   2794     1
   1388   2819     1
   1391   1407     1
   1391   1404     1
   1394   1398     1
   1394   1401     1
   1397   1414     1
   1397   1411     1
   1397   1410     1
   1398   1404     1
   1398   1413     1
   1398   2889     1
   1401   1407     1
   1401   1412     1
   1401   2864     1
   1404   2844     1
   1407   2869     1
   1410   2841     1
   1411   2866     1
   1412   2844     1
   1413   2869     1
   1416   1432     1
   1416   1429     1
   1419   1423     1
   1419   1426     1
   1422   1439     1
   1422   1436     1
   1422   1435     1
   1423   1429     1
   1423   1438     1
   1423   2939     1
   1426   1432     1
   1426   1437     1
   1426   2914     1
   1429   2894     1
   1432   2919     1
   1435   2891     1
   1436   2916     1
   1437   2894     1
   1438   2919     1
   1441   1457     1
   1441   1454     1
   1444   1448     1
   1444   1451     1
   1447   1464     1
   1447   1461     1
   1447   1460     1
   1448   1454     1
   1448   1463     1
   1448   2989     1
   1451   1457     1
   1451   1462     1
   1451   2964     1
   1454   2944     1
   1457   2969     1
   1460   2941     1
   1461   2966     1
   1462   2944     1
   1463   2969     1
   1466   1482     1
   1466   1479     1
   1469   1473     1
   1469   1476     1
   1472   1489     1
   1472   1486     1
   1472   1485     1
   1473   1479     1
   1473   1488     1
   1473   3039     1
   1476   1482     1
   1476   1487     1
   1476   3014     1
   1479   2994     1
   1482   3019     1
   1485   2991     1
   1486   3016     1
   1487   2994     1
   1488   3019     1
   1491   1507     1
   1491   1504     1
   1494   1498     1
   1494   1501     1
   1497   1514     1
   1497   1511     1
   1497   1510     1
   1498   1504     1
   1498   1513     1
   1498   3089     1
   1501   1507     1
   1501   1512     1
   1501   3064     1
   1504   3044     1
   1507   3069     1
   1510   3041     1
   1511   3066     1
   1512   3044     1
   1513   3069     1
   1516   1532     1
   1516   1529     1
   1519   1523     1
   1519   1526     1
   1522   1539     1
   1522   1536     1
   1522   1535     1
   1523   1529     1
   1523   1538     1
   1523   3139     1
   1526   1532     1
   1526   1537     1
   1526   3114     1
   1529   3094     1
   1532   3119     1
   1535   3091     1
   1536   3116     1
   1537   3094     1
   1538   3119     1
   1541   1557     1
   1541   1554     1
   1544   1548     1
   1544   1551     1
   1547   1564     1
   1547   1561     1
   1547   1560     1
   1548   1554     1
   1548   1563     1
   1548   3214     1
   1551   1557     1
   1551   3141     1
   1551   1562     1
   1554   3143     1
   1557   3216     1
   1560   3145     1
   1561   3218     1
   1562   3143     1
   1563   3216     1
   1566   1582     1
   1566   1579     1
   1569   1573     1
   1569   1576     1
   1572   1589     1
   1572   1586     1
   1572   1585     1
   1573   1579     1
   1573   1588     1
   1573   3360     1
   1576   1582     1
   1576   3287     1
   1576   1587     1
   1579   3289     1
   1582   3362     1
   1585   3291     1
   1586   3364     1
   1587   3289     1
   1588   3362     1
   1591   1607     1
   1591   1604     1
   1594   1598     1
   1594   1601     1
   1597   1614     1
   1597   1611     1
   1597   1610     1
   1598   1604     1
   1598   1613     1
   1598   3506     1
   1601   1607     1
   1601   3433     1
   1601   1612     1
   1604   3435     1
   1607   3508     1
   1610   3437     1
   1611   3510     1
   1612   3435     1
   1613   3508     1
   1616   1632     1
   1616   1629     1
   1619   1623     1
   1619   1626     1
   1622   1639     1
   1622   1636     1
   1622   1635     1
   1623   1629     1
   1623   1638     1
   1623   3652     1
   1626   1632     1
   1626   3579     1
   1626   1637     1
   1629   3581     1
   1632   3654     1
   1635   3583     1
   1636   3656     1
   1637   3581     1
   1638   3654     1
   1641   1657     1
   1641   1654     1
   1644   1648     1
   1644   1651     1
   1647   1664     1
   1647   1661     1
   1647   1660     1
   1648   1654     1
   1648   1663     1
   1648   3798     1
   1651   1657     1
   1651   3725     1
   1651   1662     1
   1654   3727     1
   1657   3800     1
   1660   3729     1
   1661   3802     1
   1662   3727     1
   1663   3800     1
   1666   1682     1
   1666   1679     1
   1669   1673     1
   1669   1676     1
   1672   1689     1
   1672   1686     1
   1672   1685     1
   1673   1679     1
   1673   1688     1
   1673   3944     1
   1676   1682     1
   1676   3871     1
   1676   1687     1
   1679   3873     1
   1682   3946     1
   1685   3875     1
   1686   3948     1
   1687   3873     1
   1688   3946     1
   1691   1707     1
   1691   1704     1
   1694   1698     1
   1694   1701     1
   1697   1714     1
   1697   1711     1
   1697   1710     1
   1698   1704     1
   1698   1713     1
   1698   4090     1
   1701   1707     1
   1701   4017     1
   1701   1712     1
   1704   4019     1
   1707   4092     1
   1710   4021     1
   1711   4094     1
   1712   4019     1
   1713   4092     1
   1716   1732     1
   1716   1729     1
   1719   1723     1
   1719   1726     1
   1722   1739     1
   1722   1736     1
   1722   1735     1
   1723   1729     1
   1723   1738     1
   1723   4236     1
   1726   1732     1
   1726   4163     1
   1726   1737     1
   1729   4165     1
   1732   4238     1
   1735   4167     1
   1736   4240     1
   1737   4165     1
   1738   4238     1
   1741   1757     1
   1741   1754     1
   1744   1748     1
   1744   1751     1
   1747   1764     1
   1747   1761     1
   1747   1760     1
   1748   1754     1
   1748   1763     1
   1748   4382     1
   1751   1757     1
   1751   4309     1
   1751   1762     1
   1754   4311     1
   1757   4384     1
   1760   4313     1
   1761   4386     1
   1762   4311     1
   1763   4384     1
   1766   1782     1
   1766   1779     1
   1769   1773     1
   1769   1776     1
   1772   1789     1
   1772   1786     1
   1772   1785     1
   1773   1779     1
   1773   1788     1
   1773   4528     1
   1776   1782     1
   1776   4455     1
   1776   1787     1
   1779   4457     1
   1782   4530     1
   1785   4459     1
   1786   4532     1
   1787   4457     1
   1788   4530     1
   1791   1807     1
   1791   1804     1
   1794   1798     1
   1794   1801     1
   1797   1814     1
   1797   1811     1
   1797   1810     1
   1798   1804     1
   1798   1813     1
   1798   4674     1
   1801   1807     1
   1801   4601     1
   1801   1812     1
   1804   4603     1
   1807   4676     1
   1810   4605     1
   1811   4678     1
   1812   4603     1
   1813   4676     1
   1816   1832     1
   1816   1829     1
   1819   1823     1
   1819   1826     1
   1822   1839     1
   1822   1836     1
   1822   1835     1
   1823   1829     1
   1823   1838     1
   1823   4820     1
   1826   1832     1
   1826   4747     1
   1826   1837     1
   1829   4749     1
   1832   4822     1
   1835   4751     1
   1836   4824     1
   1837   4749     1
   1838   4822     1
   1841   1857     1
   1841   1854     1
   1844   1848     1
   1844   1851     1
   1847   1864     1
   1847   1861     1
   1847   1860     1
   1848   1854     1
   1848   1863     1
   1848   4966     1
   1851   1857     1
   1851   4893     1
   1851   1862     1
   1854   4895     1
   1857   4968     1
   1860   4897     1
   1861   4970     1
   1862   4895     1
   1863   4968     1
   1866   1882     1
   1866   1879     1
   1869   1873     1
   1869   1876     1
   1872   1889     1
   1872   1886     1
   1872   1885     1
   1873   1879     1
   1873   1888     1
   1873   5112     1
   1876   1882     1
   1876   5039     1
   1876   1887     1
   1879   5041     1
   1882   5114     1
   1885   5043     1
   1886   5116     1
   1887   5041     1
   1888   5114     1
   1891   1907     1
   1891   1904     1
   1894   1898     1
   1894   1901     1
   1897   1914     1
   1897   1911     1
   1897   1910     1
   1898   1904     1
   1898   1913     1
   1898   5258     1
   1901   1907     1
   1901   5185     1
   1901   1912     1
   1904   5187     1
   1907   5260     1
   1910   5189     1
   1911   5262     1
   1912   5187     1
   1913   5260     1
   1916   1932     1
   1916   1929     1
   1919   1923     1
   1919   1926     1
   1922   1939     1
   1922   1936     1
   1922   1935     1
   1923   1929     1
   1923   1938     1
   1923   5404     1
   1926   1932     1
   1926   5331     1
   1926   1937     1
   1929   5333     1
   1932   5406     1
   1935   5335     1
   1936   5408     1
   1937   5333     1
   1938   5406     1
   1941   1957     1
   1941   1954     1
   1944   1948     1
   1944   1951     1
   1947   1964     1
   1947   1961     1
   1947   1960     1
   1948   1954     1
   1948   1963     1
   1948   5550     1
   1951   1957     1
   1951   5477     1
   1951   1962     1
   1954   5479     1
   1957   5552     1
   1960   5481     1
   1961   5554     1
   1962   5479     1
   1963   5552     1
   1966   1982     1
   1966   1979     1
   1969   1973     1
   1969   1976     1
   1972   1989     1
   1972   1986     1
   1972   1985     1
   1973   1979     1
   1973   1988     1
   1973   5696     1
   1976   1982     1
   1976   5623     1
   1976   1987     1
   1979   5625     1
   1982   5698     1
   1985   5627     1
   1986   5700     1
   1987   5625     1
   1988   5698     1
   1991   2007     1
   1991   2004     1
   1994   1998     1
   1994   2001     1
   1997   2014     1
   1997   2011     1
   1997   2010     1
   1998   2004     1
   1998   2013     1
   1998   5842     1
   2001   2007     1
   2001   5769     1
   2001   2012     1
   2004   5771     1
   2007   5844     1
   2010   5773     1
   2011   5846     1
   2012   5771     1
   2013   5844     1
   2016   2032     1
   2016   2029     1
   2019   2023     1
   2019   2026     1
   2022   2039     1
   2022   2036     1
   2022   2035     1
   2023   2029     1
   2023   2038     1
   2023   5988     1
   2026   2032     1
   2026   5915     1
   2026   2037     1
   2029   5917     1
   2032   5990     1
   2035   5919     1
   2036   5992     1
   2037   5917     1
   2038   5990     1
   2041   2057     1
   2041   2054     1
   2044   2048     1
   2044   2051     1
   2047   2064     1
   2047   2061     1
   2047   2060     1
   2048   2054     1
   2048   2063     1
   2048   6134     1
   2051   2057     1
   2051   6061     1
   2051   2062     1
   2054   6063     1
   2057   6136     1
   2060   6065     1
   2061   6138     1
   2062   6063     1
   2063   6136     1
   2066   2082     1
   2066   2079     1
   2069   2073     1
   2069   2076     1
   2072   2089     1
   2072   2086     1
   2072   2085     1
   2073   2079     1
   2073   2088     1
   2073   6280     1
   2076   2082     1
   2076   6207     1
   2076   2087     1
   2079   6209     1
   2082   6282     1
   2085   6211     1
   2086   6284     1
   2087   6209     1
   2088   6282     1
   2091   2107     1
   2091   2104     1
   2094   2098     1
   2094   2101     1
   2097   2114     1
   2097   2111     1
   2097   2110     1
   2098   2104     1
   2098   2113     1
   2098   6426     1
   2101   2107     1
   2101   6353     1
   2101   2112     1
   2104   6355     1
   2107   6428     1
   2110   6357     1
   2111   6430     1
   2112   6355     1
   2113   6428     1
   2116   2132     1
   2116   2129     1
   2119   2123     1
   2119   2126     1
   2122   2139     1
   2122   2136     1
   2122   2135     1
   2123   2129     1
   2123   2138     1
   2123   6572     1
   2126   2132     1
   2126   6499     1
   2126   2137     1
   2129   6501     1
   2132   6574     1
   2135   6503     1
   2136   6576     1
   2137   6501     1
   2138   6574     1
   2141   2157     1
   2141   2154     1
   2144   2148     1
   2144   2151     1
   2147   2164     1
   2147   2161     1
   2147   2160     1
   2148   2154     1
   2148   2163     1
   2148   6718     1
   2151   2157     1
   2151   6645     1
   2151   2162     1
   2154   6647     1
   2157   6720     1
   2160   6649     1
   2161   6722     1
   2162   6647     1
   2163   6720     1
   2166   2182     1
   2166   2179     1
   2169   2173     1
   2169   2176     1
   2172   2189     1
   2172   2186     1
   2172   2185     1
   2173   2179     1
   2173   2188     1
   2173   6864     1
   2176   2182     1
   2176   6791     1
   2176   2187     1
   2179   6793     1
   2182   6866     1
   2185   6795     1
   2186   6868     1
   2187   6793     1
   2188   6866     1
   2191   2207     1
   2191   2204     1
   2194   2198     1
   2194   2201     1
   2197   2214     1
   2197   2211     1
   2197   2210     1
   2198   2204     1
   2198   2213     1
   2198   7010     1
   2201   2207     1
   2201   6937     1
   2201   2212     1
   2204   6939     1
   2207   7012     1
   2210   6941     1
   2211   7014     1
   2212   6939     1
   2213   7012     1
   2216   2232     1
   2216   2229     1
   2219   2223     1
   2219   2226     1
   2222   2239     1
   2222   2236     1
   2222   2235     1
   2223   2229     1
   2223   2238     1
   2223   7156     1
   2226   2232     1
   2226   7083     1
   2226   2237     1
   2229   7085     1
   2232   7158     1
   2235   7087     1
   2236   7160     1
   2237   7085     1
   2238   7158     1
   2241   2257     1
   2241   2254     1
   2244   2248     1
   2244   2251     1
   2247   2264     1
   2247   2261     1
   2247   2260     1
   2248   2254     1
   2248   2263     1
   2248   7302     1
   2251   2257     1
   2251   7229     1
   2251   2262     1
   2254   7231     1
   2257   7304     1
   2260   7233     1
   2261   7306     1
   2262   7231     1
   2263   7304     1
   2266   2282     1
   2266   2279     1
   2269   2273     1
   2269   2276     1
   2272   2289     1
   2272   2286     1
   2272   2285     1
   2273   2279     1
   2273   2288     1
   2273   7448     1
   2276   2282     1
   2276   7375     1
   2276   2287     1
   2279   7377     1
   2282   7450     1
   2285   7379     1
   2286   7452     1
   2287   7377     1
   2288   7450     1
   2291   2307     1
   2291   2304     1
   2294   2298     1
   2294   2301     1
   2297   2314     1
   2297   2311     1
   2297   2310     1
   2298   2304     1
   2298   2313     1
   2298   7594     1
   2301   2307     1
   2301   7521     1
   2301   2312     1
   2304   7523     1
   2307   7596     1
   2310   7525     1
   2311   7598     1
   2312   7523     1
   2313   7596     1
   2316   2332     1
   2316   2329     1
   2319   2323     1
   2319   2326     1
   2322   2339     1
   2322   2336     1
   2322   2335     1
   2323   2329     1
   2323   2338     1
   2323   7740     1
   2326   2332     1
   2326   7667     1
   2326   2337     1
   2329   7669     1
   2332   7742     1
   2335   7671     1
   2336   7744     1
   2337   7669     1
   2338   7742     1
   2341   2357     1
   2341   2354     1
   2344   2348     1
   2344   2351     1
   2347   2364     1
   2347   2361     1
   2347   2360     1
   2348   2354     1
   2348   2363     1
   2348   7886     1
   2351   2357     1
   2351   7813     1
   2351   2362     1
   2354   7815     1
   2357   7888     1
   2360   7817     1
   2361   7890     1
   2362   7815     1
   2363   7888     1
   2366   2382     1
   2366   2379     1
   2369   2373     1
   2369   2376     1
   2372   2389     1
   2372   2386     1
   2372   2385     1
   2373   2379     1
   2373   2388     1
   2373   8032     1
   2376   2382     1
   2376   7959     1
   2376   2387     1
   2379   7961     1
   2382   8034     1
   2385   7963     1
   2386   8036     1
   2387   7961     1
   2388   8034     1
   2391   2407     1
   2391   2404     1
   2394   2398     1
   2394   2401     1
   2397   2414     1
   2397   2411     1
   2397   2410     1
   2398   2404     1
   2398   2413     1
   2398   8178     1
   2401   2407     1
   2401   8105     1
   2401   2412     1
   2404   8107     1
   2407   8180     1
   2410   8109     1
   2411   8182     1
   2412   8107     1
   2413   8180     1
   2416   2432     1
   2416   2429     1
   2419   2423     1
   2419   2426     1
   2422   2439     1
   2422   2436     1
   2422   2435     1
   2423   2429     1
   2423   2438     1
   2423   8324     1
   2426   2432     1
   2426   8251     1
   2426   2437     1
   2429   8253     1
   2432   8326     1
   2435   8255     1
   2436   8328     1
   2437   8253     1
   2438   8326     1
   2441   2457     1
   2441   2454     1
   2444   2448     1
   2444   2451     1
   2447   2464     1
   2447   2461     1
   2447   2460     1
   2448   2454     1
   2448   2463     1
   2448   8470     1
   2451   2457     1
   2451   8397     1
   2451   2462     1
   2454   8399     1
   2457   8472     1
   2460   8401     1
   2461   8474     1
   2462   8399     1
   2463   8472     1
   2466   2482     1
   2466   2479     1
   2469   2473     1
   2469   2476     1
   2472   2489     1
   2472   2486     1
   2472   2485     1
   2473   2479     1
   2473   2488     1
   2473   8616     1
   2476   2482     1
   2476   8543     1
   2476   2487     1
   2479   8545     1
   2482   8618     1
   2485   8547     1
   2486   8620     1
   2487   8545     1
   2488   8618     1
   2491   2507     1
   2491   2504     1
   2494   2498     1
   2494   2501     1
   2497   2514     1
   2497   2511     1
   2497   2510     1
   2498   2504     1
   2498   2513     1
   2498   8762     1
   2501   2507     1
   2501   8689     1
   2501   2512     1
   2504   8691     1
   2507   8764     1
   2510   8693     1
   2511   8766     1
   2512   8691     1
   2513   8764     1
   2516   2532     1
   2516   2529     1
   2519   2523     1
   2519   2526     1
   2522   2539     1
   2522   2536     1
   2522   2535     1
   2523   2529     1
   2523   2538     1
   2523   8908     1
   2526   2532     1
   2526   8835     1
   2526   2537     1
   2529   8837     1
   2532   8910     1
   2535   8839     1
   2536   8912     1
   2537   8837     1
   2538   8910     1
   2541   2557     1
   2541   2554     1
   2544   2548     1
   2544   2551     1
   2547   2564     1
   2547   2561     1
   2547   2560     1
   2548   2554     1
   2548   2563     1
   2548   9054     1
   2551   2557     1
   2551   8981     1
   2551   2562     1
   2554   8983     1
   2557   9056     1
   2560   8985     1
   2561   9058     1
   2562   8983     1
   2563   9056     1
   2566   2582     1
   2566   2579     1
   2569   2573     1
   2569   2576     1
   2572   2589     1
   2572   2586     1
   2572   2585     1
   2573   2579     1
   2573   2588     1
   2573   9200     1
   2576   2582     1
   2576   9127     1
   2576   2587     1
   2579   9129     1
   2582   9202     1
   2585   9131     1
   2586   9204     1
   2587   9129     1
   2588   9202     1
   2591   2607     1
   2591   2604     1
   2594   2598     1
   2594   2601     1
   2597   2614     1
   2597   2611     1
   2597   2610     1
   2598   2604     1
   2598   2613     1
   2598   9346     1
   2601   2607     1
   2601   9273     1
   2601   2612     1
   2604   9275     1
   2607   9348     1
   2610   9277     1
   2611   9350     1
   2612   9275     1
   2613   9348     1
   2616   2632     1
   2616   2629     1
   2619   2623     1
   2619   2626     1
   2622   2639     1
   2622   2636     1
   2622   2635     1
   2623   2629     1
   2623   2638     1
   2623   9492     1
   2626   2632     1
   2626   9419     1
   2626   2637     1
   2629   9421     1
   2632   9494     1
   2635   9423     1
   2636   9496     1
   2637   9421     1
   2638   9494     1
   2641   2657     1
   2641   2654     1
   2644   2648     1
   2644   2651     1
   2647   2664     1
   2647   2661     1
   2647   2660     1
   2648   2654     1
   2648   2663     1
   2648   9638     1
   2651   2657     1
   2651   9565     1
   2651   2662     1
   2654   9567     1
   2657   9640     1
   2660   9569     1
   2661   9642     1
   2662   9567     1
   2663   9640     1
   2666   2682     1
   2666   2679     1
   2669   2673     1
   2669   2676     1
   2672   2689     1
   2672   2686     1
   2672   2685     1
   2673   2679     1
   2673   2688     1
   2673   9784     1
   2676   2682     1
   2676   9711     1
   2676   2687     1
   2679   9713     1
   2682   9786     1
   2685   9715     1
   2686   9788     1
   2687   9713     1
   2688   9786     1
   2691   2707     1
   2691   2704     1
   2694   2698     1
   2694   2701     1
   2697   2714     1
   2697   2711     1
   2697   2710     1
   2698   2704     1
   2698   2713     1
   2698   9930     1
   2701   2707     1
   2701   9857     1
   2701   2712     1
   2704   9859     1
   2707   9932     1
   2710   9861     1
   2711   9934     1
   2712   9859     1
   2713   9932     1
   2716   2732     1
   2716   2729     1
   2719   2723     1
   2719   2726     1
   2722   2739     1
   2722   2736     1
   2722   2735     1
   2723   2729     1
   2723   2738     1
   2723  10076     1
   2726   2732     1
   2726  10003     1
   2726   2737     1
   2729  10005     1
   2732  10078     1
   2735  10007     1
   2736  10080     1
   2737  10005     1
   2738  10078     1
   2741   2757     1
   2741   2754     1
   2744   2748     1
   2744   2751     1
   2747   2764     1
   2747   2761     1
   2747   2760     1
   2748   2754     1
   2748   2763     1
   2748  10222     1
   2751   2757     1
   2751  10149     1
   2751   2762     1
   2754  10151     1
   2757  10224     1
   2760  10153     1
   2761  10226     1
   2762  10151     1
   2763  10224     1
   2766   2782     1
   2766   2779     1
   2769   2773     1
   2769   2776     1
   2772   2789     1
   2772   2786     1
   2772   2785     1
   2773   2779     1
   2773   2788     1
   2773  10368     1
   2776   2782     1
   2776  10295     1
   2776   2787     1
   2779  10297     1
   2782  10370     1
   2785  10299     1
   2786  10372     1
   2787  10297     1
   2788  10370     1
   2791   2807     1
   2791   2804     1
   2794   2798     1
   2794   2801     1
   2797   2814     1
   2797   2811     1
   2797   2810     1
   2798   2804     1
   2798   2813     1
   2798  10514     1
   2801   2807     1
   2801  10441     1
   2801   2812     1
   2804  10443     1
   2807  10516     1
   2810  10445     1
   2811  10518     1
   2812  10443     1
   2813  10516     1
   2816   2832     1
   2816   2829     1
   2819   2823     1
   2819   2826     1
   2822   2839     1
   2822   2836     1
   2822   2835     1
   2823   2829     1
   2823   2838     1
   2823  10660     1
   2826   2832     1
   2826  10587     1
   2826   2837     1
   2829  10589     1
   2832  10662     1
   2835  10591     1
   2836  10664     1
   2837  10589     1
   2838  10662     1
   2841   2857     1
   2841   2854     1
   2844   2848     1
   2844   2851     1
   2847   2864     1
   2847   2861     1
   2847   2860     1
   2848   2854     1
   2848   2863     1
   2848  10806     1
   2851   2857     1
   2851  10733     1
   2851   2862     1
   2854  10735     1
   2857  10808     1
   2860  10737     1
   2861  10810     1
   2862  10735     1
   2863  10808     1
   2866   2882     1
   2866   2879     1
   2869   2873     1
   2869   2876     1
   2872   2889     1
   2872   2886     1
   2872   2885     1
   2873   2879     1
   2873   2888     1
   2873  10952     1
   2876   2882     1
   2876  10879     1
   2876   2887     1
   2879  10881     1
   2882  10954     1
   2885  10883     1
   2886  10956     1
   2887  10881     1
   2888  10954     1
   2891   2907     1
   2891   2904     1
   2894   2898     1
   2894   2901     1
   2897   2914     1
   2897   2911     1
   2897   2910     1
   2898   2904     1
   2898   2913     1
   2898  11098     1
   2901   2907     1
   2901  11025     1
   2901   2912     1
   2904  11027     1
   2907  11100     1
   2910  11029     1
   2911  11102     1
   2912  11027     1
   2913  11100     1
   2916   2932     1
   2916   2929     1
   2919   2923     1
   2919   2926     1
   2922   2939     1
   2922   2936     1
   2922   2935     1
   2923   2929     1
   2923   2938     1
   2923  11244     1
   2926   2932     1
   2926  11171     1
   2926   2937     1
   2929  11173     1
   2932  11246     1
   2935  11175     1
   2936  11248     1
   2937  11173     1
   2938  11246     1
   2941   2957     1
   2941   2954     1
   2944   2948     1
   2944   2951     1
   2947   2964     1
   2947   2961     1
   2947   2960     1
   2948   2954     1
   2948   2963     1
   2948  11390     1
   2951   2957     1
   2951  11317     1
   2951   2962     1
   2954  11319     1
   2957  11392     1
   2960  11321     1
   2961  11394     1
   2962  11319     1
   2963  11392     1
   2966   2982     1
   2966   2979     1
   2969   2973     1
   2969   2976     1
   2972   2989     1
   2972   2986     1
   2972   2985     1
   2973   2979     1
   2973   2988     1
   2973  11536     1
   2976   2982     1
   2976  11463     1
   2976   2987     1
   2979  11465     1
   2982  11538     1
   2985  11467     1
   2986  11540     1
   2987  11465     1
   2988  11538     1
   2991   3007     1
   2991   3004     1
   2994   2998     1
   2994   3001     1
   2997   3014     1
   2997   3011     1
   2997   3010     1
   2998   3004     1
   2998   3013     1
   2998  11682     1
   3001   3007     1
   3001  11609     1
   3001   3012     1
   3004  11611     1
   3007  11684     1
   3010  11613     1
   3011  11686     1
   3012  11611     1
   3013  11684     1
   3016   3032     1
   3016   3029     1
   3019   3023     1
   3019   3026     1
   3022   3039     1
   3022   3036     1
   3022   3035     1
   3023   3029     1
   3023   3038     1
   3023  11828     1
   3026   3032     1
   3026  11755     1
   3026   3037     1
   3029  11757     1
   3032  11830     1
   3035  11759     1
   3036  11832     1
   3037  11757     1
   3038  11830     1
   3041   3057     1
   3041   3054     1
   3044   3048     1
   3044   3051     1
   3047   3064     1
   3047   3061     1
   3047   3060     1
   3048   3054     1
   3048   3063     1
   3048  11974     1
   3051   3057     1
   3051  11901     1
   3051   3062     1
   3054  11903     1
   3057  11976     1
   3060  11905     1
   3061  11978     1
   3062  11903     1
   3063  11976     1
   3066   3082     1
   3066   3079     1
   3069   3073     1
   3069   3076     1
   3072   3089     1
   3072   3086     1
   3072   3085     1
   3073   3079     1
   3073   3088     1
   3073  12120     1
   3076   3082     1
   3076  12047     1
   3076   3087     1
   3079  12049     1
   3082  12122     1
   3085  12051     1
   3086  12124     1
   3087  12049     1
   3088  12122     1
   3091   3107     1
   3091   3104     1
   3094   3098     1
   3094   3101     1
   3097   3114     1
   3097   3111     1
   3097   3110     1
   3098   3104     1
   3098   3113     1
   3098  12266     1
   3101   3107     1
   3101  12193     1
   3101   3112     1
   3104  12195     1
   3107  12268     1
   3110  12197     1
   3111  12270     1
   3112  12195     1
   3113  12268     1
   3116   3132     1
   3116   3129     1
   3119   3123     1
   3119   3126     1
   3122   3139     1
   3122   3136     1
   3122   3135     1
   3123   3129     1
   3123  12412     1
   3123   3138     1
   3126   3132     1
   3126  12339     1
   3126   3137     1
   3129  12341     1
   3132  12414     1
   3135  12343     1
   3136  12416     1
   3137  12341     1
   3138  12414     1
   3141   3149     1
   3143   3150     1
   3143   3151     1
   3145   3161     1
   3145   3153     1
   3149   3164     1
   3149   3157     1
   3150   3153     1
   3150   3165     1
   3150   3213     1
   3151   3161     1
   3151   3158     1
   3151   3189     1
   3153   3170     1
   3157   3169     1
   3157   3171     1
   3158   3170     1
   3161   3194     1
   3164   3193     1
   3164   3195     1
   3165   3194     1
   3166   3170     1
   3166   3176     1
   3166   3175     1
   3167   3182     1
   3167   3171     1
   3167   3189     1
   3169   3177     1
   3169   3184     1
   3169   3175     1
   3170   3187     1
   3171   3176     1
   3171   3177     1
   3175   3189     1
   3176   3187     1
   3176   3189     1
   3177   3187     1
   3182   3184     1
   3184   3187     1
   3184   3189     1
   3190   3194     1
   3190   3200     1
   3190   3199     1
   3191   3206     1
   3191   3195     1
   3191   3213     1
   3193   3201     1
   3193   3208     1
   3193   3199     1
   3194   3211     1
   3195   3200     1
   3195   3201     1
   3199   3213     1
   3200   3211     1
   3200   3213     1
   3201   3211     1
   3206   3208     1
   3208   3211     1
   3208   3213     1
   3214   3222     1
   3216   3223     1
   3216   3224     1
   3218   3234     1
   3218   3226     1
   3222   3237     1
   3222   3230     1
   3223   3238     1
   3223   3286     1
   3223   3226     1
   3224   3231     1
   3224   3262     1
   3224   3234     1
   3226   3243     1
   3230   3244     1
   3230   3242     1
   3231   3243     1
   3234   3267     1
   3237   3268     1
   3237   3266     1
   3238   3267     1
   3239   3243     1
   3239   3249     1
   3239   3248     1
   3240   3244     1
   3240   3262     1
   3240   3255     1
   3242   3248     1
   3242   3257     1
   3242   3250     1
   3243   3260     1
   3244   3250     1
   3244   3249     1
   3248   3262     1
   3249   3262     1
   3249   3260     1
   3250   3260     1
   3255   3257     1
   3257   3262     1
   3257   3260     1
   3263   3267     1
   3263   3273     1
   3263   3272     1
   3264   3268     1
   3264   3286     1
   3264   3279     1
   3266   3272     1
   3266   3281     1
   3266   3274     1
   3267   3284     1
   3268   3274     1
   3268   3273     1
   3272   3286     1
   3273   3286     1
   3273   3284     1
   3274   3284     1
   3279   3281     1
   3281   3286     1
   3281   3284     1
   3287   3295     1
   3289   3296     1
   3289   3297     1
   3291   3307     1
   3291   3299     1
   3295   3310     1
   3295   3303     1
   3296   3299     1
   3296   3311     1
   3296   3359     1
   3297   3307     1
   3297   3304     1
   3297   3335     1
   3299   3316     1
   3303   3315     1
   3303   3317     1
   3304   3316     1
   3307   3340     1
   3310   3339     1
   3310   3341     1
   3311   3340     1
   3312   3316     1
   3312   3322     1
   3312   3321     1
   3313   3328     1
   3313   3317     1
   3313   3335     1
   3315   3323     1
   3315   3330     1
   3315   3321     1
   3316   3333     1
   3317   3322     1
   3317   3323     1
   3321   3335     1
   3322   3333     1
   3322   3335     1
   3323   3333     1
   3328   3330     1
   3330   3333     1
   3330   3335     1
   3336   3340     1
   3336   3346     1
   3336   3345     1
   3337   3352     1
   3337   3341     1
   3337   3359     1
   3339   3347     1
   3339   3354     1
   3339   3345     1
   3340   3357     1
   3341   3346     1
   3341   3347     1
   3345   3359     1
   3346   3357     1
   3346   3359     1
   3347   3357     1
   3352   3354     1
   3354   3357     1
   3354   3359     1
   3360   3368     1
   3362   3369     1
   3362   3370     1
   3364   3380     1
   3364   3372     1
   3368   3383     1
   3368   3376     1
   3369   3384     1
   3369   3432     1
   3369   3372     1
   3370   3377     1
   3370   3408     1
   3370   3380     1
   3372   3389     1
   3376   3390     1
   3376   3388     1
   3377   3389     1
   3380   3413     1
   3383   3414     1
   3383   3412     1
   3384   3413     1
   3385   3389     1
   3385   3395     1
   3385   3394     1
   3386   3390     1
   3386   3408     1
   3386   3401     1
   3388   3394     1
   3388   3403     1
   3388   3396     1
   3389   3406     1
   3390   3396     1
   3390   3395     1
   3394   3408     1
   3395   3408     1
   3395   3406     1
   3396   3406     1
   3401   3403     1
   3403   3408     1
   3403   3406     1
   3409   3413     1
   3409   3419     1
   3409   3418     1
   3410   3414     1
   3410   3432     1
   3410   3425     1
   3412   3418     1
   3412   3427     1
   3412   3420     1
   3413   3430     1
   3414   3420     1
   3414   3419     1
   3418   3432     1
   3419   3432     1
   3419   3430     1
   3420   3430     1
   3425   3427     1
   3427   3432     1
   3427   3430     1
   3433   3441     1
   3435   3442     1
   3435   3443     1
   3437   3453     1
   3437   3445     1
   3441   3456     1
   3441   3449     1
   3442   3445     1
   3442   3457     1
   3442   3505     1
   3443   3453     1
   3443   3450     1
   3443   3481     1
   3445   3462     1
   3449   3461     1
   3449   3463     1
   3450   3462     1
   3453   3486     1
   3456   3485     1
   3456   3487     1
   3457   3486     1
   3458   3462     1
   3458   3468     1
   3458   3467     1
   3459   3474     1
   3459   3463     1
   3459   3481     1
   3461   3469     1
   3461   3476     1
   3461   3467     1
   3462   3479     1
   3463   3468     1
   3463   3469     1
   3467   3481     1
   3468   3479     1
   3468   3481     1
   3469   3479     1
   3474   3476     1
   3476   3479     1
   3476   3481     1
   3482   3486     1
   3482   3492     1
   3482   3491     1
   3483   3498     1
   3483   3487     1
   3483   3505     1
   3485   3493     1
   3485   3500     1
   3485   3491     1
   3486   3503     1
   3487   3492     1
   3487   3493     1
   3491   3505     1
   3492   3503     1
   3492   3505     1
   3493   3503     1
   3498   3500     1
   3500   3503     1
   3500   3505     1
   3506   3514     1
   3508   3515     1
   3508   3516     1
   3510   3526     1
   3510   3518     1
   3514   3529     1
   3514   3522     1
   3515   3530     1
   3515   3578     1
   3515   3518     1
   3516   3523     1
   3516   3554     1
   3516   3526     1
   3518   3535     1
   3522   3536     1
   3522   3534     1
   3523   3535     1
   3526   3559     1
   3529   3560     1
   3529   3558     1
   3530   3559     1
   3531   3535     1
   3531   3541     1
   3531   3540     1
   3532   3536     1
   3532   3554     1
   3532   3547     1
   3534   3540     1
   3534   3549     1
   3534   3542     1
   3535   3552     1
   3536   3542     1
   3536   3541     1
   3540   3554     1
   3541   3554     1
   3541   3552     1
   3542   3552     1
   3547   3549     1
   3549   3554     1
   3549   3552     1
   3555   3559     1
   3555   3565     1
   3555   3564     1
   3556   3560     1
   3556   3578     1
   3556   3571     1
   3558   3564     1
   3558   3573     1
   3558   3566     1
   3559   3576     1
   3560   3566     1
   3560   3565     1
   3564   3578     1
   3565   3578     1
   3565   3576     1
   3566   3576     1
   3571   3573     1
   3573   3578     1
   3573   3576     1
   3579   3587     1
   3581   3588     1
   3581   3589     1
   3583   3599     1
   3583   3591     1
   3587   3602     1
   3587   3595     1
   3588   3591     1
   3588   3603     1
   3588   3651     1
   3589   3599     1
   3589   3596     1
   3589   3627     1
   3591   3608     1
   3595   3607     1
   3595   3609     1
   3596   3608     1
   3599   3632     1
   3602   3631     1
   3602   3633     1
   3603   3632     1
   3604   3608     1
   3604   3614     1
   3604   3613     1
   3605   3620     1
   3605   3609     1
   3605   3627     1
   3607   3615     1
   3607   3622     1
   3607   3613     1
   3608   3625     1
   3609   3614     1
   3609   3615     1
   3613   3627     1
   3614   3625     1
   3614   3627     1
   3615   3625     1
   3620   3622     1
   3622   3625     1
   3622   3627     1
   3628   3632     1
   3628   3638     1
   3628   3637     1
   3629   3644     1
   3629   3633     1
   3629   3651     1
   3631   3639     1
   3631   3646     1
   3631   3637     1
   3632   3649     1
   3633   3638     1
   3633   3639     1
   3637   3651     1
   3638   3649     1
   3638   3651     1
   3639   3649     1
   3644   3646     1
   3646   3649     1
   3646   3651     1
   3652   3660     1
   3654   3661     1
   3654   3662     1
   3656   3672     1
   3656   3664     1
   3660   3675     1
   3660   3668     1
   3661   3676     1
   3661   3724     1
   3661   3664     1
   3662   3669     1
   3662   3700     1
   3662   3672     1
   3664   3681     1
   3668   3682     1
   3668   3680     1
   3669   3681     1
   3672   3705     1
   3675   3706     1
   3675   3704     1
   3676   3705     1
   3677   3681     1
   3677   3687     1
   3677   3686     1
   3678   3682     1
   3678   3700     1
   3678   3693     1
   3680   3686     1
   3680   3695     1
   3680   3688     1
   3681   3698     1
   3682   3688     1
   3682   3687     1
   3686   3700     1
   3687   3700     1
   3687   3698     1
   3688   3698     1
   3693   3695     1
   3695   3700     1
   3695   3698     1
   3701   3705     1
   3701   3711     1
   3701   3710     1
   3702   3706     1
   3702   3724     1
   3702   3717     1
   3704   3710     1
   3704   3719     1
   3704   3712     1
   3705   3722     1
   3706   3712     1
   3706   3711     1
   3710   3724     1
   3711   3724     1
   3711   3722     1
   3712   3722     1
   3717   3719     1
   3719   3724     1
   3719   3722     1
   3725   3733     1
   3727   3734     1
   3727   3735     1
   3729   3745     1
   3729   3737     1
   3733   3748     1
   3733   3741     1
   3734   3737     1
   3734   3749     1
   3734   3797     1
   3735   3745     1
   3735   3742     1
   3735   3773     1
   3737   3754     1
   3741   3753     1
   3741   3755     1
   3742   3754     1
   3745   3778     1
   3748   3777     1
   3748   3779     1
   3749   3778     1
   3750   3754     1
   3750   3760     1
   3750   3759     1
   3751   3766     1
   3751   3755     1
   3751   3773     1
   3753   3761     1
   3753   3768     1
   3753   3759     1
   3754   3771     1
   3755   3760     1
   3755   3761     1
   3759   3773     1
   3760   3771     1
   3760   3773     1
   3761   3771     1
   3766   3768     1
   3768   3771     1
   3768   3773     1
   3774   3778     1
   3774   3784     1
   3774   3783     1
   3775   3790     1
   3775   3779     1
   3775   3797     1
   3777   3785     1
   3777   3792     1
   3777   3783     1
   3778   3795     1
   3779   3784     1
   3779   3785     1
   3783   3797     1
   3784   3795     1
   3784   3797     1
   3785   3795     1
   3790   3792     1
   3792   3795     1
   3792   3797     1
   3798   3806     1
   3800   3807     1
   3800   3808     1
   3802   3818     1
   3802   3810     1
   3806   3821     1
   3806   3814     1
   3807   3822     1
   3807   3870     1
   3807   3810     1
   3808   3815     1
   3808   3846     1
   3808   3818     1
   3810   3827     1
   3814   3828     1
   3814   3826     1
   3815   3827     1
   3818   3851     1
   3821   3852     1
   3821   3850     1
   3822   3851     1
   3823   3827     1
   3823   3833     1
   3823   3832     1
   3824   3828     1
   3824   3846     1
   3824   3839     1
   3826   3832     1
   3826   3841     1
   3826   3834     1
   3827   3844     1
   3828   3834     1
   3828   3833     1
   3832   3846     1
   3833   3846     1
   3833   3844     1
   3834   3844     1
   3839   3841     1
   3841   3846     1
   3841   3844     1
   3847   3851     1
   3847   3857     1
   3847   3856     1
   3848   3852     1
   3848   3870     1
   3848   3863     1
   3850   3856     1
   3850   3865     1
   3850   3858     1
   3851   3868     1
   3852   3858     1
   3852   3857     1
   3856   3870     1
   3857   3870     1
   3857   3868     1
   3858   3868     1
   3863   3865     1
   3865   3870     1
   3865   3868     1
   3871   3879     1
   3873   3880     1
   3873   3881     1
   3875   3891     1
   3875   3883     1
   3879   3894     1
   3879   3887     1
   3880   3883     1
   3880   3895     1
   3880   3943     1
   3881   3891     1
   3881   3888     1
   3881   3919     1
   3883   3900     1
   3887   3899     1
   3887   3901     1
   3888   3900     1
   3891   3924     1
   3894   3923     1
   3894   3925     1
   3895   3924     1
   3896   3900     1
   3896   3906     1
   3896   3905     1
   3897   3912     1
   3897   3901     1
   3897   3919     1
   3899   3907     1
   3899   3914     1
   3899   3905     1
   3900   3917     1
   3901   3906     1
   3901   3907     1
   3905   3919     1
   3906   3917     1
   3906   3919     1
   3907   3917     1
   3912   3914     1
   3914   3917     1
   3914   3919     1
   3920   3924     1
   3920   3930     1
   3920   3929     1
   3921   3936     1
   3921   3925     1
   3921   3943     1
   3923   3931     1
   3923   3938     1
   3923   3929     1
   3924   3941     1
   3925   3930     1
   3925   3931     1
   3929   3943     1
   3930   3941     1
   3930   3943     1
   3931   3941     1
   3936   3938     1
   3938   3941     1
   3938   3943     1
   3944   3952     1
   3946   3953     1
   3946   3954     1
   3948   3964     1
   3948   3956     1
   3952   3967     1
   3952   3960     1
   3953   3968     1
   3953   4016     1
   3953   3956     1
   3954   3961     1
   3954   3992     1
   3954   3964     1
   3956   3973     1
   3960   3974     1
   3960   3972     1
   3961   3973     1
   3964   3997     1
   3967   3998     1
   3967   3996     1
   3968   3997     1
   3969   3973     1
   3969   3979     1
   3969   3978     1
   3970   3974     1
   3970   3992     1
   3970   3985     1
   3972   3978     1
   3972   3987     1
   3972   3980     1
   3973   3990     1
   3974   3980     1
   3974   3979     1
   3978   3992     1
   3979   3992     1
   3979   3990     1
   3980   3990     1
   3985   3987     1
   3987   3992     1
   3987   3990     1
   3993   3997     1
   3993   4003     1
   3993   4002     1
   3994   3998     1
   3994   4016     1
   3994   4009     1
   3996   4002     1
   3996   4011     1
   3996   4004     1
   3997   4014     1
   3998   4004     1
   3998   4003     1
   4002   4016     1
   4003   4016     1
   4003   4014     1
   4004   4014     1
   4009   4011     1
   4011   4016     1
   4011   4014     1
   4017   4025     1
   4019   4026     1
   4019   4027     1
   4021   4037     1
   4021   4029     1
   4025   4040     1
   4025   4033     1
   4026   4029     1
   4026   4041     1
   4026   4089     1
   4027   4037     1
   4027   4034     1
   4027   4065     1
   4029   4046     1
   4033   4045     1
   4033   4047     1
   4034   4046     1
   4037   4070     1
   4040   4069     1
   4040   4071     1
   4041   4070     1
   4042   4046     1
   4042   4052     1
   4042   4051     1
   4043   4058     1
   4043   4047     1
   4043   4065     1
   4045   4053     1
   4045   4060     1
   4045   4051     1
   4046   4063     1
   4047   4052     1
   4047   4053     1
   4051   4065     1
   4052   4063     1
   4052   4065     1
   4053   4063     1
   4058   4060     1
   4060   4063     1
   4060   4065     1
   4066   4070     1
   4066   4076     1
   4066   4075     1
   4067   4082     1
   4067   4071     1
   4067   4089     1
   4069   4077     1
   4069   4084     1
   4069   4075     1
   4070   4087     1
   4071   4076     1
   4071   4077     1
   4075   4089     1
   4076   4087     1
   4076   4089     1
   4077   4087     1
   4082   4084     1
   4084   4087     1
   4084   4089     1
   4090   4098     1
   4092   4099     1
   4092   4100     1
   4094   4110     1
   4094   4102     1
   4098   4113     1
   4098   4106     1
   4099   4114     1
   4099   4162     1
   4099   4102     1
   4100   4107     1
   4100   4138     1
   4100   4110     1
   4102   4119     1
   4106   4120     1
   4106   4118     1
   4107   4119     1
   4110   4143     1
   4113   4144     1
   4113   4142     1
   4114   4143     1
   4115   4119     1
   4115   4125     1
   4115   4124     1
   4116   4120     1
   4116   4138     1
   4116   4131     1
   4118   4124     1
   4118   4133     1
   4118   4126     1
   4119   4136     1
   4120   4126     1
   4120   4125     1
   4124   4138     1
   4125   4138     1
   4125   4136     1
   4126   4136     1
   4131   4133     1
   4133   4138     1
   4133   4136     1
   4139   4143     1
   4139   4149     1
   4139   4148     1
   4140   4144     1
   4140   4162     1
   4140   4155     1
   4142   4148     1
   4142   4157     1
   4142   4150     1
   4143   4160     1
   4144   4150     1
   4144   4149     1
   4148   4162     1
   4149   4162     1
   4149   4160     1
   4150   4160     1
   4155   4157     1
   4157   4162     1
   4157   4160     1
   4163   4171     1
   4165   4172     1
   4165   4173     1
   4167   4183     1
   4167   4175     1
   4171   4186     1
   4171   4179     1
   4172   4175     1
   4172   4187     1
   4172   4235     1
   4173   4183     1
   4173   4180     1
   4173   4211     1
   4175   4192     1
   4179   4191     1
   4179   4193     1
   4180   4192     1
   4183   4216     1
   4186   4215     1
   4186   4217     1
   4187   4216     1
   4188   4192     1
   4188   4198     1
   4188   4197     1
   4189   4204     1
   4189   4193     1
   4189   4211     1
   4191   4199     1
   4191   4206     1
   4191   4197     1
   4192   4209     1
   4193   4198     1
   4193   4199     1
   4197   4211     1
   4198   4209     1
   4198   4211     1
   4199   4209     1
   4204   4206     1
   4206   4209     1
   4206   4211     1
   4212   4216     1
   4212   4222     1
   4212   4221     1
   4213   4228     1
   4213   4217     1
   4213   4235     1
   4215   4223     1
   4215   4230     1
   4215   4221     1
   4216   4233     1
   4217   4222     1
   4217   4223     1
   4221   4235     1
   4222   4233     1
   4222   4235     1
   4223   4233     1
   4228   4230     1
   4230   4233     1
   4230   4235     1
   4236   4244     1
   4238   4245     1
   4238   4246     1
   4240   4256     1
   4240   4248     1
   4244   4259     1
   4244   4252     1
   4245   4260     1
   4245   4308     1
   4245   4248     1
   4246   4253     1
   4246   4284     1
   4246   4256     1
   4248   4265     1
   4252   4266     1
   4252   4264     1
   4253   4265     1
   4256   4289     1
   4259   4290     1
   4259   4288     1
   4260   4289     1
   4261   4265     1
   4261   4271     1
   4261   4270     1
   4262   4266     1
   4262   4284     1
   4262   4277     1
   4264   4270     1
   4264   4279     1
   4264   4272     1
   4265   4282     1
   4266   4272     1
   4266   4271     1
   4270   4284     1
   4271   4284     1
   4271   4282     1
   4272   4282     1
   4277   4279     1
   4279   4284     1
   4279   4282     1
   4285   4289     1
   4285   4295     1
   4285   4294     1
   4286   4290     1
   4286   4308     1
   4286   4301     1
   4288   4294     1
   4288   4303     1
   4288   4296     1
   4289   4306     1
   4290   4296     1
   4290   4295     1
   4294   4308     1
   4295   4308     1
   4295   4306     1
   4296   4306     1
   4301   4303     1
   4303   4308     1
   4303   4306     1
   4309   4317     1
   4311   4318     1
   4311   4319     1
   4313   4329     1
   4313   4321     1
   4317   4332     1
   4317   4325     1
   4318   4321     1
   4318   4333     1
   4318   4381     1
   4319   4329     1
   4319   4326     1
   4319   4357     1
   4321   4338     1
   4325   4337     1
   4325   4339     1
   4326   4338     1
   4329   4362     1
   4332   4361     1
   4332   4363     1
   4333   4362     1
   4334   4338     1
   4334   4344     1
   4334   4343     1
   4335   4350     1
   4335   4339     1
   4335   4357     1
   4337   4345     1
   4337   4352     1
   4337   4343     1
   4338   4355     1
   4339   4344     1
   4339   4345     1
   4343   4357     1
   4344   4355     1
   4344   4357     1
   4345   4355     1
   4350   4352     1
   4352   4355     1
   4352   4357     1
   4358   4362     1
   4358   4368     1
   4358   4367     1
   4359   4374     1
   4359   4363     1
   4359   4381     1
   4361   4369     1
   4361   4376     1
   4361   4367     1
   4362   4379     1
   4363   4368     1
   4363   4369     1
   4367   4381     1
   4368   4379     1
   4368   4381     1
   4369   4379     1
   4374   4376     1
   4376   4379     1
   4376   4381     1
   4382   4390     1
   4384   4391     1
   4384   4392     1
   4386   4402     1
   4386   4394     1
   4390   4405     1
   4390   4398     1
   4391   4406     1
   4391   4454     1
   4391   4394     1
   4392   4399     1
   4392   4430     1
   4392   4402     1
   4394   4411     1
   4398   4412     1
   4398   4410     1
   4399   4411     1
   4402   4435     1
   4405   4436     1
   4405   4434     1
   4406   4435     1
   4407   4411     1
   4407   4417     1
   4407   4416     1
   4408   4412     1
   4408   4430     1
   4408   4423     1
   4410   4416     1
   4410   4425     1
   4410   4418     1
   4411   4428     1
   4412   4418     1
   4412   4417     1
   4416   4430     1
   4417   4430     1
   4417   4428     1
   4418   4428     1
   4423   4425     1
   4425   4430     1
   4425   4428     1
   4431   4435     1
   4431   4441     1
   4431   4440     1
   4432   4436     1
   4432   4454     1
   4432   4447     1
   4434   4440     1
   4434   4449     1
   4434   4442     1
   4435   4452     1
   4436   4442     1
   4436   4441     1
   4440   4454     1
   4441   4454     1
   4441   4452     1
   4442   4452     1
   4447   4449     1
   4449   4454     1
   4449   4452     1
   4455   4463     1
   4457   4464     1
   4457   4465     1
   4459   4475     1
   4459   4467     1
   4463   4478     1
   4463   4471     1
   4464   4467     1
   4464   4479     1
   4464   4527     1
   4465   4475     1
   4465   4472     1
   4465   4503     1
   4467   4484     1
   4471   4483     1
   4471   4485     1
   4472   4484     1
   4475   4508     1
   4478   4507     1
   4478   4509     1
   4479   4508     1
   4480   4484     1
   4480   4490     1
   4480   4489     1
   4481   4496     1
   4481   4485     1
   4481   4503     1
   4483   4491     1
   4483   4498     1
   4483   4489     1
   4484   4501     1
   4485   4490     1
   4485   4491     1
   4489   4503     1
   4490   4501     1
   4490   4503     1
   4491   4501     1
   4496   4498     1
   4498   4501     1
   4498   4503     1
   4504   4508     1
   4504   4514     1
   4504   4513     1
   4505   4520     1
   4505   4509     1
   4505   4527     1
   4507   4515     1
   4507   4522     1
   4507   4513     1
   4508   4525     1
   4509   4514     1
   4509   4515     1
   4513   4527     1
   4514   4525     1
   4514   4527     1
   4515   4525     1
   4520   4522     1
   4522   4525     1
   4522   4527     1
   4528   4536     1
   4530   4537     1
   4530   4538     1
   4532   4548     1
   4532   4540     1
   4536   4551     1
   4536   4544     1
   4537   4552     1
   4537   4600     1
   4537   4540     1
   4538   4545     1
   4538   4576     1
   4538   4548     1
   4540   4557     1
   4544   4558     1
   4544   4556     1
   4545   4557     1
   4548   4581     1
   4551   4582     1
   4551   4580     1
   4552   4581     1
   4553   4557     1
   4553   4563     1
   4553   4562     1
   4554   4558     1
   4554   4576     1
   4554   4569     1
   4556   4562     1
   4556   4571     1
   4556   4564     1
   4557   4574     1
   4558   4564     1
   4558   4563     1
   4562   4576     1
   4563   4576     1
   4563   4574     1
   4564   4574     1
   4569   4571     1
   4571   4576     1
   4571   4574     1
   4577   4581     1
   4577   4587     1
   4577   4586     1
   4578   4582     1
   4578   4600     1
   4578   4593     1
   4580   4586     1
   4580   4595     1
   4580   4588     1
   4581   4598     1
   4582   4588     1
   4582   4587     1
   4586   4600     1
   4587   4600     1
   4587   4598     1
   4588   4598     1
   4593   4595     1
   4595   4600     1
   4595   4598     1
   4601   4609     1
   4603   4610     1
   4603   4611     1
   4605   4621     1
   4605   4613     1
   4609   4624     1
   4609   4617     1
   4610   4613     1
   4610   4625     1
   4610   4673     1
   4611   4621     1
   4611   4618     1
   4611   4649     1
   4613   4630     1
   4617   4629     1
   4617   4631     1
   4618   4630     1
   4621   4654     1
   4624   4653     1
   4624   4655     1
   4625   4654     1
   4626   4630     1
   4626   4636     1
   4626   4635     1
   4627   4642     1
   4627   4631     1
   4627   4649     1
   4629   4637     1
   4629   4644     1
   4629   4635     1
   4630   4647     1
   4631   4636     1
   4631   4637     1
   4635   4649     1
   4636   4647     1
   4636   4649     1
   4637   4647     1
   4642   4644     1
   4644   4647     1
   4644   4649     1
   4650   4654     1
   4650   4660     1
   4650   4659     1
   4651   4666     1
   4651   4655     1
   4651   4673     1
   4653   4661     1
   4653   4668     1
   4653   4659     1
   4654   4671     1
   4655   4660     1
   4655   4661     1
   4659   4673     1
   4660   4671     1
   4660   4673     1
   4661   4671     1
   4666   4668     1
   4668   4671     1
   4668   4673     1
   4674   4682     1
   4676   4683     1
   4676   4684     1
   4678   4694     1
   4678   4686     1
   4682   4697     1
   4682   4690     1
   4683   4698     1
   4683   4746     1
   4683   4686     1
   4684   4691     1
   4684   4722     1
   4684   4694     1
   4686   4703     1
   4690   4704     1
   4690   4702     1
   4691   4703     1
   4694   4727     1
   4697   4728     1
   4697   4726     1
   4698   4727     1
   4699   4703     1
   4699   4709     1
   4699   4708     1
   4700   4704     1
   4700   4722     1
   4700   4715     1
   4702   4708     1
   4702   4717     1
   4702   4710     1
   4703   4720     1
   4704   4710     1
   4704   4709     1
   4708   4722     1
   4709   4722     1
   4709   4720     1
   4710   4720     1
   4715   4717     1
   4717   4722     1
   4717   4720     1
   4723   4727     1
   4723   4733     1
   4723   4732     1
   4724   4728     1
   4724   4746     1
   4724   4739     1
   4726   4732     1
   4726   4741     1
   4726   4734     1
   4727   4744     1
   4728   4734     1
   4728   4733     1
   4732   4746     1
   4733   4746     1
   4733   4744     1
   4734   4744     1
   4739   4741     1
   4741   4746     1
   4741   4744     1
   4747   4755     1
   4749   4756     1
   4749   4757     1
   4751   4767     1
   4751   4759     1
   4755   4770     1
   4755   4763     1
   4756   4759     1
   4756   4771     1
   4756   4819     1
   4757   4767     1
   4757   4764     1
   4757   4795     1
   4759   4776     1
   4763   4775     1
   4763   4777     1
   4764   4776     1
   4767   4800     1
   4770   4799     1
   4770   4801     1
   4771   4800     1
   4772   4776     1
   4772   4782     1
   4772   4781     1
   4773   4788     1
   4773   4777     1
   4773   4795     1
   4775   4783     1
   4775   4790     1
   4775   4781     1
   4776   4793     1
   4777   4782     1
   4777   4783     1
   4781   4795     1
   4782   4793     1
   4782   4795     1
   4783   4793     1
   4788   4790     1
   4790   4793     1
   4790   4795     1
   4796   4800     1
   4796   4806     1
   4796   4805     1
   4797   4812     1
   4797   4801     1
   4797   4819     1
   4799   4807     1
   4799   4814     1
   4799   4805     1
   4800   4817     1
   4801   4806     1
   4801   4807     1
   4805   4819     1
   4806   4817     1
   4806   4819     1
   4807   4817     1
   4812   4814     1
   4814   4817     1
   4814   4819     1
   4820   4828     1
   4822   4829     1
   4822   4830     1
   4824   4840     1
   4824   4832     1
   4828   4843     1
   4828   4836     1
   4829   4844     1
   4829   4892     1
   4829   4832     1
   4830   4837     1
   4830   4868     1
   4830   4840     1
   4832   4849     1
   4836   4850     1
   4836   4848     1
   4837   4849     1
   4840   4873     1
   4843   4874     1
   4843   4872     1
   4844   4873     1
   4845   4849     1
   4845   4855     1
   4845   4854     1
   4846   4850     1
   4846   4868     1
   4846   4861     1
   4848   4854     1
   4848   4863     1
   4848   4856     1
   4849   4866     1
   4850   4856     1
   4850   4855     1
   4854   4868     1
   4855   4868     1
   4855   4866     1
   4856   4866     1
   4861   4863     1
   4863   4868     1
   4863   4866     1
   4869   4873     1
   4869   4879     1
   4869   4878     1
   4870   4874     1
   4870   4892     1
   4870   4885     1
   4872   4878     1
   4872   4887     1
   4872   4880     1
   4873   4890     1
   4874   4880     1
   4874   4879     1
   4878   4892     1
   4879   4892     1
   4879   4890     1
   4880   4890     1
   4885   4887     1
   4887   4892     1
   4887   4890     1
   4893   4901     1
   4895   4902     1
   4895   4903     1
   4897   4913     1
   4897   4905     1
   4901   4916     1
   4901   4909     1
   4902   4905     1
   4902   4917     1
   4902   4965     1
   4903   4913     1
   4903   4910     1
   4903   4941     1
   4905   4922     1
   4909   4921     1
   4909   4923     1
   4910   4922     1
   4913   4946     1
   4916   4945     1
   4916   4947     1
   4917   4946     1
   4918   4922     1
   4918   4928     1
   4918   4927     1
   4919   4934     1
   4919   4923     1
   4919   4941     1
   4921   4929     1
   4921   4936     1
   4921   4927     1
   4922   4939     1
   4923   4928     1
   4923   4929     1
   4927   4941     1
   4928   4939     1
   4928   4941     1
   4929   4939     1
   4934   4936     1
   4936   4939     1
   4936   4941     1
   4942   4946     1
   4942   4952     1
   4942   4951     1
   4943   4958     1
   4943   4947     1
   4943   4965     1
   4945   4953     1
   4945   4960     1
   4945   4951     1
   4946   4963     1
   4947   4952     1
   4947   4953     1
   4951   4965     1
   4952   4963     1
   4952   4965     1
   4953   4963     1
   4958   4960     1
   4960   4963     1
   4960   4965     1
   4966   4974     1
   4968   4975     1
   4968   4976     1
   4970   4986     1
   4970   4978     1
   4974   4989     1
   4974   4982     1
   4975   4990     1
   4975   5038     1
   4975   4978     1
   4976   4983     1
   4976   5014     1
   4976   4986     1
   4978   4995     1
   4982   4996     1
   4982   4994     1
   4983   4995     1
   4986   5019     1
   4989   5020     1
   4989   5018     1
   4990   5019     1
   4991   4995     1
   4991   5001     1
   4991   5000     1
   4992   4996     1
   4992   5014     1
   4992   5007     1
   4994   5000     1
   4994   5009     1
   4994   5002     1
   4995   5012     1
   4996   5002     1
   4996   5001     1
   5000   5014     1
   5001   5014     1
   5001   5012     1
   5002   5012     1
   5007   5009     1
   5009   5014     1
   5009   5012     1
   5015   5019     1
   5015   5025     1
   5015   5024     1
   5016   5020     1
   5016   5038     1
   5016   5031     1
   5018   5024     1
   5018   5033     1
   5018   5026     1
   5019   5036     1
   5020   5026     1
   5020   5025     1
   5024   5038     1
   5025   5038     1
   5025   5036     1
   5026   5036     1
   5031   5033     1
   5033   5038     1
   5033   5036     1
   5039   5047     1
   5041   5048     1
   5041   5049     1
   5043   5059     1
   5043   5051     1
   5047   5062     1
   5047   5055     1
   5048   5051     1
   5048   5063     1
   5048   5111     1
   5049   5059     1
   5049   5056     1
   5049   5087     1
   5051   5068     1
   5055   5067     1
   5055   5069     1
   5056   5068     1
   5059   5092     1
   5062   5091     1
   5062   5093     1
   5063   5092     1
   5064   5068     1
   5064   5074     1
   5064   5073     1
   5065   5080     1
   5065   5069     1
   5065   5087     1
   5067   5075     1
   5067   5082     1
   5067   5073     1
   5068   5085     1
   5069   5074     1
   5069   5075     1
   5073   5087     1
   5074   5085     1
   5074   5087     1
   5075   5085     1
   5080   5082     1
   5082   5085     1
   5082   5087     1
   5088   5092     1
   5088   5098     1
   5088   5097     1
   5089   5104     1
   5089   5093     1
   5089   5111     1
   5091   5099     1
   5091   5106     1
   5091   5097     1
   5092   5109     1
   5093   5098     1
   5093   5099     1
   5097   5111     1
   5098   5109     1
   5098   5111     1
   5099   5109     1
   5104   5106     1
   5106   5109     1
   5106   5111     1
   5112   5120     1
   5114   5121     1
   5114   5122     1
   5116   5132     1
   5116   5124     1
   5120   5135     1
   5120   5128     1
   5121   5136     1
   5121   5184     1
   5121   5124     1
   5122   5129     1
   5122   5160     1
   5122   5132     1
   5124   5141     1
   5128   5142     1
   5128   5140     1
   5129   5141     1
   5132   5165     1
   5135   5166     1
   5135   5164     1
   5136   5165     1
   5137   5141     1
   5137   5147     1
   5137   5146     1
   5138   5142     1
   5138   5160     1
   5138   5153     1
   5140   5146     1
   5140   5155     1
   5140   5148     1
   5141   5158     1
   5142   5148     1
   5142   5147     1
   5146   5160     1
   5147   5160     1
   5147   5158     1
   5148   5158     1
   5153   5155     1
   5155   5160     1
   5155   5158     1
   5161   5165     1
   5161   5171     1
   5161   5170     1
   5162   5166     1
   5162   5184     1
   5162   5177     1
   5164   5170     1
   5164   5179     1
   5164   5172     1
   5165   5182     1
   5166   5172     1
   5166   5171     1
   5170   5184     1
   5171   5184     1
   5171   5182     1
   5172   5182     1
   5177   5179     1
   5179   5184     1
   5179   5182     1
   5185   5193     1
   5187   5194     1
   5187   5195     1
   5189   5205     1
   5189   5197     1
   5193   5208     1
   5193   5201     1
   5194   5197     1
   5194   5209     1
   5194   5257     1
   5195   5205     1
   5195   5202     1
   5195   5233     1
   5197   5214     1
   5201   5213     1
   5201   5215     1
   5202   5214     1
   5205   5238     1
   5208   5237     1
   5208   5239     1
   5209   5238     1
   5210   5214     1
   5210   5220     1
   5210   5219     1
   5211   5226     1
   5211   5215     1
   5211   5233     1
   5213   5221     1
   5213   5228     1
   5213   5219     1
   5214   5231     1
   5215   5220     1
   5215   5221     1
   5219   5233     1
   5220   5231     1
   5220   5233     1
   5221   5231     1
   5226   5228     1
   5228   5231     1
   5228   5233     1
   5234   5238     1
   5234   5244     1
   5234   5243     1
   5235   5250     1
   5235   5239     1
   5235   5257     1
   5237   5245     1
   5237   5252     1
   5237   5243     1
   5238   5255     1
   5239   5244     1
   5239   5245     1
   5243   5257     1
   5244   5255     1
   5244   5257     1
   5245   5255     1
   5250   5252     1
   5252   5255     1
   5252   5257     1
   5258   5266     1
   5260   5267     1
   5260   5268     1
   5262   5278     1
   5262   5270     1
   5266   5281     1
   5266   5274     1
   5267   5282     1
   5267   5330     1
   5267   5270     1
   5268   5275     1
   5268   5306     1
   5268   5278     1
   5270   5287     1
   5274   5288     1
   5274   5286     1
   5275   5287     1
   5278   5311     1
   5281   5312     1
   5281   5310     1
   5282   5311     1
   5283   5287     1
   5283   5293     1
   5283   5292     1
   5284   5288     1
   5284   5306     1
   5284   5299     1
   5286   5292     1
   5286   5301     1
   5286   5294     1
   5287   5304     1
   5288   5294     1
   5288   5293     1
   5292   5306     1
   5293   5306     1
   5293   5304     1
   5294   5304     1
   5299   5301     1
   5301   5306     1
   5301   5304     1
   5307   5311     1
   5307   5317     1
   5307   5316     1
   5308   5312     1
   5308   5330     1
   5308   5323     1
   5310   5316     1
   5310   5325     1
   5310   5318     1
   5311   5328     1
   5312   5318     1
   5312   5317     1
   5316   5330     1
   5317   5330     1
   5317   5328     1
   5318   5328     1
   5323   5325     1
   5325   5330     1
   5325   5328     1
   5331   5339     1
   5333   5340     1
   5333   5341     1
   5335   5351     1
   5335   5343     1
   5339   5354     1
   5339   5347     1
   5340   5343     1
   5340   5355     1
   5340   5403     1
   5341   5351     1
   5341   5348     1
   5341   5379     1
   5343   5360     1
   5347   5359     1
   5347   5361     1
   5348   5360     1
   5351   5384     1
   5354   5383     1
   5354   5385     1
   5355   5384     1
   5356   5360     1
   5356   5366     1
   5356   5365     1
   5357   5372     1
   5357   5361     1
   5357   5379     1
   5359   5367     1
   5359   5374     1
   5359   5365     1
   5360   5377     1
   5361   5366     1
   5361   5367     1
   5365   5379     1
   5366   5377     1
   5366   5379     1
   5367   5377     1
   5372   5374     1
   5374   5377     1
   5374   5379     1
   5380   5384     1
   5380   5390     1
   5380   5389     1
   5381   5396     1
   5381   5385     1
   5381   5403     1
   5383   5391     1
   5383   5398     1
   5383   5389     1
   5384   5401     1
   5385   5390     1
   5385   5391     1
   5389   5403     1
   5390   5401     1
   5390   5403     1
   5391   5401     1
   5396   5398     1
   5398   5401     1
   5398   5403     1
   5404   5412     1
   5406   5413     1
   5406   5414     1
   5408   5424     1
   5408   5416     1
   5412   5427     1
   5412   5420     1
   5413   5428     1
   5413   5476     1
   5413   5416     1
   5414   5421     1
   5414   5452     1
   5414   5424     1
   5416   5433     1
   5420   5434     1
   5420   5432     1
   5421   5433     1
   5424   5457     1
   5427   5458     1
   5427   5456     1
   5428   5457     1
   5429   5433     1
   5429   5439     1
   5429   5438     1
   5430   5434     1
   5430   5452     1
   5430   5445     1
   5432   5438     1
   5432   5447     1
   5432   5440     1
   5433   5450     1
   5434   5440     1
   5434   5439     1
   5438   5452     1
   5439   5452     1
   5439   5450     1
   5440   5450     1
   5445   5447     1
   5447   5452     1
   5447   5450     1
   5453   5457     1
   5453   5463     1
   5453   5462     1
   5454   5458     1
   5454   5476     1
   5454   5469     1
   5456   5462     1
   5456   5471     1
   5456   5464     1
   5457   5474     1
   5458   5464     1
   5458   5463     1
   5462   5476     1
   5463   5476     1
   5463   5474     1
   5464   5474     1
   5469   5471     1
   5471   5476     1
   5471   5474     1
   5477   5485     1
   5479   5486     1
   5479   5487     1
   5481   5497     1
   5481   5489     1
   5485   5500     1
   5485   5493     1
   5486   5489     1
   5486   5501     1
   5486   5549     1
   5487   5497     1
   5487   5494     1
   5487   5525     1
   5489   5506     1
   5493   5505     1
   5493   5507     1
   5494   5506     1
   5497   5530     1
   5500   5529     1
   5500   5531     1
   5501   5530     1
   5502   5506     1
   5502   5512     1
   5502   5511     1
   5503   5518     1
   5503   5507     1
   5503   5525     1
   5505   5513     1
   5505   5520     1
   5505   5511     1
   5506   5523     1
   5507   5512     1
   5507   5513     1
   5511   5525     1
   5512   5523     1
   5512   5525     1
   5513   5523     1
   5518   5520     1
   5520   5523     1
   5520   5525     1
   5526   5530     1
   5526   5536     1
   5526   5535     1
   5527   5542     1
   5527   5531     1
   5527   5549     1
   5529   5537     1
   5529   5544     1
   5529   5535     1
   5530   5547     1
   5531   5536     1
   5531   5537     1
   5535   5549     1
   5536   5547     1
   5536   5549     1
   5537   5547     1
   5542   5544     1
   5544   5547     1
   5544   5549     1
   5550   5558     1
   5552   5559     1
   5552   5560     1
   5554   5570     1
   5554   5562     1
   5558   5573     1
   5558   5566     1
   5559   5574     1
   5559   5622     1
   5559   5562     1
   5560   5567     1
   5560   5598     1
   5560   5570     1
   5562   5579     1
   5566   5580     1
   5566   5578     1
   5567   5579     1
   5570   5603     1
   5573   5604     1
   5573   5602     1
   5574   5603     1
   5575   5579     1
   5575   5585     1
   5575   5584     1
   5576   5580     1
   5576   5598     1
   5576   5591     1
   5578   5584     1
   5578   5593     1
   5578   5586     1
   5579   5596     1
   5580   5586     1
   5580   5585     1
   5584   5598     1
   5585   5598     1
   5585   5596     1
   5586   5596     1
   5591   5593     1
   5593   5598     1
   5593   5596     1
   5599   5603     1
   5599   5609     1
   5599   5608     1
   5600   5604     1
   5600   5622     1
   5600   5615     1
   5602   5608     1
   5602   5617     1
   5602   5610     1
   5603   5620     1
   5604   5610     1
   5604   5609     1
   5608   5622     1
   5609   5622     1
   5609   5620     1
   5610   5620     1
   5615   5617     1
   5617   5622     1
   5617   5620     1
   5623   5631     1
   5625   5632     1
   5625   5633     1
   5627   5643     1
   5627   5635     1
   5631   5646     1
   5631   5639     1
   5632   5635     1
   5632   5647     1
   5632   5695     1
   5633   5643     1
   5633   5640     1
   5633   5671     1
   5635   5652     1
   5639   5651     1
   5639   5653     1
   5640   5652     1
   5643   5676     1
   5646   5675     1
   5646   5677     1
   5647   5676     1
   5648   5652     1
   5648   5658     1
   5648   5657     1
   5649   5664     1
   5649   5653     1
   5649   5671     1
   5651   5659     1
   5651   5666     1
   5651   5657     1
   5652   5669     1
   5653   5658     1
   5653   5659     1
   5657   5671     1
   5658   5669     1
   5658   5671     1
   5659   5669     1
   5664   5666     1
   5666   5669     1
   5666   5671     1
   5672   5676     1
   5672   5682     1
   5672   5681     1
   5673   5688     1
   5673   5677     1
   5673   5695     1
   5675   5683     1
   5675   5690     1
   5675   5681     1
   5676   5693     1
   5677   5682     1
   5677   5683     1
   5681   5695     1
   5682   5693     1
   5682   5695     1
   5683   5693     1
   5688   5690     1
   5690   5693     1
   5690   5695     1
   5696   5704     1
   5698   5705     1
   5698   5706     1
   5700   5716     1
   5700   5708     1
   5704   5719     1
   5704   5712     1
   5705   5720     1
   5705   5768     1
   5705   5708     1
   5706   5713     1
   5706   5744     1
   5706   5716     1
   5708   5725     1
   5712   5726     1
   5712   5724     1
   5713   5725     1
   5716   5749     1
   5719   5750     1
   5719   5748     1
   5720   5749     1
   5721   5725     1
   5721   5731     1
   5721   5730     1
   5722   5726     1
   5722   5744     1
   5722   5737     1
   5724   5730     1
   5724   5739     1
   5724   5732     1
   5725   5742     1
   5726   5732     1
   5726   5731     1
   5730   5744     1
   5731   5744     1
   5731   5742     1
   5732   5742     1
   5737   5739     1
   5739   5744     1
   5739   5742     1
   5745   5749     1
   5745   5755     1
   5745   5754     1
   5746   5750     1
   5746   5768     1
   5746   5761     1
   5748   5754     1
   5748   5763     1
   5748   5756     1
   5749   5766     1
   5750   5756     1
   5750   5755     1
   5754   5768     1
   5755   5768     1
   5755   5766     1
   5756   5766     1
   5761   5763     1
   5763   5768     1
   5763   5766     1
   5769   5777     1
   5771   5778     1
   5771   5779     1
   5773   5789     1
   5773   5781     1
   5777   5792     1
   5777   5785     1
   5778   5781     1
   5778   5793     1
   5778   5841     1
   5779   5789     1
   5779   5786     1
   5779   5817     1
   5781   5798     1
   5785   5797     1
   5785   5799     1
   5786   5798     1
   5789   5822     1
   5792   5821     1
   5792   5823     1
   5793   5822     1
   5794   5798     1
   5794   5804     1
   5794   5803     1
   5795   5810     1
   5795   5799     1
   5795   5817     1
   5797   5805     1
   5797   5812     1
   5797   5803     1
   5798   5815     1
   5799   5804     1
   5799   5805     1
   5803   5817     1
   5804   5815     1
   5804   5817     1
   5805   5815     1
   5810   5812     1
   5812   5815     1
   5812   5817     1
   5818   5822     1
   5818   5828     1
   5818   5827     1
   5819   5834     1
   5819   5823     1
   5819   5841     1
   5821   5829     1
   5821   5836     1
   5821   5827     1
   5822   5839     1
   5823   5828     1
   5823   5829     1
   5827   5841     1
   5828   5839     1
   5828   5841     1
   5829   5839     1
   5834   5836     1
   5836   5839     1
   5836   5841     1
   5842   5850     1
   5844   5851     1
   5844   5852     1
   5846   5862     1
   5846   5854     1
   5850   5865     1
   5850   5858     1
   5851   5866     1
   5851   5914     1
   5851   5854     1
   5852   5859     1
   5852   5890     1
   5852   5862     1
   5854   5871     1
   5858   5872     1
   5858   5870     1
   5859   5871     1
   5862   5895     1
   5865   5896     1
   5865   5894     1
   5866   5895     1
   5867   5871     1
   5867   5877     1
   5867   5876     1
   5868   5872     1
   5868   5890     1
   5868   5883     1
   5870   5876     1
   5870   5885     1
   5870   5878     1
   5871   5888     1
   5872   5878     1
   5872   5877     1
   5876   5890     1
   5877   5890     1
   5877   5888     1
   5878   5888     1
   5883   5885     1
   5885   5890     1
   5885   5888     1
   5891   5895     1
   5891   5901     1
   5891   5900     1
   5892   5896     1
   5892   5914     1
   5892   5907     1
   5894   5900     1
   5894   5909     1
   5894   5902     1
   5895   5912     1
   5896   5902     1
   5896   5901     1
   5900   5914     1
   5901   5914     1
   5901   5912     1
   5902   5912     1
   5907   5909     1
   5909   5914     1
   5909   5912     1
   5915   5923     1
   5917   5924     1
   5917   5925     1
   5919   5935     1
   5919   5927     1
   5923   5938     1
   5923   5931     1
   5924   5927     1
   5924   5939     1
   5924   5987     1
   5925   5935     1
   5925   5932     1
   5925   5963     1
   5927   5944     1
   5931   5943     1
   5931   5945     1
   5932   5944     1
   5935   5968     1
   5938   5967     1
   5938   5969     1
   5939   5968     1
   5940   5944     1
   5940   5950     1
   5940   5949     1
   5941   5956     1
   5941   5945     1
   5941   5963     1
   5943   5951     1
   5943   5958     1
   5943   5949     1
   5944   5961     1
   5945   5950     1
   5945   5951     1
   5949   5963     1
   5950   5961     1
   5950   5963     1
   5951   5961     1
   5956   5958     1
   5958   5961     1
   5958   5963     1
   5964   5968     1
   5964   5974     1
   5964   5973     1
   5965   5980     1
   5965   5969     1
   5965   5987     1
   5967   5975     1
   5967   5982     1
   5967   5973     1
   5968   5985     1
   5969   5974     1
   5969   5975     1
   5973   5987     1
   5974   5985     1
   5974   5987     1
   5975   5985     1
   5980   5982     1
   5982   5985     1
   5982   5987     1
   5988   5996     1
   5990   5997     1
   5990   5998     1
   5992   6008     1
   5992   6000     1
   5996   6011     1
   5996   6004     1
   5997   6012     1
   5997   6060     1
   5997   6000     1
   5998   6005     1
   5998   6036     1
   5998   6008     1
   6000   6017     1
   6004   6018     1
   6004   6016     1
   6005   6017     1
   6008   6041     1
   6011   6042     1
   6011   6040     1
   6012   6041     1
   6013   6017     1
   6013   6023     1
   6013   6022     1
   6014   6018     1
   6014   6036     1
   6014   6029     1
   6016   6022     1
   6016   6031     1
   6016   6024     1
   6017   6034     1
   6018   6024     1
   6018   6023     1
   6022   6036     1
   6023   6036     1
   6023   6034     1
   6024   6034     1
   6029   6031     1
   6031   6036     1
   6031   6034     1
   6037   6041     1
   6037   6047     1
   6037   6046     1
   6038   6042     1
   6038   6060     1
   6038   6053     1
   6040   6046     1
   6040   6055     1
   6040   6048     1
   6041   6058     1
   6042   6048     1
   6042   6047     1
   6046   6060     1
   6047   6060     1
   6047   6058     1
   6048   6058     1
   6053   6055     1
   6055   6060     1
   6055   6058     1
   6061   6069     1
   6063   6070     1
   6063   6071     1
   6065   6081     1
   6065   6073     1
   6069   6084     1
   6069   6077     1
   6070   6073     1
   6070   6085     1
   6070   6133     1
   6071   6081     1
   6071   6078     1
   6071   6109     1
   6073   6090     1
   6077   6089     1
   6077   6091     1
   6078   6090     1
   6081   6114     1
   6084   6113     1
   6084   6115     1
   6085   6114     1
   6086   6090     1
   6086   6096     1
   6086   6095     1
   6087   6102     1
   6087   6091     1
   6087   6109     1
   6089   6097     1
   6089   6104     1
   6089   6095     1
   6090   6107     1
   6091   6096     1
   6091   6097     1
   6095   6109     1
   6096   6107     1
   6096   6109     1
   6097   6107     1
   6102   6104     1
   6104   6107     1
   6104   6109     1
   6110   6114     1
   6110   6120     1
   6110   6119     1
   6111   6126     1
   6111   6115     1
   6111   6133     1
   6113   6121     1
   6113   6128     1
   6113   6119     1
   6114   6131     1
   6115   6120     1
   6115   6121     1
   6119   6133     1
   6120   6131     1
   6120   6133     1
   6121   6131     1
   6126   6128     1
   6128   6131     1
   6128   6133     1
   6134   6142     1
   6136   6143     1
   6136   6144     1
   6138   6154     1
   6138   6146     1
   6142   6157     1
   6142   6150     1
   6143   6158     1
   6143   6206     1
   6143   6146     1
   6144   6151     1
   6144   6182     1
   6144   6154     1
   6146   6163     1
   6150   6164     1
   6150   6162     1
   6151   6163     1
   6154   6187     1
   6157   6188     1
   6157   6186     1
   6158   6187     1
   6159   6163     1
   6159   6169     1
   6159   6168     1
   6160   6164     1
   6160   6182     1
   6160   6175     1
   6162   6168     1
   6162   6177     1
   6162   6170     1
   6163   6180     1
   6164   6170     1
   6164   6169     1
   6168   6182     1
   6169   6182     1
   6169   6180     1
   6170   6180     1
   6175   6177     1
   6177   6182     1
   6177   6180     1
   6183   6187     1
   6183   6193     1
   6183   6192     1
   6184   6188     1
   6184   6206     1
   6184   6199     1
   6186   6192     1
   6186   6201     1
   6186   6194     1
   6187   6204     1
   6188   6194     1
   6188   6193     1
   6192   6206     1
   6193   6206     1
   6193   6204     1
   6194   6204     1
   6199   6201     1
   6201   6206     1
   6201   6204     1
   6207   6215     1
   6209   6216     1
   6209   6217     1
   6211   6227     1
   6211   6219     1
   6215   6230     1
   6215   6223     1
   6216   6219     1
   6216   6231     1
   6216   6279     1
   6217   6227     1
   6217   6224     1
   6217   6255     1
   6219   6236     1
   6223   6235     1
   6223   6237     1
   6224   6236     1
   6227   6260     1
   6230   6259     1
   6230   6261     1
   6231   6260     1
   6232   6236     1
   6232   6242     1
   6232   6241     1
   6233   6248     1
   6233   6237     1
   6233   6255     1
   6235   6243     1
   6235   6250     1
   6235   6241     1
   6236   6253     1
   6237   6242     1
   6237   6243     1
   6241   6255     1
   6242   6253     1
   6242   6255     1
   6243   6253     1
   6248   6250     1
   6250   6253     1
   6250   6255     1
   6256   6260     1
   6256   6266     1
   6256   6265     1
   6257   6272     1
   6257   6261     1
   6257   6279     1
   6259   6267     1
   6259   6274     1
   6259   6265     1
   6260   6277     1
   6261   6266     1
   6261   6267     1
   6265   6279     1
   6266   6277     1
   6266   6279     1
   6267   6277     1
   6272   6274     1
   6274   6277     1
   6274   6279     1
   6280   6288     1
   6282   6289     1
   6282   6290     1
   6284   6300     1
   6284   6292     1
   6288   6303     1
   6288   6296     1
   6289   6304     1
   6289   6352     1
   6289   6292     1
   6290   6297     1
   6290   6328     1
   6290   6300     1
   6292   6309     1
   6296   6310     1
   6296   6308     1
   6297   6309     1
   6300   6333     1
   6303   6334     1
   6303   6332     1
   6304   6333     1
   6305   6309     1
   6305   6315     1
   6305   6314     1
   6306   6310     1
   6306   6328     1
   6306   6321     1
   6308   6314     1
   6308   6323     1
   6308   6316     1
   6309   6326     1
   6310   6316     1
   6310   6315     1
   6314   6328     1
   6315   6328     1
   6315   6326     1
   6316   6326     1
   6321   6323     1
   6323   6328     1
   6323   6326     1
   6329   6333     1
   6329   6339     1
   6329   6338     1
   6330   6334     1
   6330   6352     1
   6330   6345     1
   6332   6338     1
   6332   6347     1
   6332   6340     1
   6333   6350     1
   6334   6340     1
   6334   6339     1
   6338   6352     1
   6339   6352     1
   6339   6350     1
   6340   6350     1
   6345   6347     1
   6347   6352     1
   6347   6350     1
   6353   6361     1
   6355   6362     1
   6355   6363     1
   6357   6373     1
   6357   6365     1
   6361   6376     1
   6361   6369     1
   6362   6365     1
   6362   6377     1
   6362   6425     1
   6363   6373     1
   6363   6370     1
   6363   6401     1
   6365   6382     1
   6369   6381     1
   6369   6383     1
   6370   6382     1
   6373   6406     1
   6376   6405     1
   6376   6407     1
   6377   6406     1
   6378   6382     1
   6378   6388     1
   6378   6387     1
   6379   6394     1
   6379   6383     1
   6379   6401     1
   6381   6389     1
   6381   6396     1
   6381   6387     1
   6382   6399     1
   6383   6388     1
   6383   6389     1
   6387   6401     1
   6388   6399     1
   6388   6401     1
   6389   6399     1
   6394   6396     1
   6396   6399     1
   6396   6401     1
   6402   6406     1
   6402   6412     1
   6402   6411     1
   6403   6418     1
   6403   6407     1
   6403   6425     1
   6405   6413     1
   6405   6420     1
   6405   6411     1
   6406   6423     1
   6407   6412     1
   6407   6413     1
   6411   6425     1
   6412   6423     1
   6412   6425     1
   6413   6423     1
   6418   6420     1
   6420   6423     1
   6420   6425     1
   6426   6434     1
   6428   6435     1
   6428   6436     1
   6430   6446     1
   6430   6438     1
   6434   6449     1
   6434   6442     1
   6435   6450     1
   6435   6498     1
   6435   6438     1
   6436   6443     1
   6436   6474     1
   6436   6446     1
   6438   6455     1
   6442   6456     1
   6442   6454     1
   6443   6455     1
   6446   6479     1
   6449   6480     1
   6449   6478     1
   6450   6479     1
   6451   6455     1
   6451   6461     1
   6451   6460     1
   6452   6456     1
   6452   6474     1
   6452   6467     1
   6454   6460     1
   6454   6469     1
   6454   6462     1
   6455   6472     1
   6456   6462     1
   6456   6461     1
   6460   6474     1
   6461   6474     1
   6461   6472     1
   6462   6472     1
   6467   6469     1
   6469   6474     1
   6469   6472     1
   6475   6479     1
   6475   6485     1
   6475   6484     1
   6476   6480     1
   6476   6498     1
   6476   6491     1
   6478   6484     1
   6478   6493     1
   6478   6486     1
   6479   6496     1
   6480   6486     1
   6480   6485     1
   6484   6498     1
   6485   6498     1
   6485   6496     1
   6486   6496     1
   6491   6493     1
   6493   6498     1
   6493   6496     1
   6499   6507     1
   6501   6508     1
   6501   6509     1
   6503   6519     1
   6503   6511     1
   6507   6522     1
   6507   6515     1
   6508   6511     1
   6508   6523     1
   6508   6571     1
   6509   6519     1
   6509   6516     1
   6509   6547     1
   6511   6528     1
   6515   6527     1
   6515   6529     1
   6516   6528     1
   6519   6552     1
   6522   6551     1
   6522   6553     1
   6523   6552     1
   6524   6528     1
   6524   6534     1
   6524   6533     1
   6525   6540     1
   6525   6529     1
   6525   6547     1
   6527   6535     1
   6527   6542     1
   6527   6533     1
   6528   6545     1
   6529   6534     1
   6529   6535     1
   6533   6547     1
   6534   6545     1
   6534   6547     1
   6535   6545     1
   6540   6542     1
   6542   6545     1
   6542   6547     1
   6548   6552     1
   6548   6558     1
   6548   6557     1
   6549   6564     1
   6549   6553     1
   6549   6571     1
   6551   6559     1
   6551   6566     1
   6551   6557     1
   6552   6569     1
   6553   6558     1
   6553   6559     1
   6557   6571     1
   6558   6569     1
   6558   6571     1
   6559   6569     1
   6564   6566     1
   6566   6569     1
   6566   6571     1
   6572   6580     1
   6574   6581     1
   6574   6582     1
   6576   6592     1
   6576   6584     1
   6580   6595     1
   6580   6588     1
   6581   6596     1
   6581   6644     1
   6581   6584     1
   6582   6589     1
   6582   6620     1
   6582   6592     1
   6584   6601     1
   6588   6602     1
   6588   6600     1
   6589   6601     1
   6592   6625     1
   6595   6626     1
   6595   6624     1
   6596   6625     1
   6597   6601     1
   6597   6607     1
   6597   6606     1
   6598   6602     1
   6598   6620     1
   6598   6613     1
   6600   6606     1
   6600   6615     1
   6600   6608     1
   6601   6618     1
   6602   6608     1
   6602   6607     1
   6606   6620     1
   6607   6620     1
   6607   6618     1
   6608   6618     1
   6613   6615     1
   6615   6620     1
   6615   6618     1
   6621   6625     1
   6621   6631     1
   6621   6630     1
   6622   6626     1
   6622   6644     1
   6622   6637     1
   6624   6630     1
   6624   6639     1
   6624   6632     1
   6625   6642     1
   6626   6632     1
   6626   6631     1
   6630   6644     1
   6631   6644     1
   6631   6642     1
   6632   6642     1
   6637   6639     1
   6639   6644     1
   6639   6642     1
   6645   6653     1
   6647   6654     1
   6647   6655     1
   6649   6665     1
   6649   6657     1
   6653   6668     1
   6653   6661     1
   6654   6657     1
   6654   6669     1
   6654   6717     1
   6655   6665     1
   6655   6662     1
   6655   6693     1
   6657   6674     1
   6661   6673     1
   6661   6675     1
   6662   6674     1
   6665   6698     1
   6668   6697     1
   6668   6699     1
   6669   6698     1
   6670   6674     1
   6670   6680     1
   6670   6679     1
   6671   6686     1
   6671   6675     1
   6671   6693     1
   6673   6681     1
   6673   6688     1
   6673   6679     1
   6674   6691     1
   6675   6680     1
   6675   6681     1
   6679   6693     1
   6680   6691     1
   6680   6693     1
   6681   6691     1
   6686   6688     1
   6688   6691     1
   6688   6693     1
   6694   6698     1
   6694   6704     1
   6694   6703     1
   6695   6710     1
   6695   6699     1
   6695   6717     1
   6697   6705     1
   6697   6712     1
   6697   6703     1
   6698   6715     1
   6699   6704     1
   6699   6705     1
   6703   6717     1
   6704   6715     1
   6704   6717     1
   6705   6715     1
   6710   6712     1
   6712   6715     1
   6712   6717     1
   6718   6726     1
   6720   6727     1
   6720   6728     1
   6722   6738     1
   6722   6730     1
   6726   6741     1
   6726   6734     1
   6727   6742     1
   6727   6790     1
   6727   6730     1
   6728   6735     1
   6728   6766     1
   6728   6738     1
   6730   6747     1
   6734   6748     1
   6734   6746     1
   6735   6747     1
   6738   6771     1
   6741   6772     1
   6741   6770     1
   6742   6771     1
   6743   6747     1
   6743   6753     1
   6743   6752     1
   6744   6748     1
   6744   6766     1
   6744   6759     1
   6746   6752     1
   6746   6761     1
   6746   6754     1
   6747   6764     1
   6748   6754     1
   6748   6753     1
   6752   6766     1
   6753   6766     1
   6753   6764     1
   6754   6764     1
   6759   6761     1
   6761   6766     1
   6761   6764     1
   6767   6771     1
   6767   6777     1
   6767   6776     1
   6768   6772     1
   6768   6790     1
   6768   6783     1
   6770   6776     1
   6770   6785     1
   6770   6778     1
   6771   6788     1
   6772   6778     1
   6772   6777     1
   6776   6790     1
   6777   6790     1
   6777   6788     1
   6778   6788     1
   6783   6785     1
   6785   6790     1
   6785   6788     1
   6791   6799     1
   6793   6800     1
   6793   6801     1
   6795   6811     1
   6795   6803     1
   6799   6814     1
   6799   6807     1
   6800   6803     1
   6800   6815     1
   6800   6863     1
   6801   6811     1
   6801   6808     1
   6801   6839     1
   6803   6820     1
   6807   6819     1
   6807   6821     1
   6808   6820     1
   6811   6844     1
   6814   6843     1
   6814   6845     1
   6815   6844     1
   6816   6820     1
   6816   6826     1
   6816   6825     1
   6817   6832     1
   6817   6821     1
   6817   6839     1
   6819   6827     1
   6819   6834     1
   6819   6825     1
   6820   6837     1
   6821   6826     1
   6821   6827     1
   6825   6839     1
   6826   6837     1
   6826   6839     1
   6827   6837     1
   6832   6834     1
   6834   6837     1
   6834   6839     1
   6840   6844     1
   6840   6850     1
   6840   6849     1
   6841   6856     1
   6841   6845     1
   6841   6863     1
   6843   6851     1
   6843   6858     1
   6843   6849     1
   6844   6861     1
   6845   6850     1
   6845   6851     1
   6849   6863     1
   6850   6861     1
   6850   6863     1
   6851   6861     1
   6856   6858     1
   6858   6861     1
   6858   6863     1
   6864   6872     1
   6866   6873     1
   6866   6874     1
   6868   6884     1
   6868   6876     1
   6872   6887     1
   6872   6880     1
   6873   6888     1
   6873   6936     1
   6873   6876     1
   6874   6881     1
   6874   6912     1
   6874   6884     1
   6876   6893     1
   6880   6894     1
   6880   6892     1
   6881   6893     1
   6884   6917     1
   6887   6918     1
   6887   6916     1
   6888   6917     1
   6889   6893     1
   6889   6899     1
   6889   6898     1
   6890   6894     1
   6890   6912     1
   6890   6905     1
   6892   6898     1
   6892   6907     1
   6892   6900     1
   6893   6910     1
   6894   6900     1
   6894   6899     1
   6898   6912     1
   6899   6912     1
   6899   6910     1
   6900   6910     1
   6905   6907     1
   6907   6912     1
   6907   6910     1
   6913   6917     1
   6913   6923     1
   6913   6922     1
   6914   6918     1
   6914   6936     1
   6914   6929     1
   6916   6922     1
   6916   6931     1
   6916   6924     1
   6917   6934     1
   6918   6924     1
   6918   6923     1
   6922   6936     1
   6923   6936     1
   6923   6934     1
   6924   6934     1
   6929   6931     1
   6931   6936     1
   6931   6934     1
   6937   6945     1
   6939   6946     1
   6939   6947     1
   6941   6957     1
   6941   6949     1
   6945   6960     1
   6945   6953     1
   6946   6949     1
   6946   6961     1
   6946   7009     1
   6947   6957     1
   6947   6954     1
   6947   6985     1
   6949   6966     1
   6953   6965     1
   6953   6967     1
   6954   6966     1
   6957   6990     1
   6960   6989     1
   6960   6991     1
   6961   6990     1
   6962   6966     1
   6962   6972     1
   6962   6971     1
   6963   6978     1
   6963   6967     1
   6963   6985     1
   6965   6973     1
   6965   6980     1
   6965   6971     1
   6966   6983     1
   6967   6972     1
   6967   6973     1
   6971   6985     1
   6972   6983     1
   6972   6985     1
   6973   6983     1
   6978   6980     1
   6980   6983     1
   6980   6985     1
   6986   6990     1
   6986   6996     1
   6986   6995     1
   6987   7002     1
   6987   6991     1
   6987   7009     1
   6989   6997     1
   6989   7004     1
   6989   6995     1
   6990   7007     1
   6991   6996     1
   6991   6997     1
   6995   7009     1
   6996   7007     1
   6996   7009     1
   6997   7007     1
   7002   7004     1
   7004   7007     1
   7004   7009     1
   7010   7018     1
   7012   7019     1
   7012   7020     1
   7014   7030     1
   7014   7022     1
   7018   7033     1
   7018   7026     1
   7019   7034     1
   7019   7082     1
   7019   7022     1
   7020   7027     1
   7020   7058     1
   7020   7030     1
   7022   7039     1
   7026   7040     1
   7026   7038     1
   7027   7039     1
   7030   7063     1
   7033   7064     1
   7033   7062     1
   7034   7063     1
   7035   7039     1
   7035   7045     1
   7035   7044     1
   7036   7040     1
   7036   7058     1
   7036   7051     1
   7038   7044     1
   7038   7053     1
   7038   7046     1
   7039   7056     1
   7040   7046     1
   7040   7045     1
   7044   7058     1
   7045   7058     1
   7045   7056     1
   7046   7056     1
   7051   7053     1
   7053   7058     1
   7053   7056     1
   7059   7063     1
   7059   7069     1
   7059   7068     1
   7060   7064     1
   7060   7082     1
   7060   7075     1
   7062   7068     1
   7062   7077     1
   7062   7070     1
   7063   7080     1
   7064   7070     1
   7064   7069     1
   7068   7082     1
   7069   7082     1
   7069   7080     1
   7070   7080     1
   7075   7077     1
   7077   7082     1
   7077   7080     1
   7083   7091     1
   7085   7092     1
   7085   7093     1
   7087   7103     1
   7087   7095     1
   7091   7106     1
   7091   7099     1
   7092   7095     1
   7092   7107     1
   7092   7155     1
   7093   7103     1
   7093   7100     1
   7093   7131     1
   7095   7112     1
   7099   7111     1
   7099   7113     1
   7100   7112     1
   7103   7136     1
   7106   7135     1
   7106   7137     1
   7107   7136     1
   7108   7112     1
   7108   7118     1
   7108   7117     1
   7109   7124     1
   7109   7113     1
   7109   7131     1
   7111   7119     1
   7111   7126     1
   7111   7117     1
   7112   7129     1
   7113   7118     1
   7113   7119     1
   7117   7131     1
   7118   7129     1
   7118   7131     1
   7119   7129     1
   7124   7126     1
   7126   7129     1
   7126   7131     1
   7132   7136     1
   7132   7142     1
   7132   7141     1
   7133   7148     1
   7133   7137     1
   7133   7155     1
   7135   7143     1
   7135   7150     1
   7135   7141     1
   7136   7153     1
   7137   7142     1
   7137   7143     1
   7141   7155     1
   7142   7153     1
   7142   7155     1
   7143   7153     1
   7148   7150     1
   7150   7153     1
   7150   7155     1
   7156   7164     1
   7158   7165     1
   7158   7166     1
   7160   7176     1
   7160   7168     1
   7164   7179     1
   7164   7172     1
   7165   7180     1
   7165   7228     1
   7165   7168     1
   7166   7173     1
   7166   7204     1
   7166   7176     1
   7168   7185     1
   7172   7186     1
   7172   7184     1
   7173   7185     1
   7176   7209     1
   7179   7210     1
   7179   7208     1
   7180   7209     1
   7181   7185     1
   7181   7191     1
   7181   7190     1
   7182   7186     1
   7182   7204     1
   7182   7197     1
   7184   7190     1
   7184   7199     1
   7184   7192     1
   7185   7202     1
   7186   7192     1
   7186   7191     1
   7190   7204     1
   7191   7204     1
   7191   7202     1
   7192   7202     1
   7197   7199     1
   7199   7204     1
   7199   7202     1
   7205   7209     1
   7205   7215     1
   7205   7214     1
   7206   7210     1
   7206   7228     1
   7206   7221     1
   7208   7214     1
   7208   7223     1
   7208   7216     1
   7209   7226     1
   7210   7216     1
   7210   7215     1
   7214   7228     1
   7215   7228     1
   7215   7226     1
   7216   7226     1
   7221   7223     1
   7223   7228     1
   7223   7226     1
   7229   7237     1
   7231   7238     1
   7231   7239     1
   7233   7249     1
   7233   7241     1
   7237   7252     1
   7237   7245     1
   7238   7241     1
   7238   7253     1
   7238   7301     1
   7239   7249     1
   7239   7246     1
   7239   7277     1
   7241   7258     1
   7245   7257     1
   7245   7259     1
   7246   7258     1
   7249   7282     1
   7252   7281     1
   7252   7283     1
   7253   7282     1
   7254   7258     1
   7254   7264     1
   7254   7263     1
   7255   7270     1
   7255   7259     1
   7255   7277     1
   7257   7265     1
   7257   7272     1
   7257   7263     1
   7258   7275     1
   7259   7264     1
   7259   7265     1
   7263   7277     1
   7264   7275     1
   7264   7277     1
   7265   7275     1
   7270   7272     1
   7272   7275     1
   7272   7277     1
   7278   7282     1
   7278   7288     1
   7278   7287     1
   7279   7294     1
   7279   7283     1
   7279   7301     1
   7281   7289     1
   7281   7296     1
   7281   7287     1
   7282   7299     1
   7283   7288     1
   7283   7289     1
   7287   7301     1
   7288   7299     1
   7288   7301     1
   7289   7299     1
   7294   7296     1
   7296   7299     1
   7296   7301     1
   7302   7310     1
   7304   7311     1
   7304   7312     1
   7306   7322     1
   7306   7314     1
   7310   7325     1
   7310   7318     1
   7311   7326     1
   7311   7374     1
   7311   7314     1
   7312   7319     1
   7312   7350     1
   7312   7322     1
   7314   7331     1
   7318   7332     1
   7318   7330     1
   7319   7331     1
   7322   7355     1
   7325   7356     1
   7325   7354     1
   7326   7355     1
   7327   7331     1
   7327   7337     1
   7327   7336     1
   7328   7332     1
   7328   7350     1
   7328   7343     1
   7330   7336     1
   7330   7345     1
   7330   7338     1
   7331   7348     1
   7332   7338     1
   7332   7337     1
   7336   7350     1
   7337   7350     1
   7337   7348     1
   7338   7348     1
   7343   7345     1
   7345   7350     1
   7345   7348     1
   7351   7355     1
   7351   7361     1
   7351   7360     1
   7352   7356     1
   7352   7374     1
   7352   7367     1
   7354   7360     1
   7354   7369     1
   7354   7362     1
   7355   7372     1
   7356   7362     1
   7356   7361     1
   7360   7374     1
   7361   7374     1
   7361   7372     1
   7362   7372     1
   7367   7369     1
   7369   7374     1
   7369   7372     1
   7375   7383     1
   7377   7384     1
   7377   7385     1
   7379   7395     1
   7379   7387     1
   7383   7398     1
   7383   7391     1
   7384   7387     1
   7384   7399     1
   7384   7447     1
   7385   7395     1
   7385   7392     1
   7385   7423     1
   7387   7404     1
   7391   7403     1
   7391   7405     1
   7392   7404     1
   7395   7428     1
   7398   7427     1
   7398   7429     1
   7399   7428     1
   7400   7404     1
   7400   7410     1
   7400   7409     1
   7401   7416     1
   7401   7405     1
   7401   7423     1
   7403   7411     1
   7403   7418     1
   7403   7409     1
   7404   7421     1
   7405   7410     1
   7405   7411     1
   7409   7423     1
   7410   7421     1
   7410   7423     1
   7411   7421     1
   7416   7418     1
   7418   7421     1
   7418   7423     1
   7424   7428     1
   7424   7434     1
   7424   7433     1
   7425   7440     1
   7425   7429     1
   7425   7447     1
   7427   7435     1
   7427   7442     1
   7427   7433     1
   7428   7445     1
   7429   7434     1
   7429   7435     1
   7433   7447     1
   7434   7445     1
   7434   7447     1
   7435   7445     1
   7440   7442     1
   7442   7445     1
   7442   7447     1
   7448   7456     1
   7450   7457     1
   7450   7458     1
   7452   7468     1
   7452   7460     1
   7456   7471     1
   7456   7464     1
   7457   7472     1
   7457   7520     1
   7457   7460     1
   7458   7465     1
   7458   7496     1
   7458   7468     1
   7460   7477     1
   7464   7478     1
   7464   7476     1
   7465   7477     1
   7468   7501     1
   7471   7502     1
   7471   7500     1
   7472   7501     1
   7473   7477     1
   7473   7483     1
   7473   7482     1
   7474   7478     1
   7474   7496     1
   7474   7489     1
   7476   7482     1
   7476   7491     1
   7476   7484     1
   7477   7494     1
   7478   7484     1
   7478   7483     1
   7482   7496     1
   7483   7496     1
   7483   7494     1
   7484   7494     1
   7489   7491     1
   7491   7496     1
   7491   7494     1
   7497   7501     1
   7497   7507     1
   7497   7506     1
   7498   7502     1
   7498   7520     1
   7498   7513     1
   7500   7506     1
   7500   7515     1
   7500   7508     1
   7501   7518     1
   7502   7508     1
   7502   7507     1
   7506   7520     1
   7507   7520     1
   7507   7518     1
   7508   7518     1
   7513   7515     1
   7515   7520     1
   7515   7518     1
   7521   7529     1
   7523   7530     1
   7523   7531     1
   7525   7541     1
   7525   7533     1
   7529   7544     1
   7529   7537     1
   7530   7533     1
   7530   7545     1
   7530   7593     1
   7531   7541     1
   7531   7538     1
   7531   7569     1
   7533   7550     1
   7537   7549     1
   7537   7551     1
   7538   7550     1
   7541   7574     1
   7544   7573     1
   7544   7575     1
   7545   7574     1
   7546   7550     1
   7546   7556     1
   7546   7555     1
   7547   7562     1
   7547   7551     1
   7547   7569     1
   7549   7557     1
   7549   7564     1
   7549   7555     1
   7550   7567     1
   7551   7556     1
   7551   7557     1
   7555   7569     1
   7556   7567     1
   7556   7569     1
   7557   7567     1
   7562   7564     1
   7564   7567     1
   7564   7569     1
   7570   7574     1
   7570   7580     1
   7570   7579     1
   7571   7586     1
   7571   7575     1
   7571   7593     1
   7573   7581     1
   7573   7588     1
   7573   7579     1
   7574   7591     1
   7575   7580     1
   7575   7581     1
   7579   7593     1
   7580   7591     1
   7580   7593     1
   7581   7591     1
   7586   7588     1
   7588   7591     1
   7588   7593     1
   7594   7602     1
   7596   7603     1
   7596   7604     1
   7598   7614     1
   7598   7606     1
   7602   7617     1
   7602   7610     1
   7603   7618     1
   7603   7666     1
   7603   7606     1
   7604   7611     1
   7604   7642     1
   7604   7614     1
   7606   7623     1
   7610   7624     1
   7610   7622     1
   7611   7623     1
   7614   7647     1
   7617   7648     1
   7617   7646     1
   7618   7647     1
   7619   7623     1
   7619   7629     1
   7619   7628     1
   7620   7624     1
   7620   7642     1
   7620   7635     1
   7622   7628     1
   7622   7637     1
   7622   7630     1
   7623   7640     1
   7624   7630     1
   7624   7629     1
   7628   7642     1
   7629   7642     1
   7629   7640     1
   7630   7640     1
   7635   7637     1
   7637   7642     1
   7637   7640     1
   7643   7647     1
   7643   7653     1
   7643   7652     1
   7644   7648     1
   7644   7666     1
   7644   7659     1
   7646   7652     1
   7646   7661     1
   7646   7654     1
   7647   7664     1
   7648   7654     1
   7648   7653     1
   7652   7666     1
   7653   7666     1
   7653   7664     1
   7654   7664     1
   7659   7661     1
   7661   7666     1
   7661   7664     1
   7667   7675     1
   7669   7676     1
   7669   7677     1
   7671   7687     1
   7671   7679     1
   7675   7690     1
   7675   7683     1
   7676   7679     1
   7676   7691     1
   7676   7739     1
   7677   7687     1
   7677   7684     1
   7677   7715     1
   7679   7696     1
   7683   7695     1
   7683   7697     1
   7684   7696     1
   7687   7720     1
   7690   7719     1
   7690   7721     1
   7691   7720     1
   7692   7696     1
   7692   7702     1
   7692   7701     1
   7693   7708     1
   7693   7697     1
   7693   7715     1
   7695   7703     1
   7695   7710     1
   7695   7701     1
   7696   7713     1
   7697   7702     1
   7697   7703     1
   7701   7715     1
   7702   7713     1
   7702   7715     1
   7703   7713     1
   7708   7710     1
   7710   7713     1
   7710   7715     1
   7716   7720     1
   7716   7726     1
   7716   7725     1
   7717   7732     1
   7717   7721     1
   7717   7739     1
   7719   7727     1
   7719   7734     1
   7719   7725     1
   7720   7737     1
   7721   7726     1
   7721   7727     1
   7725   7739     1
   7726   7737     1
   7726   7739     1
   7727   7737     1
   7732   7734     1
   7734   7737     1
   7734   7739     1
   7740   7748     1
   7742   7749     1
   7742   7750     1
   7744   7760     1
   7744   7752     1
   7748   7763     1
   7748   7756     1
   7749   7764     1
   7749   7812     1
   7749   7752     1
   7750   7757     1
   7750   7788     1
   7750   7760     1
   7752   7769     1
   7756   7770     1
   7756   7768     1
   7757   7769     1
   7760   7793     1
   7763   7794     1
   7763   7792     1
   7764   7793     1
   7765   7769     1
   7765   7775     1
   7765   7774     1
   7766   7770     1
   7766   7788     1
   7766   7781     1
   7768   7774     1
   7768   7783     1
   7768   7776     1
   7769   7786     1
   7770   7776     1
   7770   7775     1
   7774   7788     1
   7775   7788     1
   7775   7786     1
   7776   7786     1
   7781   7783     1
   7783   7788     1
   7783   7786     1
   7789   7793     1
   7789   7799     1
   7789   7798     1
   7790   7794     1
   7790   7812     1
   7790   7805     1
   7792   7798     1
   7792   7807     1
   7792   7800     1
   7793   7810     1
   7794   7800     1
   7794   7799     1
   7798   7812     1
   7799   7812     1
   7799   7810     1
   7800   7810     1
   7805   7807     1
   7807   7812     1
   7807   7810     1
   7813   7821     1
   7815   7822     1
   7815   7823     1
   7817   7833     1
   7817   7825     1
   7821   7836     1
   7821   7829     1
   7822   7825     1
   7822   7837     1
   7822   7885     1
   7823   7833     1
   7823   7830     1
   7823   7861     1
   7825   7842     1
   7829   7841     1
   7829   7843     1
   7830   7842     1
   7833   7866     1
   7836   7865     1
   7836   7867     1
   7837   7866     1
   7838   7842     1
   7838   7848     1
   7838   7847     1
   7839   7854     1
   7839   7843     1
   7839   7861     1
   7841   7849     1
   7841   7856     1
   7841   7847     1
   7842   7859     1
   7843   7848     1
   7843   7849     1
   7847   7861     1
   7848   7859     1
   7848   7861     1
   7849   7859     1
   7854   7856     1
   7856   7859     1
   7856   7861     1
   7862   7866     1
   7862   7872     1
   7862   7871     1
   7863   7878     1
   7863   7867     1
   7863   7885     1
   7865   7873     1
   7865   7880     1
   7865   7871     1
   7866   7883     1
   7867   7872     1
   7867   7873     1
   7871   7885     1
   7872   7883     1
   7872   7885     1
   7873   7883     1
   7878   7880     1
   7880   7883     1
   7880   7885     1
   7886   7894     1
   7888   7895     1
   7888   7896     1
   7890   7906     1
   7890   7898     1
   7894   7909     1
   7894   7902     1
   7895   7910     1
   7895   7958     1
   7895   7898     1
   7896   7903     1
   7896   7934     1
   7896   7906     1
   7898   7915     1
   7902   7916     1
   7902   7914     1
   7903   7915     1
   7906   7939     1
   7909   7940     1
   7909   7938     1
   7910   7939     1
   7911   7915     1
   7911   7921     1
   7911   7920     1
   7912   7916     1
   7912   7934     1
   7912   7927     1
   7914   7920     1
   7914   7929     1
   7914   7922     1
   7915   7932     1
   7916   7922     1
   7916   7921     1
   7920   7934     1
   7921   7934     1
   7921   7932     1
   7922   7932     1
   7927   7929     1
   7929   7934     1
   7929   7932     1
   7935   7939     1
   7935   7945     1
   7935   7944     1
   7936   7940     1
   7936   7958     1
   7936   7951     1
   7938   7944     1
   7938   7953     1
   7938   7946     1
   7939   7956     1
   7940   7946     1
   7940   7945     1
   7944   7958     1
   7945   7958     1
   7945   7956     1
   7946   7956     1
   7951   7953     1
   7953   7958     1
   7953   7956     1
   7959   7967     1
   7961   7968     1
   7961   7969     1
   7963   7979     1
   7963   7971     1
   7967   7982     1
   7967   7975     1
   7968   7971     1
   7968   7983     1
   7968   8031     1
   7969   7979     1
   7969   7976     1
   7969   8007     1
   7971   7988     1
   7975   7987     1
   7975   7989     1
   7976   7988     1
   7979   8012     1
   7982   8011     1
   7982   8013     1
   7983   8012     1
   7984   7988     1
   7984   7994     1
   7984   7993     1
   7985   8000     1
   7985   7989     1
   7985   8007     1
   7987   7995     1
   7987   8002     1
   7987   7993     1
   7988   8005     1
   7989   7994     1
   7989   7995     1
   7993   8007     1
   7994   8005     1
   7994   8007     1
   7995   8005     1
   8000   8002     1
   8002   8005     1
   8002   8007     1
   8008   8012     1
   8008   8018     1
   8008   8017     1
   8009   8024     1
   8009   8013     1
   8009   8031     1
   8011   8019     1
   8011   8026     1
   8011   8017     1
   8012   8029     1
   8013   8018     1
   8013   8019     1
   8017   8031     1
   8018   8029     1
   8018   8031     1
   8019   8029     1
   8024   8026     1
   8026   8029     1
   8026   8031     1
   8032   8040     1
   8034   8041     1
   8034   8042     1
   8036   8052     1
   8036   8044     1
   8040   8055     1
   8040   8048     1
   8041   8056     1
   8041   8104     1
   8041   8044     1
   8042   8049     1
   8042   8080     1
   8042   8052     1
   8044   8061     1
   8048   8062     1
   8048   8060     1
   8049   8061     1
   8052   8085     1
   8055   8086     1
   8055   8084     1
   8056   8085     1
   8057   8061     1
   8057   8067     1
   8057   8066     1
   8058   8062     1
   8058   8080     1
   8058   8073     1
   8060   8066     1
   8060   8075     1
   8060   8068     1
   8061   8078     1
   8062   8068     1
   8062   8067     1
   8066   8080     1
   8067   8080     1
   8067   8078     1
   8068   8078     1
   8073   8075     1
   8075   8080     1
   8075   8078     1
   8081   8085     1
   8081   8091     1
   8081   8090     1
   8082   8086     1
   8082   8104     1
   8082   8097     1
   8084   8090     1
   8084   8099     1
   8084   8092     1
   8085   8102     1
   8086   8092     1
   8086   8091     1
   8090   8104     1
   8091   8104     1
   8091   8102     1
   8092   8102     1
   8097   8099     1
   8099   8104     1
   8099   8102     1
   8105   8113     1
   8107   8114     1
   8107   8115     1
   8109   8125     1
   8109   8117     1
   8113   8128     1
   8113   8121     1
   8114   8117     1
   8114   8129     1
   8114   8177     1
   8115   8125     1
   8115   8122     1
   8115   8153     1
   8117   8134     1
   8121   8133     1
   8121   8135     1
   8122   8134     1
   8125   8158     1
   8128   8157     1
   8128   8159     1
   8129   8158     1
   8130   8134     1
   8130   8140     1
   8130   8139     1
   8131   8146     1
   8131   8135     1
   8131   8153     1
   8133   8141     1
   8133   8148     1
   8133   8139     1
   8134   8151     1
   8135   8140     1
   8135   8141     1
   8139   8153     1
   8140   8151     1
   8140   8153     1
   8141   8151     1
   8146   8148     1
   8148   8151     1
   8148   8153     1
   8154   8158     1
   8154   8164     1
   8154   8163     1
   8155   8170     1
   8155   8159     1
   8155   8177     1
   8157   8165     1
   8157   8172     1
   8157   8163     1
   8158   8175     1
   8159   8164     1
   8159   8165     1
   8163   8177     1
   8164   8175     1
   8164   8177     1
   8165   8175     1
   8170   8172     1
   8172   8175     1
   8172   8177     1
   8178   8186     1
   8180   8187     1
   8180   8188     1
   8182   8198     1
   8182   8190     1
   8186   8201     1
   8186   8194     1
   8187   8202     1
   8187   8250     1
   8187   8190     1
   8188   8195     1
   8188   8226     1
   8188   8198     1
   8190   8207     1
   8194   8208     1
   8194   8206     1
   8195   8207     1
   8198   8231     1
   8201   8232     1
   8201   8230     1
   8202   8231     1
   8203   8207     1
   8203   8213     1
   8203   8212     1
   8204   8208     1
   8204   8226     1
   8204   8219     1
   8206   8212     1
   8206   8221     1
   8206   8214     1
   8207   8224     1
   8208   8214     1
   8208   8213     1
   8212   8226     1
   8213   8226     1
   8213   8224     1
   8214   8224     1
   8219   8221     1
   8221   8226     1
   8221   8224     1
   8227   8231     1
   8227   8237     1
   8227   8236     1
   8228   8232     1
   8228   8250     1
   8228   8243     1
   8230   8236     1
   8230   8245     1
   8230   8238     1
   8231   8248     1
   8232   8238     1
   8232   8237     1
   8236   8250     1
   8237   8250     1
   8237   8248     1
   8238   8248     1
   8243   8245     1
   8245   8250     1
   8245   8248     1
   8251   8259     1
   8253   8260     1
   8253   8261     1
   8255   8271     1
   8255   8263     1
   8259   8274     1
   8259   8267     1
   8260   8263     1
   8260   8275     1
   8260   8323     1
   8261   8271     1
   8261   8268     1
   8261   8299     1
   8263   8280     1
   8267   8279     1
   8267   8281     1
   8268   8280     1
   8271   8304     1
   8274   8303     1
   8274   8305     1
   8275   8304     1
   8276   8280     1
   8276   8286     1
   8276   8285     1
   8277   8292     1
   8277   8281     1
   8277   8299     1
   8279   8287     1
   8279   8294     1
   8279   8285     1
   8280   8297     1
   8281   8286     1
   8281   8287     1
   8285   8299     1
   8286   8297     1
   8286   8299     1
   8287   8297     1
   8292   8294     1
   8294   8297     1
   8294   8299     1
   8300   8304     1
   8300   8310     1
   8300   8309     1
   8301   8316     1
   8301   8305     1
   8301   8323     1
   8303   8311     1
   8303   8318     1
   8303   8309     1
   8304   8321     1
   8305   8310     1
   8305   8311     1
   8309   8323     1
   8310   8321     1
   8310   8323     1
   8311   8321     1
   8316   8318     1
   8318   8321     1
   8318   8323     1
   8324   8332     1
   8326   8333     1
   8326   8334     1
   8328   8344     1
   8328   8336     1
   8332   8347     1
   8332   8340     1
   8333   8348     1
   8333   8396     1
   8333   8336     1
   8334   8341     1
   8334   8372     1
   8334   8344     1
   8336   8353     1
   8340   8354     1
   8340   8352     1
   8341   8353     1
   8344   8377     1
   8347   8378     1
   8347   8376     1
   8348   8377     1
   8349   8353     1
   8349   8359     1
   8349   8358     1
   8350   8354     1
   8350   8372     1
   8350   8365     1
   8352   8358     1
   8352   8367     1
   8352   8360     1
   8353   8370     1
   8354   8360     1
   8354   8359     1
   8358   8372     1
   8359   8372     1
   8359   8370     1
   8360   8370     1
   8365   8367     1
   8367   8372     1
   8367   8370     1
   8373   8377     1
   8373   8383     1
   8373   8382     1
   8374   8378     1
   8374   8396     1
   8374   8389     1
   8376   8382     1
   8376   8391     1
   8376   8384     1
   8377   8394     1
   8378   8384     1
   8378   8383     1
   8382   8396     1
   8383   8396     1
   8383   8394     1
   8384   8394     1
   8389   8391     1
   8391   8396     1
   8391   8394     1
   8397   8405     1
   8399   8406     1
   8399   8407     1
   8401   8417     1
   8401   8409     1
   8405   8420     1
   8405   8413     1
   8406   8409     1
   8406   8421     1
   8406   8469     1
   8407   8417     1
   8407   8414     1
   8407   8445     1
   8409   8426     1
   8413   8425     1
   8413   8427     1
   8414   8426     1
   8417   8450     1
   8420   8449     1
   8420   8451     1
   8421   8450     1
   8422   8426     1
   8422   8432     1
   8422   8431     1
   8423   8438     1
   8423   8427     1
   8423   8445     1
   8425   8433     1
   8425   8440     1
   8425   8431     1
   8426   8443     1
   8427   8432     1
   8427   8433     1
   8431   8445     1
   8432   8443     1
   8432   8445     1
   8433   8443     1
   8438   8440     1
   8440   8443     1
   8440   8445     1
   8446   8450     1
   8446   8456     1
   8446   8455     1
   8447   8462     1
   8447   8451     1
   8447   8469     1
   8449   8457     1
   8449   8464     1
   8449   8455     1
   8450   8467     1
   8451   8456     1
   8451   8457     1
   8455   8469     1
   8456   8467     1
   8456   8469     1
   8457   8467     1
   8462   8464     1
   8464   8467     1
   8464   8469     1
   8470   8478     1
   8472   8479     1
   8472   8480     1
   8474   8490     1
   8474   8482     1
   8478   8493     1
   8478   8486     1
   8479   8494     1
   8479   8542     1
   8479   8482     1
   8480   8487     1
   8480   8518     1
   8480   8490     1
   8482   8499     1
   8486   8500     1
   8486   8498     1
   8487   8499     1
   8490   8523     1
   8493   8524     1
   8493   8522     1
   8494   8523     1
   8495   8499     1
   8495   8505     1
   8495   8504     1
   8496   8500     1
   8496   8518     1
   8496   8511     1
   8498   8504     1
   8498   8513     1
   8498   8506     1
   8499   8516     1
   8500   8506     1
   8500   8505     1
   8504   8518     1
   8505   8518     1
   8505   8516     1
   8506   8516     1
   8511   8513     1
   8513   8518     1
   8513   8516     1
   8519   8523     1
   8519   8529     1
   8519   8528     1
   8520   8524     1
   8520   8542     1
   8520   8535     1
   8522   8528     1
   8522   8537     1
   8522   8530     1
   8523   8540     1
   8524   8530     1
   8524   8529     1
   8528   8542     1
   8529   8542     1
   8529   8540     1
   8530   8540     1
   8535   8537     1
   8537   8542     1
   8537   8540     1
   8543   8551     1
   8545   8552     1
   8545   8553     1
   8547   8563     1
   8547   8555     1
   8551   8566     1
   8551   8559     1
   8552   8555     1
   8552   8567     1
   8552   8615     1
   8553   8563     1
   8553   8560     1
   8553   8591     1
   8555   8572     1
   8559   8571     1
   8559   8573     1
   8560   8572     1
   8563   8596     1
   8566   8595     1
   8566   8597     1
   8567   8596     1
   8568   8572     1
   8568   8578     1
   8568   8577     1
   8569   8584     1
   8569   8573     1
   8569   8591     1
   8571   8579     1
   8571   8586     1
   8571   8577     1
   8572   8589     1
   8573   8578     1
   8573   8579     1
   8577   8591     1
   8578   8589     1
   8578   8591     1
   8579   8589     1
   8584   8586     1
   8586   8589     1
   8586   8591     1
   8592   8596     1
   8592   8602     1
   8592   8601     1
   8593   8608     1
   8593   8597     1
   8593   8615     1
   8595   8603     1
   8595   8610     1
   8595   8601     1
   8596   8613     1
   8597   8602     1
   8597   8603     1
   8601   8615     1
   8602   8613     1
   8602   8615     1
   8603   8613     1
   8608   8610     1
   8610   8613     1
   8610   8615     1
   8616   8624     1
   8618   8625     1
   8618   8626     1
   8620   8636     1
   8620   8628     1
   8624   8639     1
   8624   8632     1
   8625   8640     1
   8625   8688     1
   8625   8628     1
   8626   8633     1
   8626   8664     1
   8626   8636     1
   8628   8645     1
   8632   8646     1
   8632   8644     1
   8633   8645     1
   8636   8669     1
   8639   8670     1
   8639   8668     1
   8640   8669     1
   8641   8645     1
   8641   8651     1
   8641   8650     1
   8642   8646     1
   8642   8664     1
   8642   8657     1
   8644   8650     1
   8644   8659     1
   8644   8652     1
   8645   8662     1
   8646   8652     1
   8646   8651     1
   8650   8664     1
   8651   8664     1
   8651   8662     1
   8652   8662     1
   8657   8659     1
   8659   8664     1
   8659   8662     1
   8665   8669     1
   8665   8675     1
   8665   8674     1
   8666   8670     1
   8666   8688     1
   8666   8681     1
   8668   8674     1
   8668   8683     1
   8668   8676     1
   8669   8686     1
   8670   8676     1
   8670   8675     1
   8674   8688     1
   8675   8688     1
   8675   8686     1
   8676   8686     1
   8681   8683     1
   8683   8688     1
   8683   8686     1
   8689   8697     1
   8691   8698     1
   8691   8699     1
   8693   8709     1
   8693   8701     1
   8697   8712     1
   8697   8705     1
   8698   8701     1
   8698   8713     1
   8698   8761     1
   8699   8709     1
   8699   8706     1
   8699   8737     1
   8701   8718     1
   8705   8717     1
   8705   8719     1
   8706   8718     1
   8709   8742     1
   8712   8741     1
   8712   8743     1
   8713   8742     1
   8714   8718     1
   8714   8724     1
   8714   8723     1
   8715   8730     1
   8715   8719     1
   8715   8737     1
   8717   8725     1
   8717   8732     1
   8717   8723     1
   8718   8735     1
   8719   8724     1
   8719   8725     1
   8723   8737     1
   8724   8735     1
   8724   8737     1
   8725   8735     1
   8730   8732     1
   8732   8735     1
   8732   8737     1
   8738   8742     1
   8738   8748     1
   8738   8747     1
   8739   8754     1
   8739   8743     1
   8739   8761     1
   8741   8749     1
   8741   8756     1
   8741   8747     1
   8742   8759     1
   8743   8748     1
   8743   8749     1
   8747   8761     1
   8748   8759     1
   8748   8761     1
   8749   8759     1
   8754   8756     1
   8756   8759     1
   8756   8761     1
   8762   8770     1
   8764   8771     1
   8764   8772     1
   8766   8782     1
   8766   8774     1
   8770   8785     1
   8770   8778     1
   8771   8786     1
   8771   8834     1
   8771   8774     1
   8772   8779     1
   8772   8810     1
   8772   8782     1
   8774   8791     1
   8778   8792     1
   8778   8790     1
   8779   8791     1
   8782   8815     1
   8785   8816     1
   8785   8814     1
   8786   8815     1
   8787   8791     1
   8787   8797     1
   8787   8796     1
   8788   8792     1
   8788   8810     1
   8788   8803     1
   8790   8796     1
   8790   8805     1
   8790   8798     1
   8791   8808     1
   8792   8798     1
   8792   8797     1
   8796   8810     1
   8797   8810     1
   8797   8808     1
   8798   8808     1
   8803   8805     1
   8805   8810     1
   8805   8808     1
   8811   8815     1
   8811   8821     1
   8811   8820     1
   8812   8816     1
   8812   8834     1
   8812   8827     1
   8814   8820     1
   8814   8829     1
   8814   8822     1
   8815   8832     1
   8816   8822     1
   8816   8821     1
   8820   8834     1
   8821   8834     1
   8821   8832     1
   8822   8832     1
   8827   8829     1
   8829   8834     1
   8829   8832     1
   8835   8843     1
   8837   8844     1
   8837   8845     1
   8839   8855     1
   8839   8847     1
   8843   8858     1
   8843   8851     1
   8844   8847     1
   8844   8859     1
   8844   8907     1
   8845   8855     1
   8845   8852     1
   8845   8883     1
   8847   8864     1
   8851   8863     1
   8851   8865     1
   8852   8864     1
   8855   8888     1
   8858   8887     1
   8858   8889     1
   8859   8888     1
   8860   8864     1
   8860   8870     1
   8860   8869     1
   8861   8876     1
   8861   8865     1
   8861   8883     1
   8863   8871     1
   8863   8878     1
   8863   8869     1
   8864   8881     1
   8865   8870     1
   8865   8871     1
   8869   8883     1
   8870   8881     1
   8870   8883     1
   8871   8881     1
   8876   8878     1
   8878   8881     1
   8878   8883     1
   8884   8888     1
   8884   8894     1
   8884   8893     1
   8885   8900     1
   8885   8889     1
   8885   8907     1
   8887   8895     1
   8887   8902     1
   8887   8893     1
   8888   8905     1
   8889   8894     1
   8889   8895     1
   8893   8907     1
   8894   8905     1
   8894   8907     1
   8895   8905     1
   8900   8902     1
   8902   8905     1
   8902   8907     1
   8908   8916     1
   8910   8917     1
   8910   8918     1
   8912   8928     1
   8912   8920     1
   8916   8931     1
   8916   8924     1
   8917   8932     1
   8917   8980     1
   8917   8920     1
   8918   8925     1
   8918   8956     1
   8918   8928     1
   8920   8937     1
   8924   8938     1
   8924   8936     1
   8925   8937     1
   8928   8961     1
   8931   8962     1
   8931   8960     1
   8932   8961     1
   8933   8937     1
   8933   8943     1
   8933   8942     1
   8934   8938     1
   8934   8956     1
   8934   8949     1
   8936   8942     1
   8936   8951     1
   8936   8944     1
   8937   8954     1
   8938   8944     1
   8938   8943     1
   8942   8956     1
   8943   8956     1
   8943   8954     1
   8944   8954     1
   8949   8951     1
   8951   8956     1
   8951   8954     1
   8957   8961     1
   8957   8967     1
   8957   8966     1
   8958   8962     1
   8958   8980     1
   8958   8973     1
   8960   8966     1
   8960   8975     1
   8960   8968     1
   8961   8978     1
   8962   8968     1
   8962   8967     1
   8966   8980     1
   8967   8980     1
   8967   8978     1
   8968   8978     1
   8973   8975     1
   8975   8980     1
   8975   8978     1
   8981   8989     1
   8983   8990     1
   8983   8991     1
   8985   9001     1
   8985   8993     1
   8989   9004     1
   8989   8997     1
   8990   8993     1
   8990   9005     1
   8990   9053     1
   8991   9001     1
   8991   8998     1
   8991   9029     1
   8993   9010     1
   8997   9009     1
   8997   9011     1
   8998   9010     1
   9001   9034     1
   9004   9033     1
   9004   9035     1
   9005   9034     1
   9006   9010     1
   9006   9016     1
   9006   9015     1
   9007   9022     1
   9007   9011     1
   9007   9029     1
   9009   9017     1
   9009   9024     1
   9009   9015     1
   9010   9027     1
   9011   9016     1
   9011   9017     1
   9015   9029     1
   9016   9027     1
   9016   9029     1
   9017   9027     1
   9022   9024     1
   9024   9027     1
   9024   9029     1
   9030   9034     1
   9030   9040     1
   9030   9039     1
   9031   9046     1
   9031   9035     1
   9031   9053     1
   9033   9041     1
   9033   9048     1
   9033   9039     1
   9034   9051     1
   9035   9040     1
   9035   9041     1
   9039   9053     1
   9040   9051     1
   9040   9053     1
   9041   9051     1
   9046   9048     1
   9048   9051     1
   9048   9053     1
   9054   9062     1
   9056   9063     1
   9056   9064     1
   9058   9074     1
   9058   9066     1
   9062   9077     1
   9062   9070     1
   9063   9078     1
   9063   9126     1
   9063   9066     1
   9064   9071     1
   9064   9102     1
   9064   9074     1
   9066   9083     1
   9070   9084     1
   9070   9082     1
   9071   9083     1
   9074   9107     1
   9077   9108     1
   9077   9106     1
   9078   9107     1
   9079   9083     1
   9079   9089     1
   9079   9088     1
   9080   9084     1
   9080   9102     1
   9080   9095     1
   9082   9088     1
   9082   9097     1
   9082   9090     1
   9083   9100     1
   9084   9090     1
   9084   9089     1
   9088   9102     1
   9089   9102     1
   9089   9100     1
   9090   9100     1
   9095   9097     1
   9097   9102     1
   9097   9100     1
   9103   9107     1
   9103   9113     1
   9103   9112     1
   9104   9108     1
   9104   9126     1
   9104   9119     1
   9106   9112     1
   9106   9121     1
   9106   9114     1
   9107   9124     1
   9108   9114     1
   9108   9113     1
   9112   9126     1
   9113   9126     1
   9113   9124     1
   9114   9124     1
   9119   9121     1
   9121   9126     1
   9121   9124     1
   9127   9135     1
   9129   9136     1
   9129   9137     1
   9131   9147     1
   9131   9139     1
   9135   9150     1
   9135   9143     1
   9136   9139     1
   9136   9151     1
   9136   9199     1
   9137   9147     1
   9137   9144     1
   9137   9175     1
   9139   9156     1
   9143   9155     1
   9143   9157     1
   9144   9156     1
   9147   9180     1
   9150   9179     1
   9150   9181     1
   9151   9180     1
   9152   9156     1
   9152   9162     1
   9152   9161     1
   9153   9168     1
   9153   9157     1
   9153   9175     1
   9155   9163     1
   9155   9170     1
   9155   9161     1
   9156   9173     1
   9157   9162     1
   9157   9163     1
   9161   9175     1
   9162   9173     1
   9162   9175     1
   9163   9173     1
   9168   9170     1
   9170   9173     1
   9170   9175     1
   9176   9180     1
   9176   9186     1
   9176   9185     1
   9177   9192     1
   9177   9181     1
   9177   9199     1
   9179   9187     1
   9179   9194     1
   9179   9185     1
   9180   9197     1
   9181   9186     1
   9181   9187     1
   9185   9199     1
   9186   9197     1
   9186   9199     1
   9187   9197     1
   9192   9194     1
   9194   9197     1
   9194   9199     1
   9200   9208     1
   9202   9209     1
   9202   9210     1
   9204   9220     1
   9204   9212     1
   9208   9223     1
   9208   9216     1
   9209   9224     1
   9209   9272     1
   9209   9212     1
   9210   9217     1
   9210   9248     1
   9210   9220     1
   9212   9229     1
   9216   9230     1
   9216   9228     1
   9217   9229     1
   9220   9253     1
   9223   9254     1
   9223   9252     1
   9224   9253     1
   9225   9229     1
   9225   9235     1
   9225   9234     1
   9226   9230     1
   9226   9248     1
   9226   9241     1
   9228   9234     1
   9228   9243     1
   9228   9236     1
   9229   9246     1
   9230   9236     1
   9230   9235     1
   9234   9248     1
   9235   9248     1
   9235   9246     1
   9236   9246     1
   9241   9243     1
   9243   9248     1
   9243   9246     1
   9249   9253     1
   9249   9259     1
   9249   9258     1
   9250   9254     1
   9250   9272     1
   9250   9265     1
   9252   9258     1
   9252   9267     1
   9252   9260     1
   9253   9270     1
   9254   9260     1
   9254   9259     1
   9258   9272     1
   9259   9272     1
   9259   9270     1
   9260   9270     1
   9265   9267     1
   9267   9272     1
   9267   9270     1
   9273   9281     1
   9275   9282     1
   9275   9283     1
   9277   9293     1
   9277   9285     1
   9281   9296     1
   9281   9289     1
   9282   9285     1
   9282   9297     1
   9282   9345     1
   9283   9293     1
   9283   9290     1
   9283   9321     1
   9285   9302     1
   9289   9301     1
   9289   9303     1
   9290   9302     1
   9293   9326     1
   9296   9325     1
   9296   9327     1
   9297   9326     1
   9298   9302     1
   9298   9308     1
   9298   9307     1
   9299   9314     1
   9299   9303     1
   9299   9321     1
   9301   9309     1
   9301   9316     1
   9301   9307     1
   9302   9319     1
   9303   9308     1
   9303   9309     1
   9307   9321     1
   9308   9319     1
   9308   9321     1
   9309   9319     1
   9314   9316     1
   9316   9319     1
   9316   9321     1
   9322   9326     1
   9322   9332     1
   9322   9331     1
   9323   9338     1
   9323   9327     1
   9323   9345     1
   9325   9333     1
   9325   9340     1
   9325   9331     1
   9326   9343     1
   9327   9332     1
   9327   9333     1
   9331   9345     1
   9332   9343     1
   9332   9345     1
   9333   9343     1
   9338   9340     1
   9340   9343     1
   9340   9345     1
   9346   9354     1
   9348   9355     1
   9348   9356     1
   9350   9366     1
   9350   9358     1
   9354   9369     1
   9354   9362     1
   9355   9370     1
   9355   9418     1
   9355   9358     1
   9356   9363     1
   9356   9394     1
   9356   9366     1
   9358   9375     1
   9362   9376     1
   9362   9374     1
   9363   9375     1
   9366   9399     1
   9369   9400     1
   9369   9398     1
   9370   9399     1
   9371   9375     1
   9371   9381     1
   9371   9380     1
   9372   9376     1
   9372   9394     1
   9372   9387     1
   9374   9380     1
   9374   9389     1
   9374   9382     1
   9375   9392     1
   9376   9382     1
   9376   9381     1
   9380   9394     1
   9381   9394     1
   9381   9392     1
   9382   9392     1
   9387   9389     1
   9389   9394     1
   9389   9392     1
   9395   9399     1
   9395   9405     1
   9395   9404     1
   9396   9400     1
   9396   9418     1
   9396   9411     1
   9398   9404     1
   9398   9413     1
   9398   9406     1
   9399   9416     1
   9400   9406     1
   9400   9405     1
   9404   9418     1
   9405   9418     1
   9405   9416     1
   9406   9416     1
   9411   9413     1
   9413   9418     1
   9413   9416     1
   9419   9427     1
   9421   9428     1
   9421   9429     1
   9423   9439     1
   9423   9431     1
   9427   9442     1
   9427   9435     1
   9428   9431     1
   9428   9443     1
   9428   9491     1
   9429   9439     1
   9429   9436     1
   9429   9467     1
   9431   9448     1
   9435   9447     1
   9435   9449     1
   9436   9448     1
   9439   9472     1
   9442   9471     1
   9442   9473     1
   9443   9472     1
   9444   9448     1
   9444   9454     1
   9444   9453     1
   9445   9460     1
   9445   9449     1
   9445   9467     1
   9447   9455     1
   9447   9462     1
   9447   9453     1
   9448   9465     1
   9449   9454     1
   9449   9455     1
   9453   9467     1
   9454   9465     1
   9454   9467     1
   9455   9465     1
   9460   9462     1
   9462   9465     1
   9462   9467     1
   9468   9472     1
   9468   9478     1
   9468   9477     1
   9469   9484     1
   9469   9473     1
   9469   9491     1
   9471   9479     1
   9471   9486     1
   9471   9477     1
   9472   9489     1
   9473   9478     1
   9473   9479     1
   9477   9491     1
   9478   9489     1
   9478   9491     1
   9479   9489     1
   9484   9486     1
   9486   9489     1
   9486   9491     1
   9492   9500     1
   9494   9501     1
   9494   9502     1
   9496   9512     1
   9496   9504     1
   9500   9515     1
   9500   9508     1
   9501   9516     1
   9501   9564     1
   9501   9504     1
   9502   9509     1
   9502   9540     1
   9502   9512     1
   9504   9521     1
   9508   9522     1
   9508   9520     1
   9509   9521     1
   9512   9545     1
   9515   9546     1
   9515   9544     1
   9516   9545     1
   9517   9521     1
   9517   9527     1
   9517   9526     1
   9518   9522     1
   9518   9540     1
   9518   9533     1
   9520   9526     1
   9520   9535     1
   9520   9528     1
   9521   9538     1
   9522   9528     1
   9522   9527     1
   9526   9540     1
   9527   9540     1
   9527   9538     1
   9528   9538     1
   9533   9535     1
   9535   9540     1
   9535   9538     1
   9541   9545     1
   9541   9551     1
   9541   9550     1
   9542   9546     1
   9542   9564     1
   9542   9557     1
   9544   9550     1
   9544   9559     1
   9544   9552     1
   9545   9562     1
   9546   9552     1
   9546   9551     1
   9550   9564     1
   9551   9564     1
   9551   9562     1
   9552   9562     1
   9557   9559     1
   9559   9564     1
   9559   9562     1
   9565   9573     1
   9567   9574     1
   9567   9575     1
   9569   9585     1
   9569   9577     1
   9573   9588     1
   9573   9581     1
   9574   9577     1
   9574   9589     1
   9574   9637     1
   9575   9585     1
   9575   9582     1
   9575   9613     1
   9577   9594     1
   9581   9593     1
   9581   9595     1
   9582   9594     1
   9585   9618     1
   9588   9617     1
   9588   9619     1
   9589   9618     1
   9590   9594     1
   9590   9600     1
   9590   9599     1
   9591   9606     1
   9591   9595     1
   9591   9613     1
   9593   9601     1
   9593   9608     1
   9593   9599     1
   9594   9611     1
   9595   9600     1
   9595   9601     1
   9599   9613     1
   9600   9611     1
   9600   9613     1
   9601   9611     1
   9606   9608     1
   9608   9611     1
   9608   9613     1
   9614   9618     1
   9614   9624     1
   9614   9623     1
   9615   9630     1
   9615   9619     1
   9615   9637     1
   9617   9625     1
   9617   9632     1
   9617   9623     1
   9618   9635     1
   9619   9624     1
   9619   9625     1
   9623   9637     1
   9624   9635     1
   9624   9637     1
   9625   9635     1
   9630   9632     1
   9632   9635     1
   9632   9637     1
   9638   9646     1
   9640   9647     1
   9640   9648     1
   9642   9658     1
   9642   9650     1
   9646   9661     1
   9646   9654     1
   9647   9662     1
   9647   9710     1
   9647   9650     1
   9648   9655     1
   9648   9686     1
   9648   9658     1
   9650   9667     1
   9654   9668     1
   9654   9666     1
   9655   9667     1
   9658   9691     1
   9661   9692     1
   9661   9690     1
   9662   9691     1
   9663   9667     1
   9663   9673     1
   9663   9672     1
   9664   9668     1
   9664   9686     1
   9664   9679     1
   9666   9672     1
   9666   9681     1
   9666   9674     1
   9667   9684     1
   9668   9674     1
   9668   9673     1
   9672   9686     1
   9673   9686     1
   9673   9684     1
   9674   9684     1
   9679   9681     1
   9681   9686     1
   9681   9684     1
   9687   9691     1
   9687   9697     1
   9687   9696     1
   9688   9692     1
   9688   9710     1
   9688   9703     1
   9690   9696     1
   9690   9705     1
   9690   9698     1
   9691   9708     1
   9692   9698     1
   9692   9697     1
   9696   9710     1
   9697   9710     1
   9697   9708     1
   9698   9708     1
   9703   9705     1
   9705   9710     1
   9705   9708     1
   9711   9719     1
   9713   9720     1
   9713   9721     1
   9715   9731     1
   9715   9723     1
   9719   9734     1
   9719   9727     1
   9720   9723     1
   9720   9735     1
   9720   9783     1
   9721   9731     1
   9721   9728     1
   9721   9759     1
   9723   9740     1
   9727   9739     1
   9727   9741     1
   9728   9740     1
   9731   9764     1
   9734   9763     1
   9734   9765     1
   9735   9764     1
   9736   9740     1
   9736   9746     1
   9736   9745     1
   9737   9752     1
   9737   9741     1
   9737   9759     1
   9739   9747     1
   9739   9754     1
   9739   9745     1
   9740   9757     1
   9741   9746     1
   9741   9747     1
   9745   9759     1
   9746   9757     1
   9746   9759     1
   9747   9757     1
   9752   9754     1
   9754   9757     1
   9754   9759     1
   9760   9764     1
   9760   9770     1
   9760   9769     1
   9761   9776     1
   9761   9765     1
   9761   9783     1
   9763   9771     1
   9763   9778     1
   9763   9769     1
   9764   9781     1
   9765   9770     1
   9765   9771     1
   9769   9783     1
   9770   9781     1
   9770   9783     1
   9771   9781     1
   9776   9778     1
   9778   9781     1
   9778   9783     1
   9784   9792     1
   9786   9793     1
   9786   9794     1
   9788   9804     1
   9788   9796     1
   9792   9807     1
   9792   9800     1
   9793   9808     1
   9793   9856     1
   9793   9796     1
   9794   9801     1
   9794   9832     1
   9794   9804     1
   9796   9813     1
   9800   9814     1
   9800   9812     1
   9801   9813     1
   9804   9837     1
   9807   9838     1
   9807   9836     1
   9808   9837     1
   9809   9813     1
   9809   9819     1
   9809   9818     1
   9810   9814     1
   9810   9832     1
   9810   9825     1
   9812   9818     1
   9812   9827     1
   9812   9820     1
   9813   9830     1
   9814   9820     1
   9814   9819     1
   9818   9832     1
   9819   9832     1
   9819   9830     1
   9820   9830     1
   9825   9827     1
   9827   9832     1
   9827   9830     1
   9833   9837     1
   9833   9843     1
   9833   9842     1
   9834   9838     1
   9834   9856     1
   9834   9849     1
   9836   9842     1
   9836   9851     1
   9836   9844     1
   9837   9854     1
   9838   9844     1
   9838   9843     1
   9842   9856     1
   9843   9856     1
   9843   9854     1
   9844   9854     1
   9849   9851     1
   9851   9856     1
   9851   9854     1
   9857   9865     1
   9859   9866     1
   9859   9867     1
   9861   9877     1
   9861   9869     1
   9865   9880     1
   9865   9873     1
   9866   9869     1
   9866   9881     1
   9866   9929     1
   9867   9877     1
   9867   9874     1
   9867   9905     1
   9869   9886     1
   9873   9885     1
   9873   9887     1
   9874   9886     1
   9877   9910     1
   9880   9909     1
   9880   9911     1
   9881   9910     1
   9882   9886     1
   9882   9892     1
   9882   9891     1
   9883   9898     1
   9883   9887     1
   9883   9905     1
   9885   9893     1
   9885   9900     1
   9885   9891     1
   9886   9903     1
   9887   9892     1
   9887   9893     1
   9891   9905     1
   9892   9903     1
   9892   9905     1
   9893   9903     1
   9898   9900     1
   9900   9903     1
   9900   9905     1
   9906   9910     1
   9906   9916     1
   9906   9915     1
   9907   9922     1
   9907   9911     1
   9907   9929     1
   9909   9917     1
   9909   9924     1
   9909   9915     1
   9910   9927     1
   9911   9916     1
   9911   9917     1
   9915   9929     1
   9916   9927     1
   9916   9929     1
   9917   9927     1
   9922   9924     1
   9924   9927     1
   9924   9929     1
   9930   9938     1
   9932   9939     1
   9932   9940     1
   9934   9950     1
   9934   9942     1
   9938   9953     1
   9938   9946     1
   9939   9954     1
   9939  10002     1
   9939   9942     1
   9940   9947     1
   9940   9978     1
   9940   9950     1
   9942   9959     1
   9946   9960     1
   9946   9958     1
   9947   9959     1
   9950   9983     1
   9953   9984     1
   9953   9982     1
   9954   9983     1
   9955   9959     1
   9955   9965     1
   9955   9964     1
   9956   9960     1
   9956   9978     1
   9956   9971     1
   9958   9964     1
   9958   9973     1
   9958   9966     1
   9959   9976     1
   9960   9966     1
   9960   9965     1
   9964   9978     1
   9965   9978     1
   9965   9976     1
   9966   9976     1
   9971   9973     1
   9973   9978     1
   9973   9976     1
   9979   9983     1
   9979   9989     1
   9979   9988     1
   9980   9984     1
   9980  10002     1
   9980   9995     1
   9982   9988     1
   9982   9997     1
   9982   9990     1
   9983  10000     1
   9984   9990     1
   9984   9989     1
   9988  10002     1
   9989  10002     1
   9989  10000     1
   9990  10000     1
   9995   9997     1
   9997  10002     1
   9997  10000     1
  10003  10011     1
  10005  10012     1
  10005  10013     1
  10007  10023     1
  10007  10015     1
  10011  10026     1
  10011  10019     1
  10012  10015     1
  10012  10027     1
  10012  10075     1
  10013  10023     1
  10013  10020     1
  10013  10051     1
  10015  10032     1
  10019  10031     1
  10019  10033     1
  10020  10032     1
  10023  10056     1
  10026  10055     1
  10026  10057     1
  10027  10056     1
  10028  10032     1
  10028  10038     1
  10028  10037     1
  10029  10044     1
  10029  10033     1
  10029  10051     1
  10031  10039     1
  10031  10046     1
  10031  10037     1
  10032  10049     1
  10033  10038     1
  10033  10039     1
  10037  10051     1
  10038  10049     1
  10038  10051     1
  10039  10049     1
  10044  10046     1
  10046  10049     1
  10046  10051     1
  10052  10056     1
  10052  10062     1
  10052  10061     1
  10053  10068     1
  10053  10057     1
  10053  10075     1
  10055  10063     1
  10055  10070     1
  10055  10061     1
  10056  10073     1
  10057  10062     1
  10057  10063     1
  10061  10075     1
  10062  10073     1
  10062  10075     1
  10063  10073     1
  10068  10070     1
  10070  10073     1
  10070  10075     1
  10076  10084     1
  10078  10085     1
  10078  10086     1
  10080  10096     1
  10080  10088     1
  10084  10099     1
  10084  10092     1
  10085  10100     1
  10085  10148     1
  10085  10088     1
  10086  10093     1
  10086  10124     1
  10086  10096     1
  10088  10105     1
  10092  10106     1
  10092  10104     1
  10093  10105     1
  10096  10129     1
  10099  10130     1
  10099  10128     1
  10100  10129     1
  10101  10105     1
  10101  10111     1
  10101  10110     1
  10102  10106     1
  10102  10124     1
  10102  10117     1
  10104  10110     1
  10104  10119     1
  10104  10112     1
  10105  10122     1
  10106  10112     1
  10106  10111     1
  10110  10124     1
  10111  10124     1
  10111  10122     1
  10112  10122     1
  10117  10119     1
  10119  10124     1
  10119  10122     1
  10125  10129     1
  10125  10135     1
  10125  10134     1
  10126  10130     1
  10126  10148     1
  10126  10141     1
  10128  10134     1
  10128  10143     1
  10128  10136     1
  10129  10146     1
  10130  10136     1
  10130  10135     1
  10134  10148     1
  10135  10148     1
  10135  10146     1
  10136  10146     1
  10141  10143     1
  10143  10148     1
  10143  10146     1
  10149  10157     1
  10151  10158     1
  10151  10159     1
  10153  10169     1
  10153  10161     1
  10157  10172     1
  10157  10165     1
  10158  10161     1
  10158  10173     1
  10158  10221     1
  10159  10169     1
  10159  10166     1
  10159  10197     1
  10161  10178     1
  10165  10177     1
  10165  10179     1
  10166  10178     1
  10169  10202     1
  10172  10201     1
  10172  10203     1
  10173  10202     1
  10174  10178     1
  10174  10184     1
  10174  10183     1
  10175  10190     1
  10175  10179     1
  10175  10197     1
  10177  10185     1
  10177  10192     1
  10177  10183     1
  10178  10195     1
  10179  10184     1
  10179  10185     1
  10183  10197     1
  10184  10195     1
  10184  10197     1
  10185  10195     1
  10190  10192     1
  10192  10195     1
  10192  10197     1
  10198  10202     1
  10198  10208     1
  10198  10207     1
  10199  10214     1
  10199  10203     1
  10199  10221     1
  10201  10209     1
  10201  10216     1
  10201  10207     1
  10202  10219     1
  10203  10208     1
  10203  10209     1
  10207  10221     1
  10208  10219     1
  10208  10221     1
  10209  10219     1
  10214  10216     1
  10216  10219     1
  10216  10221     1
  10222  10230     1
  10224  10231     1
  10224  10232     1
  10226  10242     1
  10226  10234     1
  10230  10245     1
  10230  10238     1
  10231  10246     1
  10231  10294     1
  10231  10234     1
  10232  10239     1
  10232  10270     1
  10232  10242     1
  10234  10251     1
  10238  10252     1
  10238  10250     1
  10239  10251     1
  10242  10275     1
  10245  10276     1
  10245  10274     1
  10246  10275     1
  10247  10251     1
  10247  10257     1
  10247  10256     1
  10248  10252     1
  10248  10270     1
  10248  10263     1
  10250  10256     1
  10250  10265     1
  10250  10258     1
  10251  10268     1
  10252  10258     1
  10252  10257     1
  10256  10270     1
  10257  10270     1
  10257  10268     1
  10258  10268     1
  10263  10265     1
  10265  10270     1
  10265  10268     1
  10271  10275     1
  10271  10281     1
  10271  10280     1
  10272  10276     1
  10272  10294     1
  10272  10287     1
  10274  10280     1
  10274  10289     1
  10274  10282     1
  10275  10292     1
  10276  10282     1
  10276  10281     1
  10280  10294     1
  10281  10294     1
  10281  10292     1
  10282  10292     1
  10287  10289     1
  10289  10294     1
  10289  10292     1
  10295  10303     1
  10297  10304     1
  10297  10305     1
  10299  10315     1
  10299  10307     1
  10303  10318     1
  10303  10311     1
  10304  10307     1
  10304  10319     1
  10304  10367     1
  10305  10315     1
  10305  10312     1
  10305  10343     1
  10307  10324     1
  10311  10323     1
  10311  10325     1
  10312  10324     1
  10315  10348     1
  10318  10347     1
  10318  10349     1
  10319  10348     1
  10320  10324     1
  10320  10330     1
  10320  10329     1
  10321  10336     1
  10321  10325     1
  10321  10343     1
  10323  10331     1
  10323  10338     1
  10323  10329     1
  10324  10341     1
  10325  10330     1
  10325  10331     1
  10329  10343     1
  10330  10341     1
  10330  10343     1
  10331  10341     1
  10336  10338     1
  10338  10341     1
  10338  10343     1
  10344  10348     1
  10344  10354     1
  10344  10353     1
  10345  10360     1
  10345  10349     1
  10345  10367     1
  10347  10355     1
  10347  10362     1
  10347  10353     1
  10348  10365     1
  10349  10354     1
  10349  10355     1
  10353  10367     1
  10354  10365     1
  10354  10367     1
  10355  10365     1
  10360  10362     1
  10362  10365     1
  10362  10367     1
  10368  10376     1
  10370  10377     1
  10370  10378     1
  10372  10388     1
  10372  10380     1
  10376  10391     1
  10376  10384     1
  10377  10392     1
  10377  10440     1
  10377  10380     1
  10378  10385     1
  10378  10416     1
  10378  10388     1
  10380  10397     1
  10384  10398     1
  10384  10396     1
  10385  10397     1
  10388  10421     1
  10391  10422     1
  10391  10420     1
  10392  10421     1
  10393  10397     1
  10393  10403     1
  10393  10402     1
  10394  10398     1
  10394  10416     1
  10394  10409     1
  10396  10402     1
  10396  10411     1
  10396  10404     1
  10397  10414     1
  10398  10404     1
  10398  10403     1
  10402  10416     1
  10403  10416     1
  10403  10414     1
  10404  10414     1
  10409  10411     1
  10411  10416     1
  10411  10414     1
  10417  10421     1
  10417  10427     1
  10417  10426     1
  10418  10422     1
  10418  10440     1
  10418  10433     1
  10420  10426     1
  10420  10435     1
  10420  10428     1
  10421  10438     1
  10422  10428     1
  10422  10427     1
  10426  10440     1
  10427  10440     1
  10427  10438     1
  10428  10438     1
  10433  10435     1
  10435  10440     1
  10435  10438     1
  10441  10449     1
  10443  10450     1
  10443  10451     1
  10445  10461     1
  10445  10453     1
  10449  10464     1
  10449  10457     1
  10450  10453     1
  10450  10465     1
  10450  10513     1
  10451  10461     1
  10451  10458     1
  10451  10489     1
  10453  10470     1
  10457  10469     1
  10457  10471     1
  10458  10470     1
  10461  10494     1
  10464  10493     1
  10464  10495     1
  10465  10494     1
  10466  10470     1
  10466  10476     1
  10466  10475     1
  10467  10482     1
  10467  10471     1
  10467  10489     1
  10469  10477     1
  10469  10484     1
  10469  10475     1
  10470  10487     1
  10471  10476     1
  10471  10477     1
  10475  10489     1
  10476  10487     1
  10476  10489     1
  10477  10487     1
  10482  10484     1
  10484  10487     1
  10484  10489     1
  10490  10494     1
  10490  10500     1
  10490  10499     1
  10491  10506     1
  10491  10495     1
  10491  10513     1
  10493  10501     1
  10493  10508     1
  10493  10499     1
  10494  10511     1
  10495  10500     1
  10495  10501     1
  10499  10513     1
  10500  10511     1
  10500  10513     1
  10501  10511     1
  10506  10508     1
  10508  10511     1
  10508  10513     1
  10514  10522     1
  10516  10523     1
  10516  10524     1
  10518  10534     1
  10518  10526     1
  10522  10537     1
  10522  10530     1
  10523  10538     1
  10523  10586     1
  10523  10526     1
  10524  10531     1
  10524  10562     1
  10524  10534     1
  10526  10543     1
  10530  10544     1
  10530  10542     1
  10531  10543     1
  10534  10567     1
  10537  10568     1
  10537  10566     1
  10538  10567     1
  10539  10543     1
  10539  10549     1
  10539  10548     1
  10540  10544     1
  10540  10562     1
  10540  10555     1
  10542  10548     1
  10542  10557     1
  10542  10550     1
  10543  10560     1
  10544  10550     1
  10544  10549     1
  10548  10562     1
  10549  10562     1
  10549  10560     1
  10550  10560     1
  10555  10557     1
  10557  10562     1
  10557  10560     1
  10563  10567     1
  10563  10573     1
  10563  10572     1
  10564  10568     1
  10564  10586     1
  10564  10579     1
  10566  10572     1
  10566  10581     1
  10566  10574     1
  10567  10584     1
  10568  10574     1
  10568  10573     1
  10572  10586     1
  10573  10586     1
  10573  10584     1
  10574  10584     1
  10579  10581     1
  10581  10586     1
  10581  10584     1
  10587  10595     1
  10589  10596     1
  10589  10597     1
  10591  10607     1
  10591  10599     1
  10595  10610     1
  10595  10603     1
  10596  10599     1
  10596  10611     1
  10596  10659     1
  10597  10607     1
  10597  10604     1
  10597  10635     1
  10599  10616     1
  10603  10615     1
  10603  10617     1
  10604  10616     1
  10607  10640     1
  10610  10639     1
  10610  10641     1
  10611  10640     1
  10612  10616     1
  10612  10622     1
  10612  10621     1
  10613  10628     1
  10613  10617     1
  10613  10635     1
  10615  10623     1
  10615  10630     1
  10615  10621     1
  10616  10633     1
  10617  10622     1
  10617  10623     1
  10621  10635     1
  10622  10633     1
  10622  10635     1
  10623  10633     1
  10628  10630     1
  10630  10633     1
  10630  10635     1
  10636  10640     1
  10636  10646     1
  10636  10645     1
  10637  10652     1
  10637  10641     1
  10637  10659     1
  10639  10647     1
  10639  10654     1
  10639  10645     1
  10640  10657     1
  10641  10646     1
  10641  10647     1
  10645  10659     1
  10646  10657     1
  10646  10659     1
  10647  10657     1
  10652  10654     1
  10654  10657     1
  10654  10659     1
  10660  10668     1
  10662  10669     1
  10662  10670     1
  10664  10680     1
  10664  10672     1
  10668  10683     1
  10668  10676     1
  10669  10684     1
  10669  10732     1
  10669  10672     1
  10670  10677     1
  10670  10708     1
  10670  10680     1
  10672  10689     1
  10676  10690     1
  10676  10688     1
  10677  10689     1
  10680  10713     1
  10683  10714     1
  10683  10712     1
  10684  10713     1
  10685  10689     1
  10685  10695     1
  10685  10694     1
  10686  10690     1
  10686  10708     1
  10686  10701     1
  10688  10694     1
  10688  10703     1
  10688  10696     1
  10689  10706     1
  10690  10696     1
  10690  10695     1
  10694  10708     1
  10695  10708     1
  10695  10706     1
  10696  10706     1
  10701  10703     1
  10703  10708     1
  10703  10706     1
  10709  10713     1
  10709  10719     1
  10709  10718     1
  10710  10714     1
  10710  10732     1
  10710  10725     1
  10712  10718     1
  10712  10727     1
  10712  10720     1
  10713  10730     1
  10714  10720     1
  10714  10719     1
  10718  10732     1
  10719  10732     1
  10719  10730     1
  10720  10730     1
  10725  10727     1
  10727  10732     1
  10727  10730     1
  10733  10741     1
  10735  10742     1
  10735  10743     1
  10737  10753     1
  10737  10745     1
  10741  10756     1
  10741  10749     1
  10742  10745     1
  10742  10757     1
  10742  10805     1
  10743  10753     1
  10743  10750     1
  10743  10781     1
  10745  10762     1
  10749  10761     1
  10749  10763     1
  10750  10762     1
  10753  10786     1
  10756  10785     1
  10756  10787     1
  10757  10786     1
  10758  10762     1
  10758  10768     1
  10758  10767     1
  10759  10774     1
  10759  10763     1
  10759  10781     1
  10761  10769     1
  10761  10776     1
  10761  10767     1
  10762  10779     1
  10763  10768     1
  10763  10769     1
  10767  10781     1
  10768  10779     1
  10768  10781     1
  10769  10779     1
  10774  10776     1
  10776  10779     1
  10776  10781     1
  10782  10786     1
  10782  10792     1
  10782  10791     1
  10783  10798     1
  10783  10787     1
  10783  10805     1
  10785  10793     1
  10785  10800     1
  10785  10791     1
  10786  10803     1
  10787  10792     1
  10787  10793     1
  10791  10805     1
  10792  10803     1
  10792  10805     1
  10793  10803     1
  10798  10800     1
  10800  10803     1
  10800  10805     1
  10806  10814     1
  10808  10815     1
  10808  10816     1
  10810  10826     1
  10810  10818     1
  10814  10829     1
  10814  10822     1
  10815  10830     1
  10815  10878     1
  10815  10818     1
  10816  10823     1
  10816  10854     1
  10816  10826     1
  10818  10835     1
  10822  10836     1
  10822  10834     1
  10823  10835     1
  10826  10859     1
  10829  10860     1
  10829  10858     1
  10830  10859     1
  10831  10835     1
  10831  10841     1
  10831  10840     1
  10832  10836     1
  10832  10854     1
  10832  10847     1
  10834  10840     1
  10834  10849     1
  10834  10842     1
  10835  10852     1
  10836  10842     1
  10836  10841     1
  10840  10854     1
  10841  10854     1
  10841  10852     1
  10842  10852     1
  10847  10849     1
  10849  10854     1
  10849  10852     1
  10855  10859     1
  10855  10865     1
  10855  10864     1
  10856  10860     1
  10856  10878     1
  10856  10871     1
  10858  10864     1
  10858  10873     1
  10858  10866     1
  10859  10876     1
  10860  10866     1
  10860  10865     1
  10864  10878     1
  10865  10878     1
  10865  10876     1
  10866  10876     1
  10871  10873     1
  10873  10878     1
  10873  10876     1
  10879  10887     1
  10881  10888     1
  10881  10889     1
  10883  10899     1
  10883  10891     1
  10887  10902     1
  10887  10895     1
  10888  10891     1
  10888  10903     1
  10888  10951     1
  10889  10899     1
  10889  10896     1
  10889  10927     1
  10891  10908     1
  10895  10907     1
  10895  10909     1
  10896  10908     1
  10899  10932     1
  10902  10931     1
  10902  10933     1
  10903  10932     1
  10904  10908     1
  10904  10914     1
  10904  10913     1
  10905  10920     1
  10905  10909     1
  10905  10927     1
  10907  10915     1
  10907  10922     1
  10907  10913     1
  10908  10925     1
  10909  10914     1
  10909  10915     1
  10913  10927     1
  10914  10925     1
  10914  10927     1
  10915  10925     1
  10920  10922     1
  10922  10925     1
  10922  10927     1
  10928  10932     1
  10928  10938     1
  10928  10937     1
  10929  10944     1
  10929  10933     1
  10929  10951     1
  10931  10939     1
  10931  10946     1
  10931  10937     1
  10932  10949     1
  10933  10938     1
  10933  10939     1
  10937  10951     1
  10938  10949     1
  10938  10951     1
  10939  10949     1
  10944  10946     1
  10946  10949     1
  10946  10951     1
  10952  10960     1
  10954  10961     1
  10954  10962     1
  10956  10972     1
  10956  10964     1
  10960  10975     1
  10960  10968     1
  10961  10976     1
  10961  11024     1
  10961  10964     1
  10962  10969     1
  10962  11000     1
  10962  10972     1
  10964  10981     1
  10968  10982     1
  10968  10980     1
  10969  10981     1
  10972  11005     1
  10975  11006     1
  10975  11004     1
  10976  11005     1
  10977  10981     1
  10977  10987     1
  10977  10986     1
  10978  10982     1
  10978  11000     1
  10978  10993     1
  10980  10986     1
  10980  10995     1
  10980  10988     1
  10981  10998     1
  10982  10988     1
  10982  10987     1
  10986  11000     1
  10987  11000     1
  10987  10998     1
  10988  10998     1
  10993  10995     1
  10995  11000     1
  10995  10998     1
  11001  11005     1
  11001  11011     1
  11001  11010     1
  11002  11006     1
  11002  11024     1
  11002  11017     1
  11004  11010     1
  11004  11019     1
  11004  11012     1
  11005  11022     1
  11006  11012     1
  11006  11011     1
  11010  11024     1
  11011  11024     1
  11011  11022     1
  11012  11022     1
  11017  11019     1
  11019  11024     1
  11019  11022     1
  11025  11033     1
  11027  11034     1
  11027  11035     1
  11029  11045     1
  11029  11037     1
  11033  11048     1
  11033  11041     1
  11034  11037     1
  11034  11049     1
  11034  11097     1
  11035  11045     1
  11035  11042     1
  11035  11073     1
  11037  11054     1
  11041  11053     1
  11041  11055     1
  11042  11054     1
  11045  11078     1
  11048  11077     1
  11048  11079     1
  11049  11078     1
  11050  11054     1
  11050  11060     1
  11050  11059     1
  11051  11066     1
  11051  11055     1
  11051  11073     1
  11053  11061     1
  11053  11068     1
  11053  11059     1
  11054  11071     1
  11055  11060     1
  11055  11061     1
  11059  11073     1
  11060  11071     1
  11060  11073     1
  11061  11071     1
  11066  11068     1
  11068  11071     1
  11068  11073     1
  11074  11078     1
  11074  11084     1
  11074  11083     1
  11075  11090     1
  11075  11079     1
  11075  11097     1
  11077  11085     1
  11077  11092     1
  11077  11083     1
  11078  11095     1
  11079  11084     1
  11079  11085     1
  11083  11097     1
  11084  11095     1
  11084  11097     1
  11085  11095     1
  11090  11092     1
  11092  11095     1
  11092  11097     1
  11098  11106     1
  11100  11107     1
  11100  11108     1
  11102  11118     1
  11102  11110     1
  11106  11121     1
  11106  11114     1
  11107  11122     1
  11107  11170     1
  11107  11110     1
  11108  11115     1
  11108  11146     1
  11108  11118     1
  11110  11127     1
  11114  11128     1
  11114  11126     1
  11115  11127     1
  11118  11151     1
  11121  11152     1
  11121  11150     1
  11122  11151     1
  11123  11127     1
  11123  11133     1
  11123  11132     1
  11124  11128     1
  11124  11146     1
  11124  11139     1
  11126  11132     1
  11126  11141     1
  11126  11134     1
  11127  11144     1
  11128  11134     1
  11128  11133     1
  11132  11146     1
  11133  11146     1
  11133  11144     1
  11134  11144     1
  11139  11141     1
  11141  11146     1
  11141  11144     1
  11147  11151     1
  11147  11157     1
  11147  11156     1
  11148  11152     1
  11148  11170     1
  11148  11163     1
  11150  11156     1
  11150  11165     1
  11150  11158     1
  11151  11168     1
  11152  11158     1
  11152  11157     1
  11156  11170     1
  11157  11170     1
  11157  11168     1
  11158  11168     1
  11163  11165     1
  11165  11170     1
  11165  11168     1
  11171  11179     1
  11173  11180     1
  11173  11181     1
  11175  11191     1
  11175  11183     1
  11179  11194     1
  11179  11187     1
  11180  11183     1
  11180  11195     1
  11180  11243     1
  11181  11191     1
  11181  11188     1
  11181  11219     1
  11183  11200     1
  11187  11199     1
  11187  11201     1
  11188  11200     1
  11191  11224     1
  11194  11223     1
  11194  11225     1
  11195  11224     1
  11196  11200     1
  11196  11206     1
  11196  11205     1
  11197  11212     1
  11197  11201     1
  11197  11219     1
  11199  11207     1
  11199  11214     1
  11199  11205     1
  11200  11217     1
  11201  11206     1
  11201  11207     1
  11205  11219     1
  11206  11217     1
  11206  11219     1
  11207  11217     1
  11212  11214     1
  11214  11217     1
  11214  11219     1
  11220  11224     1
  11220  11230     1
  11220  11229     1
  11221  11236     1
  11221  11225     1
  11221  11243     1
  11223  11231     1
  11223  11238     1
  11223  11229     1
  11224  11241     1
  11225  11230     1
  11225  11231     1
  11229  11243     1
  11230  11241     1
  11230  11243     1
  11231  11241     1
  11236  11238     1
  11238  11241     1
  11238  11243     1
  11244  11252     1
  11246  11253     1
  11246  11254     1
  11248  11264     1
  11248  11256     1
  11252  11267     1
  11252  11260     1
  11253  11268     1
  11253  11316     1
  11253  11256     1
  11254  11261     1
  11254  11292     1
  11254  11264     1
  11256  11273     1
  11260  11274     1
  11260  11272     1
  11261  11273     1
  11264  11297     1
  11267  11298     1
  11267  11296     1
  11268  11297     1
  11269  11273     1
  11269  11279     1
  11269  11278     1
  11270  11274     1
  11270  11292     1
  11270  11285     1
  11272  11278     1
  11272  11287     1
  11272  11280     1
  11273  11290     1
  11274  11280     1
  11274  11279     1
  11278  11292     1
  11279  11292     1
  11279  11290     1
  11280  11290     1
  11285  11287     1
  11287  11292     1
  11287  11290     1
  11293  11297     1
  11293  11303     1
  11293  11302     1
  11294  11298     1
  11294  11316     1
  11294  11309     1
  11296  11302     1
  11296  11311     1
  11296  11304     1
  11297  11314     1
  11298  11304     1
  11298  11303     1
  11302  11316     1
  11303  11316     1
  11303  11314     1
  11304  11314     1
  11309  11311     1
  11311  11316     1
  11311  11314     1
  11317  11325     1
  11319  11326     1
  11319  11327     1
  11321  11337     1
  11321  11329     1
  11325  11340     1
  11325  11333     1
  11326  11329     1
  11326  11341     1
  11326  11389     1
  11327  11337     1
  11327  11334     1
  11327  11365     1
  11329  11346     1
  11333  11345     1
  11333  11347     1
  11334  11346     1
  11337  11370     1
  11340  11369     1
  11340  11371     1
  11341  11370     1
  11342  11346     1
  11342  11352     1
  11342  11351     1
  11343  11358     1
  11343  11347     1
  11343  11365     1
  11345  11353     1
  11345  11360     1
  11345  11351     1
  11346  11363     1
  11347  11352     1
  11347  11353     1
  11351  11365     1
  11352  11363     1
  11352  11365     1
  11353  11363     1
  11358  11360     1
  11360  11363     1
  11360  11365     1
  11366  11370     1
  11366  11376     1
  11366  11375     1
  11367  11382     1
  11367  11371     1
  11367  11389     1
  11369  11377     1
  11369  11384     1
  11369  11375     1
  11370  11387     1
  11371  11376     1
  11371  11377     1
  11375  11389     1
  11376  11387     1
  11376  11389     1
  11377  11387     1
  11382  11384     1
  11384  11387     1
  11384  11389     1
  11390  11398     1
  11392  11399     1
  11392  11400     1
  11394  11410     1
  11394  11402     1
  11398  11413     1
  11398  11406     1
  11399  11414     1
  11399  11462     1
  11399  11402     1
  11400  11407     1
  11400  11438     1
  11400  11410     1
  11402  11419     1
  11406  11420     1
  11406  11418     1
  11407  11419     1
  11410  11443     1
  11413  11444     1
  11413  11442     1
  11414  11443     1
  11415  11419     1
  11415  11425     1
  11415  11424     1
  11416  11420     1
  11416  11438     1
  11416  11431     1
  11418  11424     1
  11418  11433     1
  11418  11426     1
  11419  11436     1
  11420  11426     1
  11420  11425     1
  11424  11438     1
  11425  11438     1
  11425  11436     1
  11426  11436     1
  11431  11433     1
  11433  11438     1
  11433  11436     1
  11439  11443     1
  11439  11449     1
  11439  11448     1
  11440  11444     1
  11440  11462     1
  11440  11455     1
  11442  11448     1
  11442  11457     1
  11442  11450     1
  11443  11460     1
  11444  11450     1
  11444  11449     1
  11448  11462     1
  11449  11462     1
  11449  11460     1
  11450  11460     1
  11455  11457     1
  11457  11462     1
  11457  11460     1
  11463  11471     1
  11465  11472     1
  11465  11473     1
  11467  11483     1
  11467  11475     1
  11471  11486     1
  11471  11479     1
  11472  11475     1
  11472  11487     1
  11472  11535     1
  11473  11483     1
  11473  11480     1
  11473  11511     1
  11475  11492     1
  11479  11491     1
  11479  11493     1
  11480  11492     1
  11483  11516     1
  11486  11515     1
  11486  11517     1
  11487  11516     1
  11488  11492     1
  11488  11498     1
  11488  11497     1
  11489  11504     1
  11489  11493     1
  11489  11511     1
  11491  11499     1
  11491  11506     1
  11491  11497     1
  11492  11509     1
  11493  11498     1
  11493  11499     1
  11497  11511     1
  11498  11509     1
  11498  11511     1
  11499  11509     1
  11504  11506     1
  11506  11509     1
  11506  11511     1
  11512  11516     1
  11512  11522     1
  11512  11521     1
  11513  11528     1
  11513  11517     1
  11513  11535     1
  11515  11523     1
  11515  11530     1
  11515  11521     1
  11516  11533     1
  11517  11522     1
  11517  11523     1
  11521  11535     1
  11522  11533     1
  11522  11535     1
  11523  11533     1
  11528  11530     1
  11530  11533     1
  11530  11535     1
  11536  11544     1
  11538  11545     1
  11538  11546     1
  11540  11556     1
  11540  11548     1
  11544  11559     1
  11544  11552     1
  11545  11560     1
  11545  11608     1
  11545  11548     1
  11546  11553     1
  11546  11584     1
  11546  11556     1
  11548  11565     1
  11552  11566     1
  11552  11564     1
  11553  11565     1
  11556  11589     1
  11559  11590     1
  11559  11588     1
  11560  11589     1
  11561  11565     1
  11561  11571     1
  11561  11570     1
  11562  11566     1
  11562  11584     1
  11562  11577     1
  11564  11570     1
  11564  11579     1
  11564  11572     1
  11565  11582     1
  11566  11572     1
  11566  11571     1
  11570  11584     1
  11571  11584     1
  11571  11582     1
  11572  11582     1
  11577  11579     1
  11579  11584     1
  11579  11582     1
  11585  11589     1
  11585  11595     1
  11585  11594     1
  11586  11590     1
  11586  11608     1
  11586  11601     1
  11588  11594     1
  11588  11603     1
  11588  11596     1
  11589  11606     1
  11590  11596     1
  11590  11595     1
  11594  11608     1
  11595  11608     1
  11595  11606     1
  11596  11606     1
  11601  11603     1
  11603  11608     1
  11603  11606     1
  11609  11617     1
  11611  11618     1
  11611  11619     1
  11613  11629     1
  11613  11621     1
  11617  11632     1
  11617  11625     1
  11618  11621     1
  11618  11633     1
  11618  11681     1
  11619  11629     1
  11619  11626     1
  11619  11657     1
  11621  11638     1
  11625  11637     1
  11625  11639     1
  11626  11638     1
  11629  11662     1
  11632  11661     1
  11632  11663     1
  11633  11662     1
  11634  11638     1
  11634  11644     1
  11634  11643     1
  11635  11650     1
  11635  11639     1
  11635  11657     1
  11637  11645     1
  11637  11652     1
  11637  11643     1
  11638  11655     1
  11639  11644     1
  11639  11645     1
  11643  11657     1
  11644  11655     1
  11644  11657     1
  11645  11655     1
  11650  11652     1
  11652  11655     1
  11652  11657     1
  11658  11662     1
  11658  11668     1
  11658  11667     1
  11659  11674     1
  11659  11663     1
  11659  11681     1
  11661  11669     1
  11661  11676     1
  11661  11667     1
  11662  11679     1
  11663  11668     1
  11663  11669     1
  11667  11681     1
  11668  11679     1
  11668  11681     1
  11669  11679     1
  11674  11676     1
  11676  11679     1
  11676  11681     1
  11682  11690     1
  11684  11691     1
  11684  11692     1
  11686  11702     1
  11686  11694     1
  11690  11705     1
  11690  11698     1
  11691  11706     1
  11691  11754     1
  11691  11694     1
  11692  11699     1
  11692  11730     1
  11692  11702     1
  11694  11711     1
  11698  11712     1
  11698  11710     1
  11699  11711     1
  11702  11735     1
  11705  11736     1
  11705  11734     1
  11706  11735     1
  11707  11711     1
  11707  11717     1
  11707  11716     1
  11708  11712     1
  11708  11730     1
  11708  11723     1
  11710  11716     1
  11710  11725     1
  11710  11718     1
  11711  11728     1
  11712  11718     1
  11712  11717     1
  11716  11730     1
  11717  11730     1
  11717  11728     1
  11718  11728     1
  11723  11725     1
  11725  11730     1
  11725  11728     1
  11731  11735     1
  11731  11741     1
  11731  11740     1
  11732  11736     1
  11732  11754     1
  11732  11747     1
  11734  11740     1
  11734  11749     1
  11734  11742     1
  11735  11752     1
  11736  11742     1
  11736  11741     1
  11740  11754     1
  11741  11754     1
  11741  11752     1
  11742  11752     1
  11747  11749     1
  11749  11754     1
  11749  11752     1
  11755  11763     1
  11757  11764     1
  11757  11765     1
  11759  11775     1
  11759  11767     1
  11763  11778     1
  11763  11771     1
  11764  11767     1
  11764  11779     1
  11764  11827     1
  11765  11775     1
  11765  11772     1
  11765  11803     1
  11767  11784     1
  11771  11783     1
  11771  11785     1
  11772  11784     1
  11775  11808     1
  11778  11807     1
  11778  11809     1
  11779  11808     1
  11780  11784     1
  11780  11790     1
  11780  11789     1
  11781  11796     1
  11781  11785     1
  11781  11803     1
  11783  11791     1
  11783  11798     1
  11783  11789     1
  11784  11801     1
  11785  11790     1
  11785  11791     1
  11789  11803     1
  11790  11801     1
  11790  11803     1
  11791  11801     1
  11796  11798     1
  11798  11801     1
  11798  11803     1
  11804  11808     1
  11804  11814     1
  11804  11813     1
  11805  11820     1
  11805  11809     1
  11805  11827     1
  11807  11815     1
  11807  11822     1
  11807  11813     1
  11808  11825     1
  11809  11814     1
  11809  11815     1
  11813  11827     1
  11814  11825     1
  11814  11827     1
  11815  11825     1
  11820  11822     1
  11822  11825     1
  11822  11827     1
  11828  11836     1
  11830  11837     1
  11830  11838     1
  11832  11848     1
  11832  11840     1
  11836  11851     1
  11836  11844     1
  11837  11852     1
  11837  11900     1
  11837  11840     1
  11838  11845     1
  11838  11876     1
  11838  11848     1
  11840  11857     1
  11844  11858     1
  11844  11856     1
  11845  11857     1
  11848  11881     1
  11851  11882     1
  11851  11880     1
  11852  11881     1
  11853  11857     1
  11853  11863     1
  11853  11862     1
  11854  11858     1
  11854  11876     1
  11854  11869     1
  11856  11862     1
  11856  11871     1
  11856  11864     1
  11857  11874     1
  11858  11864     1
  11858  11863     1
  11862  11876     1
  11863  11876     1
  11863  11874     1
  11864  11874     1
  11869  11871     1
  11871  11876     1
  11871  11874     1
  11877  11881     1
  11877  11887     1
  11877  11886     1
  11878  11882     1
  11878  11900     1
  11878  11893     1
  11880  11886     1
  11880  11895     1
  11880  11888     1
  11881  11898     1
  11882  11888     1
  11882  11887     1
  11886  11900     1
  11887  11900     1
  11887  11898     1
  11888  11898     1
  11893  11895     1
  11895  11900     1
  11895  11898     1
  11901  11909     1
  11903  11910     1
  11903  11911     1
  11905  11921     1
  11905  11913     1
  11909  11924     1
  11909  11917     1
  11910  11913     1
  11910  11925     1
  11910  11973     1
  11911  11921     1
  11911  11918     1
  11911  11949     1
  11913  11930     1
  11917  11929     1
  11917  11931     1
  11918  11930     1
  11921  11954     1
  11924  11953     1
  11924  11955     1
  11925  11954     1
  11926  11930     1
  11926  11936     1
  11926  11935     1
  11927  11942     1
  11927  11931     1
  11927  11949     1
  11929  11937     1
  11929  11944     1
  11929  11935     1
  11930  11947     1
  11931  11936     1
  11931  11937     1
  11935  11949     1
  11936  11947     1
  11936  11949     1
  11937  11947     1
  11942  11944     1
  11944  11947     1
  11944  11949     1
  11950  11954     1
  11950  11960     1
  11950  11959     1
  11951  11966     1
  11951  11955     1
  11951  11973     1
  11953  11961     1
  11953  11968     1
  11953  11959     1
  11954  11971     1
  11955  11960     1
  11955  11961     1
  11959  11973     1
  11960  11971     1
  11960  11973     1
  11961  11971     1
  11966  11968     1
  11968  11971     1
  11968  11973     1
  11974  11982     1
  11976  11983     1
  11976  11984     1
  11978  11994     1
  11978  11986     1
  11982  11997     1
  11982  11990     1
  11983  11998     1
  11983  12046     1
  11983  11986     1
  11984  11991     1
  11984  12022     1
  11984  11994     1
  11986  12003     1
  11990  12004     1
  11990  12002     1
  11991  12003     1
  11994  12027     1
  11997  12028     1
  11997  12026     1
  11998  12027     1
  11999  12003     1
  11999  12009     1
  11999  12008     1
  12000  12004     1
  12000  12022     1
  12000  12015     1
  12002  12008     1
  12002  12017     1
  12002  12010     1
  12003  12020     1
  12004  12010     1
  12004  12009     1
  12008  12022     1
  12009  12022     1
  12009  12020     1
  12010  12020     1
  12015  12017     1
  12017  12022     1
  12017  12020     1
  12023  12027     1
  12023  12033     1
  12023  12032     1
  12024  12028     1
  12024  12046     1
  12024  12039     1
  12026  12032     1
  12026  12041     1
  12026  12034     1
  12027  12044     1
  12028  12034     1
  12028  12033     1
  12032  12046     1
  12033  12046     1
  12033  12044     1
  12034  12044     1
  12039  12041     1
  12041  12046     1
  12041  12044     1
  12047  12055     1
  12049  12056     1
  12049  12057     1
  12051  12067     1
  12051  12059     1
  12055  12070     1
  12055  12063     1
  12056  12059     1
  12056  12071     1
  12056  12119     1
  12057  12067     1
  12057  12064     1
  12057  12095     1
  12059  12076     1
  12063  12075     1
  12063  12077     1
  12064  12076     1
  12067  12100     1
  12070  12099     1
  12070  12101     1
  12071  12100     1
  12072  12076     1
  12072  12082     1
  12072  12081     1
  12073  12088     1
  12073  12077     1
  12073  12095     1
  12075  12083     1
  12075  12090     1
  12075  12081     1
  12076  12093     1
  12077  12082     1
  12077  12083     1
  12081  12095     1
  12082  12093     1
  12082  12095     1
  12083  12093     1
  12088  12090     1
  12090  12093     1
  12090  12095     1
  12096  12100     1
  12096  12106     1
  12096  12105     1
  12097  12112     1
  12097  12101     1
  12097  12119     1
  12099  12107     1
  12099  12114     1
  12099  12105     1
  12100  12117     1
  12101  12106     1
  12101  12107     1
  12105  12119     1
  12106  12117     1
  12106  12119     1
  12107  12117     1
  12112  12114     1
  12114  12117     1
  12114  12119     1
  12120  12128     1
  12122  12129     1
  12122  12130     1
  12124  12140     1
  12124  12132     1
  12128  12143     1
  12128  12136     1
  12129  12144     1
  12129  12192     1
  12129  12132     1
  12130  12137     1
  12130  12168     1
  12130  12140     1
  12132  12149     1
  12136  12150     1
  12136  12148     1
  12137  12149     1
  12140  12173     1
  12143  12174     1
  12143  12172     1
  12144  12173     1
  12145  12149     1
  12145  12155     1
  12145  12154     1
  12146  12150     1
  12146  12168     1
  12146  12161     1
  12148  12154     1
  12148  12163     1
  12148  12156     1
  12149  12166     1
  12150  12156     1
  12150  12155     1
  12154  12168     1
  12155  12168     1
  12155  12166     1
  12156  12166     1
  12161  12163     1
  12163  12168     1
  12163  12166     1
  12169  12173     1
  12169  12179     1
  12169  12178     1
  12170  12174     1
  12170  12192     1
  12170  12185     1
  12172  12178     1
  12172  12187     1
  12172  12180     1
  12173  12190     1
  12174  12180     1
  12174  12179     1
  12178  12192     1
  12179  12192     1
  12179  12190     1
  12180  12190     1
  12185  12187     1
  12187  12192     1
  12187  12190     1
  12193  12201     1
  12195  12202     1
  12195  12203     1
  12197  12213     1
  12197  12205     1
  12201  12216     1
  12201  12209     1
  12202  12205     1
  12202  12217     1
  12202  12265     1
  12203  12213     1
  12203  12210     1
  12203  12241     1
  12205  12222     1
  12209  12221     1
  12209  12223     1
  12210  12222     1
  12213  12246     1
  12216  12245     1
  12216  12247     1
  12217  12246     1
  12218  12222     1
  12218  12228     1
  12218  12227     1
  12219  12234     1
  12219  12223     1
  12219  12241     1
  12221  12229     1
  12221  12236     1
  12221  12227     1
  12222  12239     1
  12223  12228     1
  12223  12229     1
  12227  12241     1
  12228  12239     1
  12228  12241     1
  12229  12239     1
  12234  12236     1
  12236  12239     1
  12236  12241     1
  12242  12246     1
  12242  12252     1
  12242  12251     1
  12243  12258     1
  12243  12247     1
  12243  12265     1
  12245  12253     1
  12245  12260     1
  12245  12251     1
  12246  12263     1
  12247  12252     1
  12247  12253     1
  12251  12265     1
  12252  12263     1
  12252  12265     1
  12253  12263     1
  12258  12260     1
  12260  12263     1
  12260  12265     1
  12266  12274     1
  12268  12275     1
  12268  12276     1
  12270  12286     1
  12270  12278     1
  12274  12289     1
  12274  12282     1
  12275  12290     1
  12275  12338     1
  12275  12278     1
  12276  12283     1
  12276  12314     1
  12276  12286     1
  12278  12295     1
  12282  12296     1
  12282  12294     1
  12283  12295     1
  12286  12319     1
  12289  12320     1
  12289  12318     1
  12290  12319     1
  12291  12295     1
  12291  12301     1
  12291  12300     1
  12292  12296     1
  12292  12314     1
  12292  12307     1
  12294  12300     1
  12294  12309     1
  12294  12302     1
  12295  12312     1
  12296  12302     1
  12296  12301     1
  12300  12314     1
  12301  12314     1
  12301  12312     1
  12302  12312     1
  12307  12309     1
  12309  12314     1
  12309  12312     1
  12315  12319     1
  12315  12325     1
  12315  12324     1
  12316  12320     1
  12316  12338     1
  12316  12331     1
  12318  12324     1
  12318  12333     1
  12318  12326     1
  12319  12336     1
  12320  12326     1
  12320  12325     1
  12324  12338     1
  12325  12338     1
  12325  12336     1
  12326  12336     1
  12331  12333     1
  12333  12338     1
  12333  12336     1
  12339  12347     1
  12341  12348     1
  12341  12349     1
  12343  12359     1
  12343  12351     1
  12347  12362     1
  12347  12355     1
  12348  12351     1
  12348  12363     1
  12348  12411     1
  12349  12359     1
  12349  12356     1
  12349  12387     1
  12351  12368     1
  12355  12367     1
  12355  12369     1
  12356  12368     1
  12359  12392     1
  12362  12391     1
  12362  12393     1
  12363  12392     1
  12364  12368     1
  12364  12374     1
  12364  12373     1
  12365  12380     1
  12365  12369     1
  12365  12387     1
  12367  12375     1
  12367  12382     1
  12367  12373     1
  12368  12385     1
  12369  12374     1
  12369  12375     1
  12373  12387     1
  12374  12385     1
  12374  12387     1
  12375  12385     1
  12380  12382     1
  12382  12385     1
  12382  12387     1
  12388  12392     1
  12388  12398     1
  12388  12397     1
  12389  12404     1
  12389  12393     1
  12389  12411     1
  12391  12399     1
  12391  12406     1
  12391  12397     1
  12392  12409     1
  12393  12398     1
  12393  12399     1
  12397  12411     1
  12398  12409     1
  12398  12411     1
  12399  12409     1
  12404  12406     1
  12406  12409     1
  12406  12411     1
  12412  12420     1
  12414  12421     1
  12414  12422     1
  12416  12432     1
  12416  12424     1
  12420  12435     1
  12420  12428     1
  12421  12436     1
  12421  12484     1
  12421  12424     1
  12422  12429     1
  12422  12460     1
  12422  12432     1
  12424  12441     1
  12428  12442     1
  12428  12440     1
  12429  12441     1
  12432  12465     1
  12435  12466     1
  12435  12464     1
  12436  12465     1
  12437  12441     1
  12437  12447     1
  12437  12446     1
  12438  12442     1
  12438  12460     1
  12438  12453     1
  12440  12446     1
  12440  12455     1
  12440  12448     1
  12441  12458     1
  12442  12448     1
  12442  12447     1
  12446  12460     1
  12447  12460     1
  12447  12458     1
  12448  12458     1
  12453  12455     1
  12455  12460     1
  12455  12458     1
  12461  12465     1
  12461  12471     1
  12461  12470     1
  12462  12466     1
  12462  12484     1
  12462  12477     1
  12464  12470     1
  12464  12479     1
  12464  12472     1
  12465  12482     1
  12466  12472     1
  12466  12471     1
  12470  12484     1
  12471  12484     1
  12471  12482     1
  12472  12482     1
  12477  12479     1
  12479  12484     1
  12479  12482     1
      1     10     1
      1     11     1
      1     13     1
      1     14     1
      2      7     1
      2      5     1
      2      6     1
      2      9     1
      2     12     1
      3      7     1
      3      5     1
      3      6     1
      3      9     1
      3     12     1
      4     16     1
      4     17     1
      4     19     1
      4     20     1
      8      5     1
      5     15     1
      5     18     1
      8      6     1
      6     15     1
      6     18     1
      7     22     1
      7     23     1
      7     25     1
      7     26     1
      8     31     1
      8     32     1
      8     28     1
      8     29     1
      9     13     1
      9     14     1
     10     12     1
     10     34     1
     10     31     1
     10     32     1
     11     12     1
     11     34     1
     11     31     1
     11     32     1
     13     33     1
     13     28     1
     13     29     1
     14     33     1
     14     28     1
     14     29     1
     15     19     1
     15     20     1
     16     18     1
     16     35     1
     16     22     1
     16     23     1
     17     18     1
     17     35     1
     17     22     1
     17     23     1
     19     36     1
     19     25     1
     19     26     1
     20     36     1
     20     25     1
     20     26     1
     21    115     1
     22     38     1
     22    114     1
     23     38     1
     23    114     1
     24    140     1
     25     39     1
     25    139     1
     26     39     1
     26    139     1
     27     65     1
     28     37     1
     28     64     1
     29     37     1
     29     64     1
     30     90     1
     31     40     1
     31     89     1
     32     40     1
     32     89     1
     33     45     1
     33     46     1
     34     70     1
     34     71     1
     35     95     1
     35     96     1
     36    120     1
     36    121     1
     37     65     1
     38    115     1
     39    140     1
     40     90     1
     41     65     1
     41     49     1
     41     50     1
     41     52     1
     41     53     1
     42     64     1
     42     45     1
     42     46     1
     42     48     1
     42     51     1
     43     64     1
     43     45     1
     43     46     1
     43     48     1
     43     51     1
     45     47     1
     45     65     1
     46     47     1
     46     65     1
     47     58     1
     47     59     1
     47     55     1
     47     56     1
     48     52     1
     48     53     1
     49     51     1
     49     61     1
     49     58     1
     49     59     1
     50     51     1
     50     61     1
     50     58     1
     50     59     1
     52     60     1
     52     55     1
     52     56     1
     53     60     1
     53     55     1
     53     56     1
     54    165     1
     55     62     1
     55    164     1
     56     62     1
     56    164     1
     57    190     1
     58     63     1
     58    189     1
     59     63     1
     59    189     1
     60    145     1
     60    146     1
     61    170     1
     61    171     1
     62    165     1
     63    190     1
     66     90     1
     66     74     1
     66     75     1
     66     77     1
     66     78     1
     67     89     1
     67     70     1
     67     71     1
     67     73     1
     67     76     1
     68     89     1
     68     70     1
     68     71     1
     68     73     1
     68     76     1
     70     72     1
     70     90     1
     71     72     1
     71     90     1
     72     83     1
     72     84     1
     72     80     1
     72     81     1
     73     77     1
     73     78     1
     74     76     1
     74     86     1
     74     83     1
     74     84     1
     75     76     1
     75     86     1
     75     83     1
     75     84     1
     77     85     1
     77     80     1
     77     81     1
     78     85     1
     78     80     1
     78     81     1
     79    215     1
     80     87     1
     80    214     1
     81     87     1
     81    214     1
     82    240     1
     83     88     1
     83    239     1
     84     88     1
     84    239     1
     85    195     1
     85    196     1
     86    220     1
     86    221     1
     87    215     1
     88    240     1
     91    115     1
     91     99     1
     91    100     1
     91    102     1
     91    103     1
     92    114     1
     92     95     1
     92     96     1
     92     98     1
     92    101     1
     93    114     1
     93     95     1
     93     96     1
     93     98     1
     93    101     1
     95     97     1
     95    115     1
     96     97     1
     96    115     1
     97    108     1
     97    109     1
     97    105     1
     97    106     1
     98    102     1
     98    103     1
     99    101     1
     99    111     1
     99    108     1
     99    109     1
    100    101     1
    100    111     1
    100    108     1
    100    109     1
    102    110     1
    102    105     1
    102    106     1
    103    110     1
    103    105     1
    103    106     1
    104    265     1
    105    112     1
    105    264     1
    106    112     1
    106    264     1
    107    290     1
    108    113     1
    108    289     1
    109    113     1
    109    289     1
    110    245     1
    110    246     1
    111    270     1
    111    271     1
    112    265     1
    113    290     1
    116    140     1
    116    124     1
    116    125     1
    116    127     1
    116    128     1
    117    139     1
    117    120     1
    117    121     1
    117    123     1
    117    126     1
    118    139     1
    118    120     1
    118    121     1
    118    123     1
    118    126     1
    120    122     1
    120    140     1
    121    122     1
    121    140     1
    122    133     1
    122    134     1
    122    130     1
    122    131     1
    123    127     1
    123    128     1
    124    126     1
    124    136     1
    124    133     1
    124    134     1
    125    126     1
    125    136     1
    125    133     1
    125    134     1
    127    135     1
    127    130     1
    127    131     1
    128    135     1
    128    130     1
    128    131     1
    129    315     1
    130    137     1
    130    314     1
    131    137     1
    131    314     1
    132    340     1
    133    138     1
    133    339     1
    134    138     1
    134    339     1
    135    295     1
    135    296     1
    136    320     1
    136    321     1
    137    315     1
    138    340     1
    141    165     1
    141    149     1
    141    150     1
    141    152     1
    141    153     1
    142    164     1
    142    145     1
    142    146     1
    142    148     1
    142    151     1
    143    164     1
    143    145     1
    143    146     1
    143    148     1
    143    151     1
    145    147     1
    145    165     1
    146    147     1
    146    165     1
    147    158     1
    147    159     1
    147    155     1
    147    156     1
    148    152     1
    148    153     1
    149    151     1
    149    161     1
    149    158     1
    149    159     1
    150    151     1
    150    161     1
    150    158     1
    150    159     1
    152    160     1
    152    155     1
    152    156     1
    153    160     1
    153    155     1
    153    156     1
    154    365     1
    155    162     1
    155    364     1
    156    162     1
    156    364     1
    157    390     1
    158    163     1
    158    389     1
    159    163     1
    159    389     1
    160    345     1
    160    346     1
    161    370     1
    161    371     1
    162    365     1
    163    390     1
    166    190     1
    166    174     1
    166    175     1
    166    177     1
    166    178     1
    167    189     1
    167    170     1
    167    171     1
    167    173     1
    167    176     1
    168    189     1
    168    170     1
    168    171     1
    168    173     1
    168    176     1
    170    172     1
    170    190     1
    171    172     1
    171    190     1
    172    183     1
    172    184     1
    172    180     1
    172    181     1
    173    177     1
    173    178     1
    174    176     1
    174    186     1
    174    183     1
    174    184     1
    175    176     1
    175    186     1
    175    183     1
    175    184     1
    177    185     1
    177    180     1
    177    181     1
    178    185     1
    178    180     1
    178    181     1
    179    415     1
    180    187     1
    180    414     1
    181    187     1
    181    414     1
    182    440     1
    183    188     1
    183    439     1
    184    188     1
    184    439     1
    185    395     1
    185    396     1
    186    420     1
    186    421     1
    187    415     1
    188    440     1
    191    215     1
    191    199     1
    191    200     1
    191    202     1
    191    203     1
    192    214     1
    192    195     1
    192    196     1
    192    198     1
    192    201     1
    193    214     1
    193    195     1
    193    196     1
    193    198     1
    193    201     1
    195    197     1
    195    215     1
    196    197     1
    196    215     1
    197    208     1
    197    209     1
    197    205     1
    197    206     1
    198    202     1
    198    203     1
    199    201     1
    199    211     1
    199    208     1
    199    209     1
    200    201     1
    200    211     1
    200    208     1
    200    209     1
    202    210     1
    202    205     1
    202    206     1
    203    210     1
    203    205     1
    203    206     1
    204    465     1
    205    212     1
    205    464     1
    206    212     1
    206    464     1
    207    490     1
    208    213     1
    208    489     1
    209    213     1
    209    489     1
    210    445     1
    210    446     1
    211    470     1
    211    471     1
    212    465     1
    213    490     1
    216    240     1
    216    224     1
    216    225     1
    216    227     1
    216    228     1
    217    239     1
    217    220     1
    217    221     1
    217    223     1
    217    226     1
    218    239     1
    218    220     1
    218    221     1
    218    223     1
    218    226     1
    220    222     1
    220    240     1
    221    222     1
    221    240     1
    222    233     1
    222    234     1
    222    230     1
    222    231     1
    223    227     1
    223    228     1
    224    226     1
    224    236     1
    224    233     1
    224    234     1
    225    226     1
    225    236     1
    225    233     1
    225    234     1
    227    235     1
    227    230     1
    227    231     1
    228    235     1
    228    230     1
    228    231     1
    229    515     1
    230    237     1
    230    514     1
    231    237     1
    231    514     1
    232    540     1
    233    238     1
    233    539     1
    234    238     1
    234    539     1
    235    495     1
    235    496     1
    236    520     1
    236    521     1
    237    515     1
    238    540     1
    241    265     1
    241    249     1
    241    250     1
    241    252     1
    241    253     1
    242    264     1
    242    245     1
    242    246     1
    242    248     1
    242    251     1
    243    264     1
    243    245     1
    243    246     1
    243    248     1
    243    251     1
    245    247     1
    245    265     1
    246    247     1
    246    265     1
    247    258     1
    247    259     1
    247    255     1
    247    256     1
    248    252     1
    248    253     1
    249    251     1
    249    261     1
    249    258     1
    249    259     1
    250    251     1
    250    261     1
    250    258     1
    250    259     1
    252    260     1
    252    255     1
    252    256     1
    253    260     1
    253    255     1
    253    256     1
    254    565     1
    255    262     1
    255    564     1
    256    262     1
    256    564     1
    257    590     1
    258    263     1
    258    589     1
    259    263     1
    259    589     1
    260    545     1
    260    546     1
    261    570     1
    261    571     1
    262    565     1
    263    590     1
    266    290     1
    266    274     1
    266    275     1
    266    277     1
    266    278     1
    267    289     1
    267    270     1
    267    271     1
    267    273     1
    267    276     1
    268    289     1
    268    270     1
    268    271     1
    268    273     1
    268    276     1
    270    272     1
    270    290     1
    271    272     1
    271    290     1
    272    283     1
    272    284     1
    272    280     1
    272    281     1
    273    277     1
    273    278     1
    274    276     1
    274    286     1
    274    283     1
    274    284     1
    275    276     1
    275    286     1
    275    283     1
    275    284     1
    277    285     1
    277    280     1
    277    281     1
    278    285     1
    278    280     1
    278    281     1
    279    615     1
    280    287     1
    280    614     1
    281    287     1
    281    614     1
    282    640     1
    283    288     1
    283    639     1
    284    288     1
    284    639     1
    285    595     1
    285    596     1
    286    620     1
    286    621     1
    287    615     1
    288    640     1
    291    315     1
    291    299     1
    291    300     1
    291    302     1
    291    303     1
    292    314     1
    292    295     1
    292    296     1
    292    298     1
    292    301     1
    293    314     1
    293    295     1
    293    296     1
    293    298     1
    293    301     1
    295    297     1
    295    315     1
    296    297     1
    296    315     1
    297    308     1
    297    309     1
    297    305     1
    297    306     1
    298    302     1
    298    303     1
    299    301     1
    299    311     1
    299    308     1
    299    309     1
    300    301     1
    300    311     1
    300    308     1
    300    309     1
    302    310     1
    302    305     1
    302    306     1
    303    310     1
    303    305     1
    303    306     1
    304    665     1
    305    312     1
    305    664     1
    306    312     1
    306    664     1
    307    690     1
    308    313     1
    308    689     1
    309    313     1
    309    689     1
    310    645     1
    310    646     1
    311    670     1
    311    671     1
    312    665     1
    313    690     1
    316    340     1
    316    324     1
    316    325     1
    316    327     1
    316    328     1
    317    339     1
    317    320     1
    317    321     1
    317    323     1
    317    326     1
    318    339     1
    318    320     1
    318    321     1
    318    323     1
    318    326     1
    320    322     1
    320    340     1
    321    322     1
    321    340     1
    322    333     1
    322    334     1
    322    330     1
    322    331     1
    323    327     1
    323    328     1
    324    326     1
    324    336     1
    324    333     1
    324    334     1
    325    326     1
    325    336     1
    325    333     1
    325    334     1
    327    335     1
    327    330     1
    327    331     1
    328    335     1
    328    330     1
    328    331     1
    329    715     1
    330    337     1
    330    714     1
    331    337     1
    331    714     1
    332    740     1
    333    338     1
    333    739     1
    334    338     1
    334    739     1
    335    695     1
    335    696     1
    336    720     1
    336    721     1
    337    715     1
    338    740     1
    341    365     1
    341    349     1
    341    350     1
    341    352     1
    341    353     1
    342    364     1
    342    345     1
    342    346     1
    342    348     1
    342    351     1
    343    364     1
    343    345     1
    343    346     1
    343    348     1
    343    351     1
    345    347     1
    345    365     1
    346    347     1
    346    365     1
    347    358     1
    347    359     1
    347    355     1
    347    356     1
    348    352     1
    348    353     1
    349    351     1
    349    361     1
    349    358     1
    349    359     1
    350    351     1
    350    361     1
    350    358     1
    350    359     1
    352    360     1
    352    355     1
    352    356     1
    353    360     1
    353    355     1
    353    356     1
    354    765     1
    355    362     1
    355    764     1
    356    362     1
    356    764     1
    357    790     1
    358    363     1
    358    789     1
    359    363     1
    359    789     1
    360    745     1
    360    746     1
    361    770     1
    361    771     1
    362    765     1
    363    790     1
    366    390     1
    366    374     1
    366    375     1
    366    377     1
    366    378     1
    367    389     1
    367    370     1
    367    371     1
    367    373     1
    367    376     1
    368    389     1
    368    370     1
    368    371     1
    368    373     1
    368    376     1
    370    372     1
    370    390     1
    371    372     1
    371    390     1
    372    383     1
    372    384     1
    372    380     1
    372    381     1
    373    377     1
    373    378     1
    374    376     1
    374    386     1
    374    383     1
    374    384     1
    375    376     1
    375    386     1
    375    383     1
    375    384     1
    377    385     1
    377    380     1
    377    381     1
    378    385     1
    378    380     1
    378    381     1
    379    815     1
    380    387     1
    380    814     1
    381    387     1
    381    814     1
    382    840     1
    383    388     1
    383    839     1
    384    388     1
    384    839     1
    385    795     1
    385    796     1
    386    820     1
    386    821     1
    387    815     1
    388    840     1
    391    415     1
    391    399     1
    391    400     1
    391    402     1
    391    403     1
    392    414     1
    392    395     1
    392    396     1
    392    398     1
    392    401     1
    393    414     1
    393    395     1
    393    396     1
    393    398     1
    393    401     1
    395    397     1
    395    415     1
    396    397     1
    396    415     1
    397    408     1
    397    409     1
    397    405     1
    397    406     1
    398    402     1
    398    403     1
    399    401     1
    399    411     1
    399    408     1
    399    409     1
    400    401     1
    400    411     1
    400    408     1
    400    409     1
    402    410     1
    402    405     1
    402    406     1
    403    410     1
    403    405     1
    403    406     1
    404    865     1
    405    412     1
    405    864     1
    406    412     1
    406    864     1
    407    890     1
    408    413     1
    408    889     1
    409    413     1
    409    889     1
    410    845     1
    410    846     1
    411    870     1
    411    871     1
    412    865     1
    413    890     1
    416    440     1
    416    424     1
    416    425     1
    416    427     1
    416    428     1
    417    439     1
    417    420     1
    417    421     1
    417    423     1
    417    426     1
    418    439     1
    418    420     1
    418    421     1
    418    423     1
    418    426     1
    420    422     1
    420    440     1
    421    422     1
    421    440     1
    422    433     1
    422    434     1
    422    430     1
    422    431     1
    423    427     1
    423    428     1
    424    426     1
    424    436     1
    424    433     1
    424    434     1
    425    426     1
    425    436     1
    425    433     1
    425    434     1
    427    435     1
    427    430     1
    427    431     1
    428    435     1
    428    430     1
    428    431     1
    429    915     1
    430    437     1
    430    914     1
    431    437     1
    431    914     1
    432    940     1
    433    438     1
    433    939     1
    434    438     1
    434    939     1
    435    895     1
    435    896     1
    436    920     1
    436    921     1
    437    915     1
    438    940     1
    441    465     1
    441    449     1
    441    450     1
    441    452     1
    441    453     1
    442    464     1
    442    445     1
    442    446     1
    442    448     1
    442    451     1
    443    464     1
    443    445     1
    443    446     1
    443    448     1
    443    451     1
    445    447     1
    445    465     1
    446    447     1
    446    465     1
    447    458     1
    447    459     1
    447    455     1
    447    456     1
    448    452     1
    448    453     1
    449    451     1
    449    461     1
    449    458     1
    449    459     1
    450    451     1
    450    461     1
    450    458     1
    450    459     1
    452    460     1
    452    455     1
    452    456     1
    453    460     1
    453    455     1
    453    456     1
    454    965     1
    455    462     1
    455    964     1
    456    462     1
    456    964     1
    457    990     1
    458    463     1
    458    989     1
    459    463     1
    459    989     1
    460    945     1
    460    946     1
    461    970     1
    461    971     1
    462    965     1
    463    990     1
    466    490     1
    466    474     1
    466    475     1
    466    477     1
    466    478     1
    467    489     1
    467    470     1
    467    471     1
    467    473     1
    467    476     1
    468    489     1
    468    470     1
    468    471     1
    468    473     1
    468    476     1
    470    472     1
    470    490     1
    471    472     1
    471    490     1
    472    483     1
    472    484     1
    472    480     1
    472    481     1
    473    477     1
    473    478     1
    474    476     1
    474    486     1
    474    483     1
    474    484     1
    475    476     1
    475    486     1
    475    483     1
    475    484     1
    477    485     1
    477    480     1
    477    481     1
    478    485     1
    478    480     1
    478    481     1
    479   1015     1
    480    487     1
    480   1014     1
    481    487     1
    481   1014     1
    482   1040     1
    483    488     1
    483   1039     1
    484    488     1
    484   1039     1
    485    995     1
    485    996     1
    486   1020     1
    486   1021     1
    487   1015     1
    488   1040     1
    491    515     1
    491    499     1
    491    500     1
    491    502     1
    491    503     1
    492    514     1
    492    495     1
    492    496     1
    492    498     1
    492    501     1
    493    514     1
    493    495     1
    493    496     1
    493    498     1
    493    501     1
    495    497     1
    495    515     1
    496    497     1
    496    515     1
    497    508     1
    497    509     1
    497    505     1
    497    506     1
    498    502     1
    498    503     1
    499    501     1
    499    511     1
    499    508     1
    499    509     1
    500    501     1
    500    511     1
    500    508     1
    500    509     1
    502    510     1
    502    505     1
    502    506     1
    503    510     1
    503    505     1
    503    506     1
    504   1065     1
    505    512     1
    505   1064     1
    506    512     1
    506   1064     1
    507   1090     1
    508    513     1
    508   1089     1
    509    513     1
    509   1089     1
    510   1045     1
    510   1046     1
    511   1070     1
    511   1071     1
    512   1065     1
    513   1090     1
    516    540     1
    516    524     1
    516    525     1
    516    527     1
    516    528     1
    517    539     1
    517    520     1
    517    521     1
    517    523     1
    517    526     1
    518    539     1
    518    520     1
    518    521     1
    518    523     1
    518    526     1
    520    522     1
    520    540     1
    521    522     1
    521    540     1
    522    533     1
    522    534     1
    522    530     1
    522    531     1
    523    527     1
    523    528     1
    524    526     1
    524    536     1
    524    533     1
    524    534     1
    525    526     1
    525    536     1
    525    533     1
    525    534     1
    527    535     1
    527    530     1
    527    531     1
    528    535     1
    528    530     1
    528    531     1
    529   1115     1
    530    537     1
    530   1114     1
    531    537     1
    531   1114     1
    532   1140     1
    533    538     1
    533   1139     1
    534    538     1
    534   1139     1
    535   1095     1
    535   1096     1
    536   1120     1
    536   1121     1
    537   1115     1
    538   1140     1
    541    565     1
    541    549     1
    541    550     1
    541    552     1
    541    553     1
    542    564     1
    542    545     1
    542    546     1
    542    548     1
    542    551     1
    543    564     1
    543    545     1
    543    546     1
    543    548     1
    543    551     1
    545    547     1
    545    565     1
    546    547     1
    546    565     1
    547    558     1
    547    559     1
    547    555     1
    547    556     1
    548    552     1
    548    553     1
    549    551     1
    549    561     1
    549    558     1
    549    559     1
    550    551     1
    550    561     1
    550    558     1
    550    559     1
    552    560     1
    552    555     1
    552    556     1
    553    560     1
    553    555     1
    553    556     1
    554   1165     1
    555    562     1
    555   1164     1
    556    562     1
    556   1164     1
    557   1190     1
    558    563     1
    558   1189     1
    559    563     1
    559   1189     1
    560   1145     1
    560   1146     1
    561   1170     1
    561   1171     1
    562   1165     1
    563   1190     1
    566    590     1
    566    574     1
    566    575     1
    566    577     1
    566    578     1
    567    589     1
    567    570     1
    567    571     1
    567    573     1
    567    576     1
    568    589     1
    568    570     1
    568    571     1
    568    573     1
    568    576     1
    570    572     1
    570    590     1
    571    572     1
    571    590     1
    572    583     1
    572    584     1
    572    580     1
    572    581     1
    573    577     1
    573    578     1
    574    576     1
    574    586     1
    574    583     1
    574    584     1
    575    576     1
    575    586     1
    575    583     1
    575    584     1
    577    585     1
    577    580     1
    577    581     1
    578    585     1
    578    580     1
    578    581     1
    579   1215     1
    580    587     1
    580   1214     1
    581    587     1
    581   1214     1
    582   1240     1
    583    588     1
    583   1239     1
    584    588     1
    584   1239     1
    585   1195     1
    585   1196     1
    586   1220     1
    586   1221     1
    587   1215     1
    588   1240     1
    591    615     1
    591    599     1
    591    600     1
    591    602     1
    591    603     1
    592    614     1
    592    595     1
    592    596     1
    592    598     1
    592    601     1
    593    614     1
    593    595     1
    593    596     1
    593    598     1
    593    601     1
    595    597     1
    595    615     1
    596    597     1
    596    615     1
    597    608     1
    597    609     1
    597    605     1
    597    606     1
    598    602     1
    598    603     1
    599    601     1
    599    611     1
    599    608     1
    599    609     1
    600    601     1
    600    611     1
    600    608     1
    600    609     1
    602    610     1
    602    605     1
    602    606     1
    603    610     1
    603    605     1
    603    606     1
    604   1265     1
    605    612     1
    605   1264     1
    606    612     1
    606   1264     1
    607   1290     1
    608    613     1
    608   1289     1
    609    613     1
    609   1289     1
    610   1245     1
    610   1246     1
    611   1270     1
    611   1271     1
    612   1265     1
    613   1290     1
    616    640     1
    616    624     1
    616    625     1
    616    627     1
    616    628     1
    617    639     1
    617    620     1
    617    621     1
    617    623     1
    617    626     1
    618    639     1
    618    620     1
    618    621     1
    618    623     1
    618    626     1
    620    622     1
    620    640     1
    621    622     1
    621    640     1
    622    633     1
    622    634     1
    622    630     1
    622    631     1
    623    627     1
    623    628     1
    624    626     1
    624    636     1
    624    633     1
    624    634     1
    625    626     1
    625    636     1
    625    633     1
    625    634     1
    627    635     1
    627    630     1
    627    631     1
    628    635     1
    628    630     1
    628    631     1
    629   1315     1
    630    637     1
    630   1314     1
    631    637     1
    631   1314     1
    632   1340     1
    633    638     1
    633   1339     1
    634    638     1
    634   1339     1
    635   1295     1
    635   1296     1
    636   1320     1
    636   1321     1
    637   1315     1
    638   1340     1
    641    665     1
    641    649     1
    641    650     1
    641    652     1
    641    653     1
    642    664     1
    642    645     1
    642    646     1
    642    648     1
    642    651     1
    643    664     1
    643    645     1
    643    646     1
    643    648     1
    643    651     1
    645    647     1
    645    665     1
    646    647     1
    646    665     1
    647    658     1
    647    659     1
    647    655     1
    647    656     1
    648    652     1
    648    653     1
    649    651     1
    649    661     1
    649    658     1
    649    659     1
    650    651     1
    650    661     1
    650    658     1
    650    659     1
    652    660     1
    652    655     1
    652    656     1
    653    660     1
    653    655     1
    653    656     1
    654   1365     1
    655    662     1
    655   1364     1
    656    662     1
    656   1364     1
    657   1390     1
    658    663     1
    658   1389     1
    659    663     1
    659   1389     1
    660   1345     1
    660   1346     1
    661   1370     1
    661   1371     1
    662   1365     1
    663   1390     1
    666    690     1
    666    674     1
    666    675     1
    666    677     1
    666    678     1
    667    689     1
    667    670     1
    667    671     1
    667    673     1
    667    676     1
    668    689     1
    668    670     1
    668    671     1
    668    673     1
    668    676     1
    670    672     1
    670    690     1
    671    672     1
    671    690     1
    672    683     1
    672    684     1
    672    680     1
    672    681     1
    673    677     1
    673    678     1
    674    676     1
    674    686     1
    674    683     1
    674    684     1
    675    676     1
    675    686     1
    675    683     1
    675    684     1
    677    685     1
    677    680     1
    677    681     1
    678    685     1
    678    680     1
    678    681     1
    679   1415     1
    680    687     1
    680   1414     1
    681    687     1
    681   1414     1
    682   1440     1
    683    688     1
    683   1439     1
    684    688     1
    684   1439     1
    685   1395     1
    685   1396     1
    686   1420     1
    686   1421     1
    687   1415     1
    688   1440     1
    691    715     1
    691    699     1
    691    700     1
    691    702     1
    691    703     1
    692    714     1
    692    695     1
    692    696     1
    692    698     1
    692    701     1
    693    714     1
    693    695     1
    693    696     1
    693    698     1
    693    701     1
    695    697     1
    695    715     1
    696    697     1
    696    715     1
    697    708     1
    697    709     1
    697    705     1
    697    706     1
    698    702     1
    698    703     1
    699    701     1
    699    711     1
    699    708     1
    699    709     1
    700    701     1
    700    711     1
    700    708     1
    700    709     1
    702    710     1
    702    705     1
    702    706     1
    703    710     1
    703    705     1
    703    706     1
    704   1465     1
    705    712     1
    705   1464     1
    706    712     1
    706   1464     1
    707   1490     1
    708    713     1
    708   1489     1
    709    713     1
    709   1489     1
    710   1445     1
    710   1446     1
    711   1470     1
    711   1471     1
    712   1465     1
    713   1490     1
    716    740     1
    716    724     1
    716    725     1
    716    727     1
    716    728     1
    717    739     1
    717    720     1
    717    721     1
    717    723     1
    717    726     1
    718    739     1
    718    720     1
    718    721     1
    718    723     1
    718    726     1
    720    722     1
    720    740     1
    721    722     1
    721    740     1
    722    733     1
    722    734     1
    722    730     1
    722    731     1
    723    727     1
    723    728     1
    724    726     1
    724    736     1
    724    733     1
    724    734     1
    725    726     1
    725    736     1
    725    733     1
    725    734     1
    727    735     1
    727    730     1
    727    731     1
    728    735     1
    728    730     1
    728    731     1
    729   1515     1
    730    737     1
    730   1514     1
    731    737     1
    731   1514     1
    732   1540     1
    733    738     1
    733   1539     1
    734    738     1
    734   1539     1
    735   1495     1
    735   1496     1
    736   1520     1
    736   1521     1
    737   1515     1
    738   1540     1
    741    765     1
    741    749     1
    741    750     1
    741    752     1
    741    753     1
    742    764     1
    742    745     1
    742    746     1
    742    748     1
    742    751     1
    743    764     1
    743    745     1
    743    746     1
    743    748     1
    743    751     1
    745    747     1
    745    765     1
    746    747     1
    746    765     1
    747    758     1
    747    759     1
    747    755     1
    747    756     1
    748    752     1
    748    753     1
    749    751     1
    749    761     1
    749    758     1
    749    759     1
    750    751     1
    750    761     1
    750    758     1
    750    759     1
    752    760     1
    752    755     1
    752    756     1
    753    760     1
    753    755     1
    753    756     1
    754   1565     1
    755    762     1
    755   1564     1
    756    762     1
    756   1564     1
    757   1590     1
    758    763     1
    758   1589     1
    759    763     1
    759   1589     1
    760   1545     1
    760   1546     1
    761   1570     1
    761   1571     1
    762   1565     1
    763   1590     1
    766    790     1
    766    774     1
    766    775     1
    766    777     1
    766    778     1
    767    789     1
    767    770     1
    767    771     1
    767    773     1
    767    776     1
    768    789     1
    768    770     1
    768    771     1
    768    773     1
    768    776     1
    770    772     1
    770    790     1
    771    772     1
    771    790     1
    772    783     1
    772    784     1
    772    780     1
    772    781     1
    773    777     1
    773    778     1
    774    776     1
    774    786     1
    774    783     1
    774    784     1
    775    776     1
    775    786     1
    775    783     1
    775    784     1
    777    785     1
    777    780     1
    777    781     1
    778    785     1
    778    780     1
    778    781     1
    779   1615     1
    780    787     1
    780   1614     1
    781    787     1
    781   1614     1
    782   1640     1
    783    788     1
    783   1639     1
    784    788     1
    784   1639     1
    785   1595     1
    785   1596     1
    786   1620     1
    786   1621     1
    787   1615     1
    788   1640     1
    791    815     1
    791    799     1
    791    800     1
    791    802     1
    791    803     1
    792    814     1
    792    795     1
    792    796     1
    792    798     1
    792    801     1
    793    814     1
    793    795     1
    793    796     1
    793    798     1
    793    801     1
    795    797     1
    795    815     1
    796    797     1
    796    815     1
    797    808     1
    797    809     1
    797    805     1
    797    806     1
    798    802     1
    798    803     1
    799    801     1
    799    811     1
    799    808     1
    799    809     1
    800    801     1
    800    811     1
    800    808     1
    800    809     1
    802    810     1
    802    805     1
    802    806     1
    803    810     1
    803    805     1
    803    806     1
    804   1665     1
    805    812     1
    805   1664     1
    806    812     1
    806   1664     1
    807   1690     1
    808    813     1
    808   1689     1
    809    813     1
    809   1689     1
    810   1645     1
    810   1646     1
    811   1670     1
    811   1671     1
    812   1665     1
    813   1690     1
    816    840     1
    816    824     1
    816    825     1
    816    827     1
    816    828     1
    817    839     1
    817    820     1
    817    821     1
    817    823     1
    817    826     1
    818    839     1
    818    820     1
    818    821     1
    818    823     1
    818    826     1
    820    822     1
    820    840     1
    821    822     1
    821    840     1
    822    833     1
    822    834     1
    822    830     1
    822    831     1
    823    827     1
    823    828     1
    824    826     1
    824    836     1
    824    833     1
    824    834     1
    825    826     1
    825    836     1
    825    833     1
    825    834     1
    827    835     1
    827    830     1
    827    831     1
    828    835     1
    828    830     1
    828    831     1
    829   1715     1
    830    837     1
    830   1714     1
    831    837     1
    831   1714     1
    832   1740     1
    833    838     1
    833   1739     1
    834    838     1
    834   1739     1
    835   1695     1
    835   1696     1
    836   1720     1
    836   1721     1
    837   1715     1
    838   1740     1
    841    865     1
    841    849     1
    841    850     1
    841    852     1
    841    853     1
    842    864     1
    842    845     1
    842    846     1
    842    848     1
    842    851     1
    843    864     1
    843    845     1
    843    846     1
    843    848     1
    843    851     1
    845    847     1
    845    865     1
    846    847     1
    846    865     1
    847    858     1
    847    859     1
    847    855     1
    847    856     1
    848    852     1
    848    853     1
    849    851     1
    849    861     1
    849    858     1
    849    859     1
    850    851     1
    850    861     1
    850    858     1
    850    859     1
    852    860     1
    852    855     1
    852    856     1
    853    860     1
    853    855     1
    853    856     1
    854   1765     1
    855    862     1
    855   1764     1
    856    862     1
    856   1764     1
    857   1790     1
    858    863     1
    858   1789     1
    859    863     1
    859   1789     1
    860   1745     1
    860   1746     1
    861   1770     1
    861   1771     1
    862   1765     1
    863   1790     1
    866    890     1
    866    874     1
    866    875     1
    866    877     1
    866    878     1
    867    889     1
    867    870     1
    867    871     1
    867    873     1
    867    876     1
    868    889     1
    868    870     1
    868    871     1
    868    873     1
    868    876     1
    870    872     1
    870    890     1
    871    872     1
    871    890     1
    872    883     1
    872    884     1
    872    880     1
    872    881     1
    873    877     1
    873    878     1
    874    876     1
    874    886     1
    874    883     1
    874    884     1
    875    876     1
    875    886     1
    875    883     1
    875    884     1
    877    885     1
    877    880     1
    877    881     1
    878    885     1
    878    880     1
    878    881     1
    879   1815     1
    880    887     1
    880   1814     1
    881    887     1
    881   1814     1
    882   1840     1
    883    888     1
    883   1839     1
    884    888     1
    884   1839     1
    885   1795     1
    885   1796     1
    886   1820     1
    886   1821     1
    887   1815     1
    888   1840     1
    891    915     1
    891    899     1
    891    900     1
    891    902     1
    891    903     1
    892    914     1
    892    895     1
    892    896     1
    892    898     1
    892    901     1
    893    914     1
    893    895     1
    893    896     1
    893    898     1
    893    901     1
    895    897     1
    895    915     1
    896    897     1
    896    915     1
    897    908     1
    897    909     1
    897    905     1
    897    906     1
    898    902     1
    898    903     1
    899    901     1
    899    911     1
    899    908     1
    899    909     1
    900    901     1
    900    911     1
    900    908     1
    900    909     1
    902    910     1
    902    905     1
    902    906     1
    903    910     1
    903    905     1
    903    906     1
    904   1865     1
    905    912     1
    905   1864     1
    906    912     1
    906   1864     1
    907   1890     1
    908    913     1
    908   1889     1
    909    913     1
    909   1889     1
    910   1845     1
    910   1846     1
    911   1870     1
    911   1871     1
    912   1865     1
    913   1890     1
    916    940     1
    916    924     1
    916    925     1
    916    927     1
    916    928     1
    917    939     1
    917    920     1
    917    921     1
    917    923     1
    917    926     1
    918    939     1
    918    920     1
    918    921     1
    918    923     1
    918    926     1
    920    922     1
    920    940     1
    921    922     1
    921    940     1
    922    933     1
    922    934     1
    922    930     1
    922    931     1
    923    927     1
    923    928     1
    924    926     1
    924    936     1
    924    933     1
    924    934     1
    925    926     1
    925    936     1
    925    933     1
    925    934     1
    927    935     1
    927    930     1
    927    931     1
    928    935     1
    928    930     1
    928    931     1
    929   1915     1
    930    937     1
    930   1914     1
    931    937     1
    931   1914     1
    932   1940     1
    933    938     1
    933   1939     1
    934    938     1
    934   1939     1
    935   1895     1
    935   1896     1
    936   1920     1
    936   1921     1
    937   1915     1
    938   1940     1
    941    965     1
    941    949     1
    941    950     1
    941    952     1
    941    953     1
    942    964     1
    942    945     1
    942    946     1
    942    948     1
    942    951     1
    943    964     1
    943    945     1
    943    946     1
    943    948     1
    943    951     1
    945    947     1
    945    965     1
    946    947     1
    946    965     1
    947    958     1
    947    959     1
    947    955     1
    947    956     1
    948    952     1
    948    953     1
    949    951     1
    949    961     1
    949    958     1
    949    959     1
    950    951     1
    950    961     1
    950    958     1
    950    959     1
    952    960     1
    952    955     1
    952    956     1
    953    960     1
    953    955     1
    953    956     1
    954   1965     1
    955    962     1
    955   1964     1
    956    962     1
    956   1964     1
    957   1990     1
    958    963     1
    958   1989     1
    959    963     1
    959   1989     1
    960   1945     1
    960   1946     1
    961   1970     1
    961   1971     1
    962   1965     1
    963   1990     1
    966    990     1
    966    974     1
    966    975     1
    966    977     1
    966    978     1
    967    989     1
    967    970     1
    967    971     1
    967    973     1
    967    976     1
    968    989     1
    968    970     1
    968    971     1
    968    973     1
    968    976     1
    970    972     1
    970    990     1
    971    972     1
    971    990     1
    972    983     1
    972    984     1
    972    980     1
    972    981     1
    973    977     1
    973    978     1
    974    976     1
    974    986     1
    974    983     1
    974    984     1
    975    976     1
    975    986     1
    975    983     1
    975    984     1
    977    985     1
    977    980     1
    977    981     1
    978    985     1
    978    980     1
    978    981     1
    979   2015     1
    980    987     1
    980   2014     1
    981    987     1
    981   2014     1
    982   2040     1
    983    988     1
    983   2039     1
    984    988     1
    984   2039     1
    985   1995     1
    985   1996     1
    986   2020     1
    986   2021     1
    987   2015     1
    988   2040     1
    991   1015     1
    991    999     1
    991   1000     1
    991   1002     1
    991   1003     1
    992   1014     1
    992    995     1
    992    996     1
    992    998     1
    992   1001     1
    993   1014     1
    993    995     1
    993    996     1
    993    998     1
    993   1001     1
    995    997     1
    995   1015     1
    996    997     1
    996   1015     1
    997   1008     1
    997   1009     1
    997   1005     1
    997   1006     1
    998   1002     1
    998   1003     1
    999   1001     1
    999   1011     1
    999   1008     1
    999   1009     1
   1000   1001     1
   1000   1011     1
   1000   1008     1
   1000   1009     1
   1002   1010     1
   1002   1005     1
   1002   1006     1
   1003   1010     1
   1003   1005     1
   1003   1006     1
   1004   2065     1
   1005   1012     1
   1005   2064     1
   1006   1012     1
   1006   2064     1
   1007   2090     1
   1008   1013     1
   1008   2089     1
   1009   1013     1
   1009   2089     1
   1010   2045     1
   1010   2046     1
   1011   2070     1
   1011   2071     1
   1012   2065     1
   1013   2090     1
   1016   1040     1
   1016   1024     1
   1016   1025     1
   1016   1027     1
   1016   1028     1
   1017   1039     1
   1017   1020     1
   1017   1021     1
   1017   1023     1
   1017   1026     1
   1018   1039     1
   1018   1020     1
   1018   1021     1
   1018   1023     1
   1018   1026     1
   1020   1022     1
   1020   1040     1
   1021   1022     1
   1021   1040     1
   1022   1033     1
   1022   1034     1
   1022   1030     1
   1022   1031     1
   1023   1027     1
   1023   1028     1
   1024   1026     1
   1024   1036     1
   1024   1033     1
   1024   1034     1
   1025   1026     1
   1025   1036     1
   1025   1033     1
   1025   1034     1
   1027   1035     1
   1027   1030     1
   1027   1031     1
   1028   1035     1
   1028   1030     1
   1028   1031     1
   1029   2115     1
   1030   1037     1
   1030   2114     1
   1031   1037     1
   1031   2114     1
   1032   2140     1
   1033   1038     1
   1033   2139     1
   1034   1038     1
   1034   2139     1
   1035   2095     1
   1035   2096     1
   1036   2120     1
   1036   2121     1
   1037   2115     1
   1038   2140     1
   1041   1065     1
   1041   1049     1
   1041   1050     1
   1041   1052     1
   1041   1053     1
   1042   1064     1
   1042   1045     1
   1042   1046     1
   1042   1048     1
   1042   1051     1
   1043   1064     1
   1043   1045     1
   1043   1046     1
   1043   1048     1
   1043   1051     1
   1045   1047     1
   1045   1065     1
   1046   1047     1
   1046   1065     1
   1047   1058     1
   1047   1059     1
   1047   1055     1
   1047   1056     1
   1048   1052     1
   1048   1053     1
   1049   1051     1
   1049   1061     1
   1049   1058     1
   1049   1059     1
   1050   1051     1
   1050   1061     1
   1050   1058     1
   1050   1059     1
   1052   1060     1
   1052   1055     1
   1052   1056     1
   1053   1060     1
   1053   1055     1
   1053   1056     1
   1054   2165     1
   1055   1062     1
   1055   2164     1
   1056   1062     1
   1056   2164     1
   1057   2190     1
   1058   1063     1
   1058   2189     1
   1059   1063     1
   1059   2189     1
   1060   2145     1
   1060   2146     1
   1061   2170     1
   1061   2171     1
   1062   2165     1
   1063   2190     1
   1066   1090     1
   1066   1074     1
   1066   1075     1
   1066   1077     1
   1066   1078     1
   1067   1089     1
   1067   1070     1
   1067   1071     1
   1067   1073     1
   1067   1076     1
   1068   1089     1
   1068   1070     1
   1068   1071     1
   1068   1073     1
   1068   1076     1
   1070   1072     1
   1070   1090     1
   1071   1072     1
   1071   1090     1
   1072   1083     1
   1072   1084     1
   1072   1080     1
   1072   1081     1
   1073   1077     1
   1073   1078     1
   1074   1076     1
   1074   1086     1
   1074   1083     1
   1074   1084     1
   1075   1076     1
   1075   1086     1
   1075   1083     1
   1075   1084     1
   1077   1085     1
   1077   1080     1
   1077   1081     1
   1078   1085     1
   1078   1080     1
   1078   1081     1
   1079   2215     1
   1080   1087     1
   1080   2214     1
   1081   1087     1
   1081   2214     1
   1082   2240     1
   1083   1088     1
   1083   2239     1
   1084   1088     1
   1084   2239     1
   1085   2195     1
   1085   2196     1
   1086   2220     1
   1086   2221     1
   1087   2215     1
   1088   2240     1
   1091   1115     1
   1091   1099     1
   1091   1100     1
   1091   1102     1
   1091   1103     1
   1092   1114     1
   1092   1095     1
   1092   1096     1
   1092   1098     1
   1092   1101     1
   1093   1114     1
   1093   1095     1
   1093   1096     1
   1093   1098     1
   1093   1101     1
   1095   1097     1
   1095   1115     1
   1096   1097     1
   1096   1115     1
   1097   1108     1
   1097   1109     1
   1097   1105     1
   1097   1106     1
   1098   1102     1
   1098   1103     1
   1099   1101     1
   1099   1111     1
   1099   1108     1
   1099   1109     1
   1100   1101     1
   1100   1111     1
   1100   1108     1
   1100   1109     1
   1102   1110     1
   1102   1105     1
   1102   1106     1
   1103   1110     1
   1103   1105     1
   1103   1106     1
   1104   2265     1
   1105   1112     1
   1105   2264     1
   1106   1112     1
   1106   2264     1
   1107   2290     1
   1108   1113     1
   1108   2289     1
   1109   1113     1
   1109   2289     1
   1110   2245     1
   1110   2246     1
   1111   2270     1
   1111   2271     1
   1112   2265     1
   1113   2290     1
   1116   1140     1
   1116   1124     1
   1116   1125     1
   1116   1127     1
   1116   1128     1
   1117   1139     1
   1117   1120     1
   1117   1121     1
   1117   1123     1
   1117   1126     1
   1118   1139     1
   1118   1120     1
   1118   1121     1
   1118   1123     1
   1118   1126     1
   1120   1122     1
   1120   1140     1
   1121   1122     1
   1121   1140     1
   1122   1133     1
   1122   1134     1
   1122   1130     1
   1122   1131     1
   1123   1127     1
   1123   1128     1
   1124   1126     1
   1124   1136     1
   1124   1133     1
   1124   1134     1
   1125   1126     1
   1125   1136     1
   1125   1133     1
   1125   1134     1
   1127   1135     1
   1127   1130     1
   1127   1131     1
   1128   1135     1
   1128   1130     1
   1128   1131     1
   1129   2315     1
   1130   1137     1
   1130   2314     1
   1131   1137     1
   1131   2314     1
   1132   2340     1
   1133   1138     1
   1133   2339     1
   1134   1138     1
   1134   2339     1
   1135   2295     1
   1135   2296     1
   1136   2320     1
   1136   2321     1
   1137   2315     1
   1138   2340     1
   1141   1165     1
   1141   1149     1
   1141   1150     1
   1141   1152     1
   1141   1153     1
   1142   1164     1
   1142   1145     1
   1142   1146     1
   1142   1148     1
   1142   1151     1
   1143   1164     1
   1143   1145     1
   1143   1146     1
   1143   1148     1
   1143   1151     1
   1145   1147     1
   1145   1165     1
   1146   1147     1
   1146   1165     1
   1147   1158     1
   1147   1159     1
   1147   1155     1
   1147   1156     1
   1148   1152     1
   1148   1153     1
   1149   1151     1
   1149   1161     1
   1149   1158     1
   1149   1159     1
   1150   1151     1
   1150   1161     1
   1150   1158     1
   1150   1159     1
   1152   1160     1
   1152   1155     1
   1152   1156     1
   1153   1160     1
   1153   1155     1
   1153   1156     1
   1154   2365     1
   1155   1162     1
   1155   2364     1
   1156   1162     1
   1156   2364     1
   1157   2390     1
   1158   1163     1
   1158   2389     1
   1159   1163     1
   1159   2389     1
   1160   2345     1
   1160   2346     1
   1161   2370     1
   1161   2371     1
   1162   2365     1
   1163   2390     1
   1166   1190     1
   1166   1174     1
   1166   1175     1
   1166   1177     1
   1166   1178     1
   1167   1189     1
   1167   1170     1
   1167   1171     1
   1167   1173     1
   1167   1176     1
   1168   1189     1
   1168   1170     1
   1168   1171     1
   1168   1173     1
   1168   1176     1
   1170   1172     1
   1170   1190     1
   1171   1172     1
   1171   1190     1
   1172   1183     1
   1172   1184     1
   1172   1180     1
   1172   1181     1
   1173   1177     1
   1173   1178     1
   1174   1176     1
   1174   1186     1
   1174   1183     1
   1174   1184     1
   1175   1176     1
   1175   1186     1
   1175   1183     1
   1175   1184     1
   1177   1185     1
   1177   1180     1
   1177   1181     1
   1178   1185     1
   1178   1180     1
   1178   1181     1
   1179   2415     1
   1180   1187     1
   1180   2414     1
   1181   1187     1
   1181   2414     1
   1182   2440     1
   1183   1188     1
   1183   2439     1
   1184   1188     1
   1184   2439     1
   1185   2395     1
   1185   2396     1
   1186   2420     1
   1186   2421     1
   1187   2415     1
   1188   2440     1
   1191   1215     1
   1191   1199     1
   1191   1200     1
   1191   1202     1
   1191   1203     1
   1192   1214     1
   1192   1195     1
   1192   1196     1
   1192   1198     1
   1192   1201     1
   1193   1214     1
   1193   1195     1
   1193   1196     1
   1193   1198     1
   1193   1201     1
   1195   1197     1
   1195   1215     1
   1196   1197     1
   1196   1215     1
   1197   1208     1
   1197   1209     1
   1197   1205     1
   1197   1206     1
   1198   1202     1
   1198   1203     1
   1199   1201     1
   1199   1211     1
   1199   1208     1
   1199   1209     1
   1200   1201     1
   1200   1211     1
   1200   1208     1
   1200   1209     1
   1202   1210     1
   1202   1205     1
   1202   1206     1
   1203   1210     1
   1203   1205     1
   1203   1206     1
   1204   2465     1
   1205   1212     1
   1205   2464     1
   1206   1212     1
   1206   2464     1
   1207   2490     1
   1208   1213     1
   1208   2489     1
   1209   1213     1
   1209   2489     1
   1210   2445     1
   1210   2446     1
   1211   2470     1
   1211   2471     1
   1212   2465     1
   1213   2490     1
   1216   1240     1
   1216   1224     1
   1216   1225     1
   1216   1227     1
   1216   1228     1
   1217   1239     1
   1217   1220     1
   1217   1221     1
   1217   1223     1
   1217   1226     1
   1218   1239     1
   1218   1220     1
   1218   1221     1
   1218   1223     1
   1218   1226     1
   1220   1222     1
   1220   1240     1
   1221   1222     1
   1221   1240     1
   1222   1233     1
   1222   1234     1
   1222   1230     1
   1222   1231     1
   1223   1227     1
   1223   1228     1
   1224   1226     1
   1224   1236     1
   1224   1233     1
   1224   1234     1
   1225   1226     1
   1225   1236     1
   1225   1233     1
   1225   1234     1
   1227   1235     1
   1227   1230     1
   1227   1231     1
   1228   1235     1
   1228   1230     1
   1228   1231     1
   1229   2515     1
   1230   1237     1
   1230   2514     1
   1231   1237     1
   1231   2514     1
   1232   2540     1
   1233   1238     1
   1233   2539     1
   1234   1238     1
   1234   2539     1
   1235   2495     1
   1235   2496     1
   1236   2520     1
   1236   2521     1
   1237   2515     1
   1238   2540     1
   1241   1265     1
   1241   1249     1
   1241   1250     1
   1241   1252     1
   1241   1253     1
   1242   1264     1
   1242   1245     1
   1242   1246     1
   1242   1248     1
   1242   1251     1
   1243   1264     1
   1243   1245     1
   1243   1246     1
   1243   1248     1
   1243   1251     1
   1245   1247     1
   1245   1265     1
   1246   1247     1
   1246   1265     1
   1247   1258     1
   1247   1259     1
   1247   1255     1
   1247   1256     1
   1248   1252     1
   1248   1253     1
   1249   1251     1
   1249   1261     1
   1249   1258     1
   1249   1259     1
   1250   1251     1
   1250   1261     1
   1250   1258     1
   1250   1259     1
   1252   1260     1
   1252   1255     1
   1252   1256     1
   1253   1260     1
   1253   1255     1
   1253   1256     1
   1254   2565     1
   1255   1262     1
   1255   2564     1
   1256   1262     1
   1256   2564     1
   1257   2590     1
   1258   1263     1
   1258   2589     1
   1259   1263     1
   1259   2589     1
   1260   2545     1
   1260   2546     1
   1261   2570     1
   1261   2571     1
   1262   2565     1
   1263   2590     1
   1266   1290     1
   1266   1274     1
   1266   1275     1
   1266   1277     1
   1266   1278     1
   1267   1289     1
   1267   1270     1
   1267   1271     1
   1267   1273     1
   1267   1276     1
   1268   1289     1
   1268   1270     1
   1268   1271     1
   1268   1273     1
   1268   1276     1
   1270   1272     1
   1270   1290     1
   1271   1272     1
   1271   1290     1
   1272   1283     1
   1272   1284     1
   1272   1280     1
   1272   1281     1
   1273   1277     1
   1273   1278     1
   1274   1276     1
   1274   1286     1
   1274   1283     1
   1274   1284     1
   1275   1276     1
   1275   1286     1
   1275   1283     1
   1275   1284     1
   1277   1285     1
   1277   1280     1
   1277   1281     1
   1278   1285     1
   1278   1280     1
   1278   1281     1
   1279   2615     1
   1280   1287     1
   1280   2614     1
   1281   1287     1
   1281   2614     1
   1282   2640     1
   1283   1288     1
   1283   2639     1
   1284   1288     1
   1284   2639     1
   1285   2595     1
   1285   2596     1
   1286   2620     1
   1286   2621     1
   1287   2615     1
   1288   2640     1
   1291   1315     1
   1291   1299     1
   1291   1300     1
   1291   1302     1
   1291   1303     1
   1292   1314     1
   1292   1295     1
   1292   1296     1
   1292   1298     1
   1292   1301     1
   1293   1314     1
   1293   1295     1
   1293   1296     1
   1293   1298     1
   1293   1301     1
   1295   1297     1
   1295   1315     1
   1296   1297     1
   1296   1315     1
   1297   1308     1
   1297   1309     1
   1297   1305     1
   1297   1306     1
   1298   1302     1
   1298   1303     1
   1299   1301     1
   1299   1311     1
   1299   1308     1
   1299   1309     1
   1300   1301     1
   1300   1311     1
   1300   1308     1
   1300   1309     1
   1302   1310     1
   1302   1305     1
   1302   1306     1
   1303   1310     1
   1303   1305     1
   1303   1306     1
   1304   2665     1
   1305   1312     1
   1305   2664     1
   1306   1312     1
   1306   2664     1
   1307   2690     1
   1308   1313     1
   1308   2689     1
   1309   1313     1
   1309   2689     1
   1310   2645     1
   1310   2646     1
   1311   2670     1
   1311   2671     1
   1312   2665     1
   1313   2690     1
   1316   1340     1
   1316   1324     1
   1316   1325     1
   1316   1327     1
   1316   1328     1
   1317   1339     1
   1317   1320     1
   1317   1321     1
   1317   1323     1
   1317   1326     1
   1318   1339     1
   1318   1320     1
   1318   1321     1
   1318   1323     1
   1318   1326     1
   1320   1322     1
   1320   1340     1
   1321   1322     1
   1321   1340     1
   1322   1333     1
   1322   1334     1
   1322   1330     1
   1322   1331     1
   1323   1327     1
   1323   1328     1
   1324   1326     1
   1324   1336     1
   1324   1333     1
   1324   1334     1
   1325   1326     1
   1325   1336     1
   1325   1333     1
   1325   1334     1
   1327   1335     1
   1327   1330     1
   1327   1331     1
   1328   1335     1
   1328   1330     1
   1328   1331     1
   1329   2715     1
   1330   1337     1
   1330   2714     1
   1331   1337     1
   1331   2714     1
   1332   2740     1
   1333   1338     1
   1333   2739     1
   1334   1338     1
   1334   2739     1
   1335   2695     1
   1335   2696     1
   1336   2720     1
   1336   2721     1
   1337   2715     1
   1338   2740     1
   1341   1365     1
   1341   1349     1
   1341   1350     1
   1341   1352     1
   1341   1353     1
   1342   1364     1
   1342   1345     1
   1342   1346     1
   1342   1348     1
   1342   1351     1
   1343   1364     1
   1343   1345     1
   1343   1346     1
   1343   1348     1
   1343   1351     1
   1345   1347     1
   1345   1365     1
   1346   1347     1
   1346   1365     1
   1347   1358     1
   1347   1359     1
   1347   1355     1
   1347   1356     1
   1348   1352     1
   1348   1353     1
   1349   1351     1
   1349   1361     1
   1349   1358     1
   1349   1359     1
   1350   1351     1
   1350   1361     1
   1350   1358     1
   1350   1359     1
   1352   1360     1
   1352   1355     1
   1352   1356     1
   1353   1360     1
   1353   1355     1
   1353   1356     1
   1354   2765     1
   1355   1362     1
   1355   2764     1
   1356   1362     1
   1356   2764     1
   1357   2790     1
   1358   1363     1
   1358   2789     1
   1359   1363     1
   1359   2789     1
   1360   2745     1
   1360   2746     1
   1361   2770     1
   1361   2771     1
   1362   2765     1
   1363   2790     1
   1366   1390     1
   1366   1374     1
   1366   1375     1
   1366   1377     1
   1366   1378     1
   1367   1389     1
   1367   1370     1
   1367   1371     1
   1367   1373     1
   1367   1376     1
   1368   1389     1
   1368   1370     1
   1368   1371     1
   1368   1373     1
   1368   1376     1
   1370   1372     1
   1370   1390     1
   1371   1372     1
   1371   1390     1
   1372   1383     1
   1372   1384     1
   1372   1380     1
   1372   1381     1
   1373   1377     1
   1373   1378     1
   1374   1376     1
   1374   1386     1
   1374   1383     1
   1374   1384     1
   1375   1376     1
   1375   1386     1
   1375   1383     1
   1375   1384     1
   1377   1385     1
   1377   1380     1
   1377   1381     1
   1378   1385     1
   1378   1380     1
   1378   1381     1
   1379   2815     1
   1380   1387     1
   1380   2814     1
   1381   1387     1
   1381   2814     1
   1382   2840     1
   1383   1388     1
   1383   2839     1
   1384   1388     1
   1384   2839     1
   1385   2795     1
   1385   2796     1
   1386   2820     1
   1386   2821     1
   1387   2815     1
   1388   2840     1
   1391   1415     1
   1391   1399     1
   1391   1400     1
   1391   1402     1
   1391   1403     1
   1392   1414     1
   1392   1395     1
   1392   1396     1
   1392   1398     1
   1392   1401     1
   1393   1414     1
   1393   1395     1
   1393   1396     1
   1393   1398     1
   1393   1401     1
   1395   1397     1
   1395   1415     1
   1396   1397     1
   1396   1415     1
   1397   1408     1
   1397   1409     1
   1397   1405     1
   1397   1406     1
   1398   1402     1
   1398   1403     1
   1399   1401     1
   1399   1411     1
   1399   1408     1
   1399   1409     1
   1400   1401     1
   1400   1411     1
   1400   1408     1
   1400   1409     1
   1402   1410     1
   1402   1405     1
   1402   1406     1
   1403   1410     1
   1403   1405     1
   1403   1406     1
   1404   2865     1
   1405   1412     1
   1405   2864     1
   1406   1412     1
   1406   2864     1
   1407   2890     1
   1408   1413     1
   1408   2889     1
   1409   1413     1
   1409   2889     1
   1410   2845     1
   1410   2846     1
   1411   2870     1
   1411   2871     1
   1412   2865     1
   1413   2890     1
   1416   1440     1
   1416   1424     1
   1416   1425     1
   1416   1427     1
   1416   1428     1
   1417   1439     1
   1417   1420     1
   1417   1421     1
   1417   1423     1
   1417   1426     1
   1418   1439     1
   1418   1420     1
   1418   1421     1
   1418   1423     1
   1418   1426     1
   1420   1422     1
   1420   1440     1
   1421   1422     1
   1421   1440     1
   1422   1433     1
   1422   1434     1
   1422   1430     1
   1422   1431     1
   1423   1427     1
   1423   1428     1
   1424   1426     1
   1424   1436     1
   1424   1433     1
   1424   1434     1
   1425   1426     1
   1425   1436     1
   1425   1433     1
   1425   1434     1
   1427   1435     1
   1427   1430     1
   1427   1431     1
   1428   1435     1
   1428   1430     1
   1428   1431     1
   1429   2915     1
   1430   1437     1
   1430   2914     1
   1431   1437     1
   1431   2914     1
   1432   2940     1
   1433   1438     1
   1433   2939     1
   1434   1438     1
   1434   2939     1
   1435   2895     1
   1435   2896     1
   1436   2920     1
   1436   2921     1
   1437   2915     1
   1438   2940     1
   1441   1465     1
   1441   1449     1
   1441   1450     1
   1441   1452     1
   1441   1453     1
   1442   1464     1
   1442   1445     1
   1442   1446     1
   1442   1448     1
   1442   1451     1
   1443   1464     1
   1443   1445     1
   1443   1446     1
   1443   1448     1
   1443   1451     1
   1445   1447     1
   1445   1465     1
   1446   1447     1
   1446   1465     1
   1447   1458     1
   1447   1459     1
   1447   1455     1
   1447   1456     1
   1448   1452     1
   1448   1453     1
   1449   1451     1
   1449   1461     1
   1449   1458     1
   1449   1459     1
   1450   1451     1
   1450   1461     1
   1450   1458     1
   1450   1459     1
   1452   1460     1
   1452   1455     1
   1452   1456     1
   1453   1460     1
   1453   1455     1
   1453   1456     1
   1454   2965     1
   1455   1462     1
   1455   2964     1
   1456   1462     1
   1456   2964     1
   1457   2990     1
   1458   1463     1
   1458   2989     1
   1459   1463     1
   1459   2989     1
   1460   2945     1
   1460   2946     1
   1461   2970     1
   1461   2971     1
   1462   2965     1
   1463   2990     1
   1466   1490     1
   1466   1474     1
   1466   1475     1
   1466   1477     1
   1466   1478     1
   1467   1489     1
   1467   1470     1
   1467   1471     1
   1467   1473     1
   1467   1476     1
   1468   1489     1
   1468   1470     1
   1468   1471     1
   1468   1473     1
   1468   1476     1
   1470   1472     1
   1470   1490     1
   1471   1472     1
   1471   1490     1
   1472   1483     1
   1472   1484     1
   1472   1480     1
   1472   1481     1
   1473   1477     1
   1473   1478     1
   1474   1476     1
   1474   1486     1
   1474   1483     1
   1474   1484     1
   1475   1476     1
   1475   1486     1
   1475   1483     1
   1475   1484     1
   1477   1485     1
   1477   1480     1
   1477   1481     1
   1478   1485     1
   1478   1480     1
   1478   1481     1
   1479   3015     1
   1480   1487     1
   1480   3014     1
   1481   1487     1
   1481   3014     1
   1482   3040     1
   1483   1488     1
   1483   3039     1
   1484   1488     1
   1484   3039     1
   1485   2995     1
   1485   2996     1
   1486   3020     1
   1486   3021     1
   1487   3015     1
   1488   3040     1
   1491   1515     1
   1491   1499     1
   1491   1500     1
   1491   1502     1
   1491   1503     1
   1492   1514     1
   1492   1495     1
   1492   1496     1
   1492   1498     1
   1492   1501     1
   1493   1514     1
   1493   1495     1
   1493   1496     1
   1493   1498     1
   1493   1501     1
   1495   1497     1
   1495   1515     1
   1496   1497     1
   1496   1515     1
   1497   1508     1
   1497   1509     1
   1497   1505     1
   1497   1506     1
   1498   1502     1
   1498   1503     1
   1499   1501     1
   1499   1511     1
   1499   1508     1
   1499   1509     1
   1500   1501     1
   1500   1511     1
   1500   1508     1
   1500   1509     1
   1502   1510     1
   1502   1505     1
   1502   1506     1
   1503   1510     1
   1503   1505     1
   1503   1506     1
   1504   3065     1
   1505   1512     1
   1505   3064     1
   1506   1512     1
   1506   3064     1
   1507   3090     1
   1508   1513     1
   1508   3089     1
   1509   1513     1
   1509   3089     1
   1510   3045     1
   1510   3046     1
   1511   3070     1
   1511   3071     1
   1512   3065     1
   1513   3090     1
   1516   1540     1
   1516   1524     1
   1516   1525     1
   1516   1527     1
   1516   1528     1
   1517   1539     1
   1517   1520     1
   1517   1521     1
   1517   1523     1
   1517   1526     1
   1518   1539     1
   1518   1520     1
   1518   1521     1
   1518   1523     1
   1518   1526     1
   1520   1522     1
   1520   1540     1
   1521   1522     1
   1521   1540     1
   1522   1533     1
   1522   1534     1
   1522   1530     1
   1522   1531     1
   1523   1527     1
   1523   1528     1
   1524   1526     1
   1524   1536     1
   1524   1533     1
   1524   1534     1
   1525   1526     1
   1525   1536     1
   1525   1533     1
   1525   1534     1
   1527   1535     1
   1527   1530     1
   1527   1531     1
   1528   1535     1
   1528   1530     1
   1528   1531     1
   1529   3115     1
   1530   1537     1
   1530   3114     1
   1531   1537     1
   1531   3114     1
   1532   3140     1
   1533   1538     1
   1533   3139     1
   1534   1538     1
   1534   3139     1
   1535   3095     1
   1535   3096     1
   1536   3120     1
   1536   3121     1
   1537   3115     1
   1538   3140     1
   1541   1565     1
   1541   1549     1
   1541   1550     1
   1541   1552     1
   1541   1553     1
   1542   1564     1
   1542   1545     1
   1542   1546     1
   1542   1548     1
   1542   1551     1
   1543   1564     1
   1543   1545     1
   1543   1546     1
   1543   1548     1
   1543   1551     1
   1545   1547     1
   1545   1565     1
   1546   1547     1
   1546   1565     1
   1547   1558     1
   1547   1559     1
   1547   1555     1
   1547   1556     1
   1548   1552     1
   1548   1553     1
   1549   1551     1
   1549   1561     1
   1549   1558     1
   1549   1559     1
   1550   1551     1
   1550   1561     1
   1550   1558     1
   1550   1559     1
   1552   1560     1
   1552   1555     1
   1552   1556     1
   1553   1560     1
   1553   1555     1
   1553   1556     1
   1554   3142     1
   1555   3141     1
   1555   1562     1
   1556   3141     1
   1556   1562     1
   1557   3215     1
   1558   1563     1
   1558   3214     1
   1559   1563     1
   1559   3214     1
   1560   3144     1
   1560   3146     1
   1561   3217     1
   1561   3219     1
   1562   3142     1
   1563   3215     1
   1566   1590     1
   1566   1574     1
   1566   1575     1
   1566   1577     1
   1566   1578     1
   1567   1589     1
   1567   1570     1
   1567   1571     1
   1567   1573     1
   1567   1576     1
   1568   1589     1
   1568   1570     1
   1568   1571     1
   1568   1573     1
   1568   1576     1
   1570   1572     1
   1570   1590     1
   1571   1572     1
   1571   1590     1
   1572   1583     1
   1572   1584     1
   1572   1580     1
   1572   1581     1
   1573   1577     1
   1573   1578     1
   1574   1576     1
   1574   1586     1
   1574   1583     1
   1574   1584     1
   1575   1576     1
   1575   1586     1
   1575   1583     1
   1575   1584     1
   1577   1585     1
   1577   1580     1
   1577   1581     1
   1578   1585     1
   1578   1580     1
   1578   1581     1
   1579   3288     1
   1580   3287     1
   1580   1587     1
   1581   3287     1
   1581   1587     1
   1582   3361     1
   1583   1588     1
   1583   3360     1
   1584   1588     1
   1584   3360     1
   1585   3290     1
   1585   3292     1
   1586   3363     1
   1586   3365     1
   1587   3288     1
   1588   3361     1
   1591   1615     1
   1591   1599     1
   1591   1600     1
   1591   1602     1
   1591   1603     1
   1592   1614     1
   1592   1595     1
   1592   1596     1
   1592   1598     1
   1592   1601     1
   1593   1614     1
   1593   1595     1
   1593   1596     1
   1593   1598     1
   1593   1601     1
   1595   1597     1
   1595   1615     1
   1596   1597     1
   1596   1615     1
   1597   1608     1
   1597   1609     1
   1597   1605     1
   1597   1606     1
   1598   1602     1
   1598   1603     1
   1599   1601     1
   1599   1611     1
   1599   1608     1
   1599   1609     1
   1600   1601     1
   1600   1611     1
   1600   1608     1
   1600   1609     1
   1602   1610     1
   1602   1605     1
   1602   1606     1
   1603   1610     1
   1603   1605     1
   1603   1606     1
   1604   3434     1
   1605   3433     1
   1605   1612     1
   1606   3433     1
   1606   1612     1
   1607   3507     1
   1608   1613     1
   1608   3506     1
   1609   1613     1
   1609   3506     1
   1610   3436     1
   1610   3438     1
   1611   3509     1
   1611   3511     1
   1612   3434     1
   1613   3507     1
   1616   1640     1
   1616   1624     1
   1616   1625     1
   1616   1627     1
   1616   1628     1
   1617   1639     1
   1617   1620     1
   1617   1621     1
   1617   1623     1
   1617   1626     1
   1618   1639     1
   1618   1620     1
   1618   1621     1
   1618   1623     1
   1618   1626     1
   1620   1622     1
   1620   1640     1
   1621   1622     1
   1621   1640     1
   1622   1633     1
   1622   1634     1
   1622   1630     1
   1622   1631     1
   1623   1627     1
   1623   1628     1
   1624   1626     1
   1624   1636     1
   1624   1633     1
   1624   1634     1
   1625   1626     1
   1625   1636     1
   1625   1633     1
   1625   1634     1
   1627   1635     1
   1627   1630     1
   1627   1631     1
   1628   1635     1
   1628   1630     1
   1628   1631     1
   1629   3580     1
   1630   3579     1
   1630   1637     1
   1631   3579     1
   1631   1637     1
   1632   3653     1
   1633   1638     1
   1633   3652     1
   1634   1638     1
   1634   3652     1
   1635   3582     1
   1635   3584     1
   1636   3655     1
   1636   3657     1
   1637   3580     1
   1638   3653     1
   1641   1665     1
   1641   1649     1
   1641   1650     1
   1641   1652     1
   1641   1653     1
   1642   1664     1
   1642   1645     1
   1642   1646     1
   1642   1648     1
   1642   1651     1
   1643   1664     1
   1643   1645     1
   1643   1646     1
   1643   1648     1
   1643   1651     1
   1645   1647     1
   1645   1665     1
   1646   1647     1
   1646   1665     1
   1647   1658     1
   1647   1659     1
   1647   1655     1
   1647   1656     1
   1648   1652     1
   1648   1653     1
   1649   1651     1
   1649   1661     1
   1649   1658     1
   1649   1659     1
   1650   1651     1
   1650   1661     1
   1650   1658     1
   1650   1659     1
   1652   1660     1
   1652   1655     1
   1652   1656     1
   1653   1660     1
   1653   1655     1
   1653   1656     1
   1654   3726     1
   1655   3725     1
   1655   1662     1
   1656   3725     1
   1656   1662     1
   1657   3799     1
   1658   1663     1
   1658   3798     1
   1659   1663     1
   1659   3798     1
   1660   3728     1
   1660   3730     1
   1661   3801     1
   1661   3803     1
   1662   3726     1
   1663   3799     1
   1666   1690     1
   1666   1674     1
   1666   1675     1
   1666   1677     1
   1666   1678     1
   1667   1689     1
   1667   1670     1
   1667   1671     1
   1667   1673     1
   1667   1676     1
   1668   1689     1
   1668   1670     1
   1668   1671     1
   1668   1673     1
   1668   1676     1
   1670   1672     1
   1670   1690     1
   1671   1672     1
   1671   1690     1
   1672   1683     1
   1672   1684     1
   1672   1680     1
   1672   1681     1
   1673   1677     1
   1673   1678     1
   1674   1676     1
   1674   1686     1
   1674   1683     1
   1674   1684     1
   1675   1676     1
   1675   1686     1
   1675   1683     1
   1675   1684     1
   1677   1685     1
   1677   1680     1
   1677   1681     1
   1678   1685     1
   1678   1680     1
   1678   1681     1
   1679   3872     1
   1680   3871     1
   1680   1687     1
   1681   3871     1
   1681   1687     1
   1682   3945     1
   1683   1688     1
   1683   3944     1
   1684   1688     1
   1684   3944     1
   1685   3874     1
   1685   3876     1
   1686   3947     1
   1686   3949     1
   1687   3872     1
   1688   3945     1
   1691   1715     1
   1691   1699     1
   1691   1700     1
   1691   1702     1
   1691   1703     1
   1692   1714     1
   1692   1695     1
   1692   1696     1
   1692   1698     1
   1692   1701     1
   1693   1714     1
   1693   1695     1
   1693   1696     1
   1693   1698     1
   1693   1701     1
   1695   1697     1
   1695   1715     1
   1696   1697     1
   1696   1715     1
   1697   1708     1
   1697   1709     1
   1697   1705     1
   1697   1706     1
   1698   1702     1
   1698   1703     1
   1699   1701     1
   1699   1711     1
   1699   1708     1
   1699   1709     1
   1700   1701     1
   1700   1711     1
   1700   1708     1
   1700   1709     1
   1702   1710     1
   1702   1705     1
   1702   1706     1
   1703   1710     1
   1703   1705     1
   1703   1706     1
   1704   4018     1
   1705   4017     1
   1705   1712     1
   1706   4017     1
   1706   1712     1
   1707   4091     1
   1708   1713     1
   1708   4090     1
   1709   1713     1
   1709   4090     1
   1710   4020     1
   1710   4022     1
   1711   4093     1
   1711   4095     1
   1712   4018     1
   1713   4091     1
   1716   1740     1
   1716   1724     1
   1716   1725     1
   1716   1727     1
   1716   1728     1
   1717   1739     1
   1717   1720     1
   1717   1721     1
   1717   1723     1
   1717   1726     1
   1718   1739     1
   1718   1720     1
   1718   1721     1
   1718   1723     1
   1718   1726     1
   1720   1722     1
   1720   1740     1
   1721   1722     1
   1721   1740     1
   1722   1733     1
   1722   1734     1
   1722   1730     1
   1722   1731     1
   1723   1727     1
   1723   1728     1
   1724   1726     1
   1724   1736     1
   1724   1733     1
   1724   1734     1
   1725   1726     1
   1725   1736     1
   1725   1733     1
   1725   1734     1
   1727   1735     1
   1727   1730     1
   1727   1731     1
   1728   1735     1
   1728   1730     1
   1728   1731     1
   1729   4164     1
   1730   4163     1
   1730   1737     1
   1731   4163     1
   1731   1737     1
   1732   4237     1
   1733   1738     1
   1733   4236     1
   1734   1738     1
   1734   4236     1
   1735   4166     1
   1735   4168     1
   1736   4239     1
   1736   4241     1
   1737   4164     1
   1738   4237     1
   1741   1765     1
   1741   1749     1
   1741   1750     1
   1741   1752     1
   1741   1753     1
   1742   1764     1
   1742   1745     1
   1742   1746     1
   1742   1748     1
   1742   1751     1
   1743   1764     1
   1743   1745     1
   1743   1746     1
   1743   1748     1
   1743   1751     1
   1745   1747     1
   1745   1765     1
   1746   1747     1
   1746   1765     1
   1747   1758     1
   1747   1759     1
   1747   1755     1
   1747   1756     1
   1748   1752     1
   1748   1753     1
   1749   1751     1
   1749   1761     1
   1749   1758     1
   1749   1759     1
   1750   1751     1
   1750   1761     1
   1750   1758     1
   1750   1759     1
   1752   1760     1
   1752   1755     1
   1752   1756     1
   1753   1760     1
   1753   1755     1
   1753   1756     1
   1754   4310     1
   1755   4309     1
   1755   1762     1
   1756   4309     1
   1756   1762     1
   1757   4383     1
   1758   1763     1
   1758   4382     1
   1759   1763     1
   1759   4382     1
   1760   4312     1
   1760   4314     1
   1761   4385     1
   1761   4387     1
   1762   4310     1
   1763   4383     1
   1766   1790     1
   1766   1774     1
   1766   1775     1
   1766   1777     1
   1766   1778     1
   1767   1789     1
   1767   1770     1
   1767   1771     1
   1767   1773     1
   1767   1776     1
   1768   1789     1
   1768   1770     1
   1768   1771     1
   1768   1773     1
   1768   1776     1
   1770   1772     1
   1770   1790     1
   1771   1772     1
   1771   1790     1
   1772   1783     1
   1772   1784     1
   1772   1780     1
   1772   1781     1
   1773   1777     1
   1773   1778     1
   1774   1776     1
   1774   1786     1
   1774   1783     1
   1774   1784     1
   1775   1776     1
   1775   1786     1
   1775   1783     1
   1775   1784     1
   1777   1785     1
   1777   1780     1
   1777   1781     1
   1778   1785     1
   1778   1780     1
   1778   1781     1
   1779   4456     1
   1780   4455     1
   1780   1787     1
   1781   4455     1
   1781   1787     1
   1782   4529     1
   1783   1788     1
   1783   4528     1
   1784   1788     1
   1784   4528     1
   1785   4458     1
   1785   4460     1
   1786   4531     1
   1786   4533     1
   1787   4456     1
   1788   4529     1
   1791   1815     1
   1791   1799     1
   1791   1800     1
   1791   1802     1
   1791   1803     1
   1792   1814     1
   1792   1795     1
   1792   1796     1
   1792   1798     1
   1792   1801     1
   1793   1814     1
   1793   1795     1
   1793   1796     1
   1793   1798     1
   1793   1801     1
   1795   1797     1
   1795   1815     1
   1796   1797     1
   1796   1815     1
   1797   1808     1
   1797   1809     1
   1797   1805     1
   1797   1806     1
   1798   1802     1
   1798   1803     1
   1799   1801     1
   1799   1811     1
   1799   1808     1
   1799   1809     1
   1800   1801     1
   1800   1811     1
   1800   1808     1
   1800   1809     1
   1802   1810     1
   1802   1805     1
   1802   1806     1
   1803   1810     1
   1803   1805     1
   1803   1806     1
   1804   4602     1
   1805   4601     1
   1805   1812     1
   1806   4601     1
   1806   1812     1
   1807   4675     1
   1808   1813     1
   1808   4674     1
   1809   1813     1
   1809   4674     1
   1810   4604     1
   1810   4606     1
   1811   4677     1
   1811   4679     1
   1812   4602     1
   1813   4675     1
   1816   1840     1
   1816   1824     1
   1816   1825     1
   1816   1827     1
   1816   1828     1
   1817   1839     1
   1817   1820     1
   1817   1821     1
   1817   1823     1
   1817   1826     1
   1818   1839     1
   1818   1820     1
   1818   1821     1
   1818   1823     1
   1818   1826     1
   1820   1822     1
   1820   1840     1
   1821   1822     1
   1821   1840     1
   1822   1833     1
   1822   1834     1
   1822   1830     1
   1822   1831     1
   1823   1827     1
   1823   1828     1
   1824   1826     1
   1824   1836     1
   1824   1833     1
   1824   1834     1
   1825   1826     1
   1825   1836     1
   1825   1833     1
   1825   1834     1
   1827   1835     1
   1827   1830     1
   1827   1831     1
   1828   1835     1
   1828   1830     1
   1828   1831     1
   1829   4748     1
   1830   4747     1
   1830   1837     1
   1831   4747     1
   1831   1837     1
   1832   4821     1
   1833   1838     1
   1833   4820     1
   1834   1838     1
   1834   4820     1
   1835   4750     1
   1835   4752     1
   1836   4823     1
   1836   4825     1
   1837   4748     1
   1838   4821     1
   1841   1865     1
   1841   1849     1
   1841   1850     1
   1841   1852     1
   1841   1853     1
   1842   1864     1
   1842   1845     1
   1842   1846     1
   1842   1848     1
   1842   1851     1
   1843   1864     1
   1843   1845     1
   1843   1846     1
   1843   1848     1
   1843   1851     1
   1845   1847     1
   1845   1865     1
   1846   1847     1
   1846   1865     1
   1847   1858     1
   1847   1859     1
   1847   1855     1
   1847   1856     1
   1848   1852     1
   1848   1853     1
   1849   1851     1
   1849   1861     1
   1849   1858     1
   1849   1859     1
   1850   1851     1
   1850   1861     1
   1850   1858     1
   1850   1859     1
   1852   1860     1
   1852   1855     1
   1852   1856     1
   1853   1860     1
   1853   1855     1
   1853   1856     1
   1854   4894     1
   1855   4893     1
   1855   1862     1
   1856   4893     1
   1856   1862     1
   1857   4967     1
   1858   1863     1
   1858   4966     1
   1859   1863     1
   1859   4966     1
   1860   4896     1
   1860   4898     1
   1861   4969     1
   1861   4971     1
   1862   4894     1
   1863   4967     1
   1866   1890     1
   1866   1874     1
   1866   1875     1
   1866   1877     1
   1866   1878     1
   1867   1889     1
   1867   1870     1
   1867   1871     1
   1867   1873     1
   1867   1876     1
   1868   1889     1
   1868   1870     1
   1868   1871     1
   1868   1873     1
   1868   1876     1
   1870   1872     1
   1870   1890     1
   1871   1872     1
   1871   1890     1
   1872   1883     1
   1872   1884     1
   1872   1880     1
   1872   1881     1
   1873   1877     1
   1873   1878     1
   1874   1876     1
   1874   1886     1
   1874   1883     1
   1874   1884     1
   1875   1876     1
   1875   1886     1
   1875   1883     1
   1875   1884     1
   1877   1885     1
   1877   1880     1
   1877   1881     1
   1878   1885     1
   1878   1880     1
   1878   1881     1
   1879   5040     1
   1880   5039     1
   1880   1887     1
   1881   5039     1
   1881   1887     1
   1882   5113     1
   1883   1888     1
   1883   5112     1
   1884   1888     1
   1884   5112     1
   1885   5042     1
   1885   5044     1
   1886   5115     1
   1886   5117     1
   1887   5040     1
   1888   5113     1
   1891   1915     1
   1891   1899     1
   1891   1900     1
   1891   1902     1
   1891   1903     1
   1892   1914     1
   1892   1895     1
   1892   1896     1
   1892   1898     1
   1892   1901     1
   1893   1914     1
   1893   1895     1
   1893   1896     1
   1893   1898     1
   1893   1901     1
   1895   1897     1
   1895   1915     1
   1896   1897     1
   1896   1915     1
   1897   1908     1
   1897   1909     1
   1897   1905     1
   1897   1906     1
   1898   1902     1
   1898   1903     1
   1899   1901     1
   1899   1911     1
   1899   1908     1
   1899   1909     1
   1900   1901     1
   1900   1911     1
   1900   1908     1
   1900   1909     1
   1902   1910     1
   1902   1905     1
   1902   1906     1
   1903   1910     1
   1903   1905     1
   1903   1906     1
   1904   5186     1
   1905   5185     1
   1905   1912     1
   1906   5185     1
   1906   1912     1
   1907   5259     1
   1908   1913     1
   1908   5258     1
   1909   1913     1
   1909   5258     1
   1910   5188     1
   1910   5190     1
   1911   5261     1
   1911   5263     1
   1912   5186     1
   1913   5259     1
   1916   1940     1
   1916   1924     1
   1916   1925     1
   1916   1927     1
   1916   1928     1
   1917   1939     1
   1917   1920     1
   1917   1921     1
   1917   1923     1
   1917   1926     1
   1918   1939     1
   1918   1920     1
   1918   1921     1
   1918   1923     1
   1918   1926     1
   1920   1922     1
   1920   1940     1
   1921   1922     1
   1921   1940     1
   1922   1933     1
   1922   1934     1
   1922   1930     1
   1922   1931     1
   1923   1927     1
   1923   1928     1
   1924   1926     1
   1924   1936     1
   1924   1933     1
   1924   1934     1
   1925   1926     1
   1925   1936     1
   1925   1933     1
   1925   1934     1
   1927   1935     1
   1927   1930     1
   1927   1931     1
   1928   1935     1
   1928   1930     1
   1928   1931     1
   1929   5332     1
   1930   5331     1
   1930   1937     1
   1931   5331     1
   1931   1937     1
   1932   5405     1
   1933   1938     1
   1933   5404     1
   1934   1938     1
   1934   5404     1
   1935   5334     1
   1935   5336     1
   1936   5407     1
   1936   5409     1
   1937   5332     1
   1938   5405     1
   1941   1965     1
   1941   1949     1
   1941   1950     1
   1941   1952     1
   1941   1953     1
   1942   1964     1
   1942   1945     1
   1942   1946     1
   1942   1948     1
   1942   1951     1
   1943   1964     1
   1943   1945     1
   1943   1946     1
   1943   1948     1
   1943   1951     1
   1945   1947     1
   1945   1965     1
   1946   1947     1
   1946   1965     1
   1947   1958     1
   1947   1959     1
   1947   1955     1
   1947   1956     1
   1948   1952     1
   1948   1953     1
   1949   1951     1
   1949   1961     1
   1949   1958     1
   1949   1959     1
   1950   1951     1
   1950   1961     1
   1950   1958     1
   1950   1959     1
   1952   1960     1
   1952   1955     1
   1952   1956     1
   1953   1960     1
   1953   1955     1
   1953   1956     1
   1954   5478     1
   1955   5477     1
   1955   1962     1
   1956   5477     1
   1956   1962     1
   1957   5551     1
   1958   1963     1
   1958   5550     1
   1959   1963     1
   1959   5550     1
   1960   5480     1
   1960   5482     1
   1961   5553     1
   1961   5555     1
   1962   5478     1
   1963   5551     1
   1966   1990     1
   1966   1974     1
   1966   1975     1
   1966   1977     1
   1966   1978     1
   1967   1989     1
   1967   1970     1
   1967   1971     1
   1967   1973     1
   1967   1976     1
   1968   1989     1
   1968   1970     1
   1968   1971     1
   1968   1973     1
   1968   1976     1
   1970   1972     1
   1970   1990     1
   1971   1972     1
   1971   1990     1
   1972   1983     1
   1972   1984     1
   1972   1980     1
   1972   1981     1
   1973   1977     1
   1973   1978     1
   1974   1976     1
   1974   1986     1
   1974   1983     1
   1974   1984     1
   1975   1976     1
   1975   1986     1
   1975   1983     1
   1975   1984     1
   1977   1985     1
   1977   1980     1
   1977   1981     1
   1978   1985     1
   1978   1980     1
   1978   1981     1
   1979   5624     1
   1980   5623     1
   1980   1987     1
   1981   5623     1
   1981   1987     1
   1982   5697     1
   1983   1988     1
   1983   5696     1
   1984   1988     1
   1984   5696     1
   1985   5626     1
   1985   5628     1
   1986   5699     1
   1986   5701     1
   1987   5624     1
   1988   5697     1
   1991   2015     1
   1991   1999     1
   1991   2000     1
   1991   2002     1
   1991   2003     1
   1992   2014     1
   1992   1995     1
   1992   1996     1
   1992   1998     1
   1992   2001     1
   1993   2014     1
   1993   1995     1
   1993   1996     1
   1993   1998     1
   1993   2001     1
   1995   1997     1
   1995   2015     1
   1996   1997     1
   1996   2015     1
   1997   2008     1
   1997   2009     1
   1997   2005     1
   1997   2006     1
   1998   2002     1
   1998   2003     1
   1999   2001     1
   1999   2011     1
   1999   2008     1
   1999   2009     1
   2000   2001     1
   2000   2011     1
   2000   2008     1
   2000   2009     1
   2002   2010     1
   2002   2005     1
   2002   2006     1
   2003   2010     1
   2003   2005     1
   2003   2006     1
   2004   5770     1
   2005   5769     1
   2005   2012     1
   2006   5769     1
   2006   2012     1
   2007   5843     1
   2008   2013     1
   2008   5842     1
   2009   2013     1
   2009   5842     1
   2010   5772     1
   2010   5774     1
   2011   5845     1
   2011   5847     1
   2012   5770     1
   2013   5843     1
   2016   2040     1
   2016   2024     1
   2016   2025     1
   2016   2027     1
   2016   2028     1
   2017   2039     1
   2017   2020     1
   2017   2021     1
   2017   2023     1
   2017   2026     1
   2018   2039     1
   2018   2020     1
   2018   2021     1
   2018   2023     1
   2018   2026     1
   2020   2022     1
   2020   2040     1
   2021   2022     1
   2021   2040     1
   2022   2033     1
   2022   2034     1
   2022   2030     1
   2022   2031     1
   2023   2027     1
   2023   2028     1
   2024   2026     1
   2024   2036     1
   2024   2033     1
   2024   2034     1
   2025   2026     1
   2025   2036     1
   2025   2033     1
   2025   2034     1
   2027   2035     1
   2027   2030     1
   2027   2031     1
   2028   2035     1
   2028   2030     1
   2028   2031     1
   2029   5916     1
   2030   5915     1
   2030   2037     1
   2031   5915     1
   2031   2037     1
   2032   5989     1
   2033   2038     1
   2033   5988     1
   2034   2038     1
   2034   5988     1
   2035   5918     1
   2035   5920     1
   2036   5991     1
   2036   5993     1
   2037   5916     1
   2038   5989     1
   2041   2065     1
   2041   2049     1
   2041   2050     1
   2041   2052     1
   2041   2053     1
   2042   2064     1
   2042   2045     1
   2042   2046     1
   2042   2048     1
   2042   2051     1
   2043   2064     1
   2043   2045     1
   2043   2046     1
   2043   2048     1
   2043   2051     1
   2045   2047     1
   2045   2065     1
   2046   2047     1
   2046   2065     1
   2047   2058     1
   2047   2059     1
   2047   2055     1
   2047   2056     1
   2048   2052     1
   2048   2053     1
   2049   2051     1
   2049   2061     1
   2049   2058     1
   2049   2059     1
   2050   2051     1
   2050   2061     1
   2050   2058     1
   2050   2059     1
   2052   2060     1
   2052   2055     1
   2052   2056     1
   2053   2060     1
   2053   2055     1
   2053   2056     1
   2054   6062     1
   2055   6061     1
   2055   2062     1
   2056   6061     1
   2056   2062     1
   2057   6135     1
   2058   2063     1
   2058   6134     1
   2059   2063     1
   2059   6134     1
   2060   6064     1
   2060   6066     1
   2061   6137     1
   2061   6139     1
   2062   6062     1
   2063   6135     1
   2066   2090     1
   2066   2074     1
   2066   2075     1
   2066   2077     1
   2066   2078     1
   2067   2089     1
   2067   2070     1
   2067   2071     1
   2067   2073     1
   2067   2076     1
   2068   2089     1
   2068   2070     1
   2068   2071     1
   2068   2073     1
   2068   2076     1
   2070   2072     1
   2070   2090     1
   2071   2072     1
   2071   2090     1
   2072   2083     1
   2072   2084     1
   2072   2080     1
   2072   2081     1
   2073   2077     1
   2073   2078     1
   2074   2076     1
   2074   2086     1
   2074   2083     1
   2074   2084     1
   2075   2076     1
   2075   2086     1
   2075   2083     1
   2075   2084     1
   2077   2085     1
   2077   2080     1
   2077   2081     1
   2078   2085     1
   2078   2080     1
   2078   2081     1
   2079   6208     1
   2080   6207     1
   2080   2087     1
   2081   6207     1
   2081   2087     1
   2082   6281     1
   2083   2088     1
   2083   6280     1
   2084   2088     1
   2084   6280     1
   2085   6210     1
   2085   6212     1
   2086   6283     1
   2086   6285     1
   2087   6208     1
   2088   6281     1
   2091   2115     1
   2091   2099     1
   2091   2100     1
   2091   2102     1
   2091   2103     1
   2092   2114     1
   2092   2095     1
   2092   2096     1
   2092   2098     1
   2092   2101     1
   2093   2114     1
   2093   2095     1
   2093   2096     1
   2093   2098     1
   2093   2101     1
   2095   2097     1
   2095   2115     1
   2096   2097     1
   2096   2115     1
   2097   2108     1
   2097   2109     1
   2097   2105     1
   2097   2106     1
   2098   2102     1
   2098   2103     1
   2099   2101     1
   2099   2111     1
   2099   2108     1
   2099   2109     1
   2100   2101     1
   2100   2111     1
   2100   2108     1
   2100   2109     1
   2102   2110     1
   2102   2105     1
   2102   2106     1
   2103   2110     1
   2103   2105     1
   2103   2106     1
   2104   6354     1
   2105   6353     1
   2105   2112     1
   2106   6353     1
   2106   2112     1
   2107   6427     1
   2108   2113     1
   2108   6426     1
   2109   2113     1
   2109   6426     1
   2110   6356     1
   2110   6358     1
   2111   6429     1
   2111   6431     1
   2112   6354     1
   2113   6427     1
   2116   2140     1
   2116   2124     1
   2116   2125     1
   2116   2127     1
   2116   2128     1
   2117   2139     1
   2117   2120     1
   2117   2121     1
   2117   2123     1
   2117   2126     1
   2118   2139     1
   2118   2120     1
   2118   2121     1
   2118   2123     1
   2118   2126     1
   2120   2122     1
   2120   2140     1
   2121   2122     1
   2121   2140     1
   2122   2133     1
   2122   2134     1
   2122   2130     1
   2122   2131     1
   2123   2127     1
   2123   2128     1
   2124   2126     1
   2124   2136     1
   2124   2133     1
   2124   2134     1
   2125   2126     1
   2125   2136     1
   2125   2133     1
   2125   2134     1
   2127   2135     1
   2127   2130     1
   2127   2131     1
   2128   2135     1
   2128   2130     1
   2128   2131     1
   2129   6500     1
   2130   6499     1
   2130   2137     1
   2131   6499     1
   2131   2137     1
   2132   6573     1
   2133   2138     1
   2133   6572     1
   2134   2138     1
   2134   6572     1
   2135   6502     1
   2135   6504     1
   2136   6575     1
   2136   6577     1
   2137   6500     1
   2138   6573     1
   2141   2165     1
   2141   2149     1
   2141   2150     1
   2141   2152     1
   2141   2153     1
   2142   2164     1
   2142   2145     1
   2142   2146     1
   2142   2148     1
   2142   2151     1
   2143   2164     1
   2143   2145     1
   2143   2146     1
   2143   2148     1
   2143   2151     1
   2145   2147     1
   2145   2165     1
   2146   2147     1
   2146   2165     1
   2147   2158     1
   2147   2159     1
   2147   2155     1
   2147   2156     1
   2148   2152     1
   2148   2153     1
   2149   2151     1
   2149   2161     1
   2149   2158     1
   2149   2159     1
   2150   2151     1
   2150   2161     1
   2150   2158     1
   2150   2159     1
   2152   2160     1
   2152   2155     1
   2152   2156     1
   2153   2160     1
   2153   2155     1
   2153   2156     1
   2154   6646     1
   2155   6645     1
   2155   2162     1
   2156   6645     1
   2156   2162     1
   2157   6719     1
   2158   2163     1
   2158   6718     1
   2159   2163     1
   2159   6718     1
   2160   6648     1
   2160   6650     1
   2161   6721     1
   2161   6723     1
   2162   6646     1
   2163   6719     1
   2166   2190     1
   2166   2174     1
   2166   2175     1
   2166   2177     1
   2166   2178     1
   2167   2189     1
   2167   2170     1
   2167   2171     1
   2167   2173     1
   2167   2176     1
   2168   2189     1
   2168   2170     1
   2168   2171     1
   2168   2173     1
   2168   2176     1
   2170   2172     1
   2170   2190     1
   2171   2172     1
   2171   2190     1
   2172   2183     1
   2172   2184     1
   2172   2180     1
   2172   2181     1
   2173   2177     1
   2173   2178     1
   2174   2176     1
   2174   2186     1
   2174   2183     1
   2174   2184     1
   2175   2176     1
   2175   2186     1
   2175   2183     1
   2175   2184     1
   2177   2185     1
   2177   2180     1
   2177   2181     1
   2178   2185     1
   2178   2180     1
   2178   2181     1
   2179   6792     1
   2180   6791     1
   2180   2187     1
   2181   6791     1
   2181   2187     1
   2182   6865     1
   2183   2188     1
   2183   6864     1
   2184   2188     1
   2184   6864     1
   2185   6794     1
   2185   6796     1
   2186   6867     1
   2186   6869     1
   2187   6792     1
   2188   6865     1
   2191   2215     1
   2191   2199     1
   2191   2200     1
   2191   2202     1
   2191   2203     1
   2192   2214     1
   2192   2195     1
   2192   2196     1
   2192   2198     1
   2192   2201     1
   2193   2214     1
   2193   2195     1
   2193   2196     1
   2193   2198     1
   2193   2201     1
   2195   2197     1
   2195   2215     1
   2196   2197     1
   2196   2215     1
   2197   2208     1
   2197   2209     1
   2197   2205     1
   2197   2206     1
   2198   2202     1
   2198   2203     1
   2199   2201     1
   2199   2211     1
   2199   2208     1
   2199   2209     1
   2200   2201     1
   2200   2211     1
   2200   2208     1
   2200   2209     1
   2202   2210     1
   2202   2205     1
   2202   2206     1
   2203   2210     1
   2203   2205     1
   2203   2206     1
   2204   6938     1
   2205   6937     1
   2205   2212     1
   2206   6937     1
   2206   2212     1
   2207   7011     1
   2208   2213     1
   2208   7010     1
   2209   2213     1
   2209   7010     1
   2210   6940     1
   2210   6942     1
   2211   7013     1
   2211   7015     1
   2212   6938     1
   2213   7011     1
   2216   2240     1
   2216   2224     1
   2216   2225     1
   2216   2227     1
   2216   2228     1
   2217   2239     1
   2217   2220     1
   2217   2221     1
   2217   2223     1
   2217   2226     1
   2218   2239     1
   2218   2220     1
   2218   2221     1
   2218   2223     1
   2218   2226     1
   2220   2222     1
   2220   2240     1
   2221   2222     1
   2221   2240     1
   2222   2233     1
   2222   2234     1
   2222   2230     1
   2222   2231     1
   2223   2227     1
   2223   2228     1
   2224   2226     1
   2224   2236     1
   2224   2233     1
   2224   2234     1
   2225   2226     1
   2225   2236     1
   2225   2233     1
   2225   2234     1
   2227   2235     1
   2227   2230     1
   2227   2231     1
   2228   2235     1
   2228   2230     1
   2228   2231     1
   2229   7084     1
   2230   7083     1
   2230   2237     1
   2231   7083     1
   2231   2237     1
   2232   7157     1
   2233   2238     1
   2233   7156     1
   2234   2238     1
   2234   7156     1
   2235   7086     1
   2235   7088     1
   2236   7159     1
   2236   7161     1
   2237   7084     1
   2238   7157     1
   2241   2265     1
   2241   2249     1
   2241   2250     1
   2241   2252     1
   2241   2253     1
   2242   2264     1
   2242   2245     1
   2242   2246     1
   2242   2248     1
   2242   2251     1
   2243   2264     1
   2243   2245     1
   2243   2246     1
   2243   2248     1
   2243   2251     1
   2245   2247     1
   2245   2265     1
   2246   2247     1
   2246   2265     1
   2247   2258     1
   2247   2259     1
   2247   2255     1
   2247   2256     1
   2248   2252     1
   2248   2253     1
   2249   2251     1
   2249   2261     1
   2249   2258     1
   2249   2259     1
   2250   2251     1
   2250   2261     1
   2250   2258     1
   2250   2259     1
   2252   2260     1
   2252   2255     1
   2252   2256     1
   2253   2260     1
   2253   2255     1
   2253   2256     1
   2254   7230     1
   2255   7229     1
   2255   2262     1
   2256   7229     1
   2256   2262     1
   2257   7303     1
   2258   2263     1
   2258   7302     1
   2259   2263     1
   2259   7302     1
   2260   7232     1
   2260   7234     1
   2261   7305     1
   2261   7307     1
   2262   7230     1
   2263   7303     1
   2266   2290     1
   2266   2274     1
   2266   2275     1
   2266   2277     1
   2266   2278     1
   2267   2289     1
   2267   2270     1
   2267   2271     1
   2267   2273     1
   2267   2276     1
   2268   2289     1
   2268   2270     1
   2268   2271     1
   2268   2273     1
   2268   2276     1
   2270   2272     1
   2270   2290     1
   2271   2272     1
   2271   2290     1
   2272   2283     1
   2272   2284     1
   2272   2280     1
   2272   2281     1
   2273   2277     1
   2273   2278     1
   2274   2276     1
   2274   2286     1
   2274   2283     1
   2274   2284     1
   2275   2276     1
   2275   2286     1
   2275   2283     1
   2275   2284     1
   2277   2285     1
   2277   2280     1
   2277   2281     1
   2278   2285     1
   2278   2280     1
   2278   2281     1
   2279   7376     1
   2280   7375     1
   2280   2287     1
   2281   7375     1
   2281   2287     1
   2282   7449     1
   2283   2288     1
   2283   7448     1
   2284   2288     1
   2284   7448     1
   2285   7378     1
   2285   7380     1
   2286   7451     1
   2286   7453     1
   2287   7376     1
   2288   7449     1
   2291   2315     1
   2291   2299     1
   2291   2300     1
   2291   2302     1
   2291   2303     1
   2292   2314     1
   2292   2295     1
   2292   2296     1
   2292   2298     1
   2292   2301     1
   2293   2314     1
   2293   2295     1
   2293   2296     1
   2293   2298     1
   2293   2301     1
   2295   2297     1
   2295   2315     1
   2296   2297     1
   2296   2315     1
   2297   2308     1
   2297   2309     1
   2297   2305     1
   2297   2306     1
   2298   2302     1
   2298   2303     1
   2299   2301     1
   2299   2311     1
   2299   2308     1
   2299   2309     1
   2300   2301     1
   2300   2311     1
   2300   2308     1
   2300   2309     1
   2302   2310     1
   2302   2305     1
   2302   2306     1
   2303   2310     1
   2303   2305     1
   2303   2306     1
   2304   7522     1
   2305   7521     1
   2305   2312     1
   2306   7521     1
   2306   2312     1
   2307   7595     1
   2308   2313     1
   2308   7594     1
   2309   2313     1
   2309   7594     1
   2310   7524     1
   2310   7526     1
   2311   7597     1
   2311   7599     1
   2312   7522     1
   2313   7595     1
   2316   2340     1
   2316   2324     1
   2316   2325     1
   2316   2327     1
   2316   2328     1
   2317   2339     1
   2317   2320     1
   2317   2321     1
   2317   2323     1
   2317   2326     1
   2318   2339     1
   2318   2320     1
   2318   2321     1
   2318   2323     1
   2318   2326     1
   2320   2322     1
   2320   2340     1
   2321   2322     1
   2321   2340     1
   2322   2333     1
   2322   2334     1
   2322   2330     1
   2322   2331     1
   2323   2327     1
   2323   2328     1
   2324   2326     1
   2324   2336     1
   2324   2333     1
   2324   2334     1
   2325   2326     1
   2325   2336     1
   2325   2333     1
   2325   2334     1
   2327   2335     1
   2327   2330     1
   2327   2331     1
   2328   2335     1
   2328   2330     1
   2328   2331     1
   2329   7668     1
   2330   7667     1
   2330   2337     1
   2331   7667     1
   2331   2337     1
   2332   7741     1
   2333   2338     1
   2333   7740     1
   2334   2338     1
   2334   7740     1
   2335   7670     1
   2335   7672     1
   2336   7743     1
   2336   7745     1
   2337   7668     1
   2338   7741     1
   2341   2365     1
   2341   2349     1
   2341   2350     1
   2341   2352     1
   2341   2353     1
   2342   2364     1
   2342   2345     1
   2342   2346     1
   2342   2348     1
   2342   2351     1
   2343   2364     1
   2343   2345     1
   2343   2346     1
   2343   2348     1
   2343   2351     1
   2345   2347     1
   2345   2365     1
   2346   2347     1
   2346   2365     1
   2347   2358     1
   2347   2359     1
   2347   2355     1
   2347   2356     1
   2348   2352     1
   2348   2353     1
   2349   2351     1
   2349   2361     1
   2349   2358     1
   2349   2359     1
   2350   2351     1
   2350   2361     1
   2350   2358     1
   2350   2359     1
   2352   2360     1
   2352   2355     1
   2352   2356     1
   2353   2360     1
   2353   2355     1
   2353   2356     1
   2354   7814     1
   2355   7813     1
   2355   2362     1
   2356   7813     1
   2356   2362     1
   2357   7887     1
   2358   2363     1
   2358   7886     1
   2359   2363     1
   2359   7886     1
   2360   7816     1
   2360   7818     1
   2361   7889     1
   2361   7891     1
   2362   7814     1
   2363   7887     1
   2366   2390     1
   2366   2374     1
   2366   2375     1
   2366   2377     1
   2366   2378     1
   2367   2389     1
   2367   2370     1
   2367   2371     1
   2367   2373     1
   2367   2376     1
   2368   2389     1
   2368   2370     1
   2368   2371     1
   2368   2373     1
   2368   2376     1
   2370   2372     1
   2370   2390     1
   2371   2372     1
   2371   2390     1
   2372   2383     1
   2372   2384     1
   2372   2380     1
   2372   2381     1
   2373   2377     1
   2373   2378     1
   2374   2376     1
   2374   2386     1
   2374   2383     1
   2374   2384     1
   2375   2376     1
   2375   2386     1
   2375   2383     1
   2375   2384     1
   2377   2385     1
   2377   2380     1
   2377   2381     1
   2378   2385     1
   2378   2380     1
   2378   2381     1
   2379   7960     1
   2380   7959     1
   2380   2387     1
   2381   7959     1
   2381   2387     1
   2382   8033     1
   2383   2388     1
   2383   8032     1
   2384   2388     1
   2384   8032     1
   2385   7962     1
   2385   7964     1
   2386   8035     1
   2386   8037     1
   2387   7960     1
   2388   8033     1
   2391   2415     1
   2391   2399     1
   2391   2400     1
   2391   2402     1
   2391   2403     1
   2392   2414     1
   2392   2395     1
   2392   2396     1
   2392   2398     1
   2392   2401     1
   2393   2414     1
   2393   2395     1
   2393   2396     1
   2393   2398     1
   2393   2401     1
   2395   2397     1
   2395   2415     1
   2396   2397     1
   2396   2415     1
   2397   2408     1
   2397   2409     1
   2397   2405     1
   2397   2406     1
   2398   2402     1
   2398   2403     1
   2399   2401     1
   2399   2411     1
   2399   2408     1
   2399   2409     1
   2400   2401     1
   2400   2411     1
   2400   2408     1
   2400   2409     1
   2402   2410     1
   2402   2405     1
   2402   2406     1
   2403   2410     1
   2403   2405     1
   2403   2406     1
   2404   8106     1
   2405   8105     1
   2405   2412     1
   2406   8105     1
   2406   2412     1
   2407   8179     1
   2408   2413     1
   2408   8178     1
   2409   2413     1
   2409   8178     1
   2410   8108     1
   2410   8110     1
   2411   8181     1
   2411   8183     1
   2412   8106     1
   2413   8179     1
   2416   2440     1
   2416   2424     1
   2416   2425     1
   2416   2427     1
   2416   2428     1
   2417   2439     1
   2417   2420     1
   2417   2421     1
   2417   2423     1
   2417   2426     1
   2418   2439     1
   2418   2420     1
   2418   2421     1
   2418   2423     1
   2418   2426     1
   2420   2422     1
   2420   2440     1
   2421   2422     1
   2421   2440     1
   2422   2433     1
   2422   2434     1
   2422   2430     1
   2422   2431     1
   2423   2427     1
   2423   2428     1
   2424   2426     1
   2424   2436     1
   2424   2433     1
   2424   2434     1
   2425   2426     1
   2425   2436     1
   2425   2433     1
   2425   2434     1
   2427   2435     1
   2427   2430     1
   2427   2431     1
   2428   2435     1
   2428   2430     1
   2428   2431     1
   2429   8252     1
   2430   8251     1
   2430   2437     1
   2431   8251     1
   2431   2437     1
   2432   8325     1
   2433   2438     1
   2433   8324     1
   2434   2438     1
   2434   8324     1
   2435   8254     1
   2435   8256     1
   2436   8327     1
   2436   8329     1
   2437   8252     1
   2438   8325     1
   2441   2465     1
   2441   2449     1
   2441   2450     1
   2441   2452     1
   2441   2453     1
   2442   2464     1
   2442   2445     1
   2442   2446     1
   2442   2448     1
   2442   2451     1
   2443   2464     1
   2443   2445     1
   2443   2446     1
   2443   2448     1
   2443   2451     1
   2445   2447     1
   2445   2465     1
   2446   2447     1
   2446   2465     1
   2447   2458     1
   2447   2459     1
   2447   2455     1
   2447   2456     1
   2448   2452     1
   2448   2453     1
   2449   2451     1
   2449   2461     1
   2449   2458     1
   2449   2459     1
   2450   2451     1
   2450   2461     1
   2450   2458     1
   2450   2459     1
   2452   2460     1
   2452   2455     1
   2452   2456     1
   2453   2460     1
   2453   2455     1
   2453   2456     1
   2454   8398     1
   2455   8397     1
   2455   2462     1
   2456   8397     1
   2456   2462     1
   2457   8471     1
   2458   2463     1
   2458   8470     1
   2459   2463     1
   2459   8470     1
   2460   8400     1
   2460   8402     1
   2461   8473     1
   2461   8475     1
   2462   8398     1
   2463   8471     1
   2466   2490     1
   2466   2474     1
   2466   2475     1
   2466   2477     1
   2466   2478     1
   2467   2489     1
   2467   2470     1
   2467   2471     1
   2467   2473     1
   2467   2476     1
   2468   2489     1
   2468   2470     1
   2468   2471     1
   2468   2473     1
   2468   2476     1
   2470   2472     1
   2470   2490     1
   2471   2472     1
   2471   2490     1
   2472   2483     1
   2472   2484     1
   2472   2480     1
   2472   2481     1
   2473   2477     1
   2473   2478     1
   2474   2476     1
   2474   2486     1
   2474   2483     1
   2474   2484     1
   2475   2476     1
   2475   2486     1
   2475   2483     1
   2475   2484     1
   2477   2485     1
   2477   2480     1
   2477   2481     1
   2478   2485     1
   2478   2480     1
   2478   2481     1
   2479   8544     1
   2480   8543     1
   2480   2487     1
   2481   8543     1
   2481   2487     1
   2482   8617     1
   2483   2488     1
   2483   8616     1
   2484   2488     1
   2484   8616     1
   2485   8546     1
   2485   8548     1
   2486   8619     1
   2486   8621     1
   2487   8544     1
   2488   8617     1
   2491   2515     1
   2491   2499     1
   2491   2500     1
   2491   2502     1
   2491   2503     1
   2492   2514     1
   2492   2495     1
   2492   2496     1
   2492   2498     1
   2492   2501     1
   2493   2514     1
   2493   2495     1
   2493   2496     1
   2493   2498     1
   2493   2501     1
   2495   2497     1
   2495   2515     1
   2496   2497     1
   2496   2515     1
   2497   2508     1
   2497   2509     1
   2497   2505     1
   2497   2506     1
   2498   2502     1
   2498   2503     1
   2499   2501     1
   2499   2511     1
   2499   2508     1
   2499   2509     1
   2500   2501     1
   2500   2511     1
   2500   2508     1
   2500   2509     1
   2502   2510     1
   2502   2505     1
   2502   2506     1
   2503   2510     1
   2503   2505     1
   2503   2506     1
   2504   8690     1
   2505   8689     1
   2505   2512     1
   2506   8689     1
   2506   2512     1
   2507   8763     1
   2508   2513     1
   2508   8762     1
   2509   2513     1
   2509   8762     1
   2510   8692     1
   2510   8694     1
   2511   8765     1
   2511   8767     1
   2512   8690     1
   2513   8763     1
   2516   2540     1
   2516   2524     1
   2516   2525     1
   2516   2527     1
   2516   2528     1
   2517   2539     1
   2517   2520     1
   2517   2521     1
   2517   2523     1
   2517   2526     1
   2518   2539     1
   2518   2520     1
   2518   2521     1
   2518   2523     1
   2518   2526     1
   2520   2522     1
   2520   2540     1
   2521   2522     1
   2521   2540     1
   2522   2533     1
   2522   2534     1
   2522   2530     1
   2522   2531     1
   2523   2527     1
   2523   2528     1
   2524   2526     1
   2524   2536     1
   2524   2533     1
   2524   2534     1
   2525   2526     1
   2525   2536     1
   2525   2533     1
   2525   2534     1
   2527   2535     1
   2527   2530     1
   2527   2531     1
   2528   2535     1
   2528   2530     1
   2528   2531     1
   2529   8836     1
   2530   8835     1
   2530   2537     1
   2531   8835     1
   2531   2537     1
   2532   8909     1
   2533   2538     1
   2533   8908     1
   2534   2538     1
   2534   8908     1
   2535   8838     1
   2535   8840     1
   2536   8911     1
   2536   8913     1
   2537   8836     1
   2538   8909     1
   2541   2565     1
   2541   2549     1
   2541   2550     1
   2541   2552     1
   2541   2553     1
   2542   2564     1
   2542   2545     1
   2542   2546     1
   2542   2548     1
   2542   2551     1
   2543   2564     1
   2543   2545     1
   2543   2546     1
   2543   2548     1
   2543   2551     1
   2545   2547     1
   2545   2565     1
   2546   2547     1
   2546   2565     1
   2547   2558     1
   2547   2559     1
   2547   2555     1
   2547   2556     1
   2548   2552     1
   2548   2553     1
   2549   2551     1
   2549   2561     1
   2549   2558     1
   2549   2559     1
   2550   2551     1
   2550   2561     1
   2550   2558     1
   2550   2559     1
   2552   2560     1
   2552   2555     1
   2552   2556     1
   2553   2560     1
   2553   2555     1
   2553   2556     1
   2554   8982     1
   2555   8981     1
   2555   2562     1
   2556   8981     1
   2556   2562     1
   2557   9055     1
   2558   2563     1
   2558   9054     1
   2559   2563     1
   2559   9054     1
   2560   8984     1
   2560   8986     1
   2561   9057     1
   2561   9059     1
   2562   8982     1
   2563   9055     1
   2566   2590     1
   2566   2574     1
   2566   2575     1
   2566   2577     1
   2566   2578     1
   2567   2589     1
   2567   2570     1
   2567   2571     1
   2567   2573     1
   2567   2576     1
   2568   2589     1
   2568   2570     1
   2568   2571     1
   2568   2573     1
   2568   2576     1
   2570   2572     1
   2570   2590     1
   2571   2572     1
   2571   2590     1
   2572   2583     1
   2572   2584     1
   2572   2580     1
   2572   2581     1
   2573   2577     1
   2573   2578     1
   2574   2576     1
   2574   2586     1
   2574   2583     1
   2574   2584     1
   2575   2576     1
   2575   2586     1
   2575   2583     1
   2575   2584     1
   2577   2585     1
   2577   2580     1
   2577   2581     1
   2578   2585     1
   2578   2580     1
   2578   2581     1
   2579   9128     1
   2580   9127     1
   2580   2587     1
   2581   9127     1
   2581   2587     1
   2582   9201     1
   2583   2588     1
   2583   9200     1
   2584   2588     1
   2584   9200     1
   2585   9130     1
   2585   9132     1
   2586   9203     1
   2586   9205     1
   2587   9128     1
   2588   9201     1
   2591   2615     1
   2591   2599     1
   2591   2600     1
   2591   2602     1
   2591   2603     1
   2592   2614     1
   2592   2595     1
   2592   2596     1
   2592   2598     1
   2592   2601     1
   2593   2614     1
   2593   2595     1
   2593   2596     1
   2593   2598     1
   2593   2601     1
   2595   2597     1
   2595   2615     1
   2596   2597     1
   2596   2615     1
   2597   2608     1
   2597   2609     1
   2597   2605     1
   2597   2606     1
   2598   2602     1
   2598   2603     1
   2599   2601     1
   2599   2611     1
   2599   2608     1
   2599   2609     1
   2600   2601     1
   2600   2611     1
   2600   2608     1
   2600   2609     1
   2602   2610     1
   2602   2605     1
   2602   2606     1
   2603   2610     1
   2603   2605     1
   2603   2606     1
   2604   9274     1
   2605   9273     1
   2605   2612     1
   2606   9273     1
   2606   2612     1
   2607   9347     1
   2608   2613     1
   2608   9346     1
   2609   2613     1
   2609   9346     1
   2610   9276     1
   2610   9278     1
   2611   9349     1
   2611   9351     1
   2612   9274     1
   2613   9347     1
   2616   2640     1
   2616   2624     1
   2616   2625     1
   2616   2627     1
   2616   2628     1
   2617   2639     1
   2617   2620     1
   2617   2621     1
   2617   2623     1
   2617   2626     1
   2618   2639     1
   2618   2620     1
   2618   2621     1
   2618   2623     1
   2618   2626     1
   2620   2622     1
   2620   2640     1
   2621   2622     1
   2621   2640     1
   2622   2633     1
   2622   2634     1
   2622   2630     1
   2622   2631     1
   2623   2627     1
   2623   2628     1
   2624   2626     1
   2624   2636     1
   2624   2633     1
   2624   2634     1
   2625   2626     1
   2625   2636     1
   2625   2633     1
   2625   2634     1
   2627   2635     1
   2627   2630     1
   2627   2631     1
   2628   2635     1
   2628   2630     1
   2628   2631     1
   2629   9420     1
   2630   9419     1
   2630   2637     1
   2631   9419     1
   2631   2637     1
   2632   9493     1
   2633   2638     1
   2633   9492     1
   2634   2638     1
   2634   9492     1
   2635   9422     1
   2635   9424     1
   2636   9495     1
   2636   9497     1
   2637   9420     1
   2638   9493     1
   2641   2665     1
   2641   2649     1
   2641   2650     1
   2641   2652     1
   2641   2653     1
   2642   2664     1
   2642   2645     1
   2642   2646     1
   2642   2648     1
   2642   2651     1
   2643   2664     1
   2643   2645     1
   2643   2646     1
   2643   2648     1
   2643   2651     1
   2645   2647     1
   2645   2665     1
   2646   2647     1
   2646   2665     1
   2647   2658     1
   2647   2659     1
   2647   2655     1
   2647   2656     1
   2648   2652     1
   2648   2653     1
   2649   2651     1
   2649   2661     1
   2649   2658     1
   2649   2659     1
   2650   2651     1
   2650   2661     1
   2650   2658     1
   2650   2659     1
   2652   2660     1
   2652   2655     1
   2652   2656     1
   2653   2660     1
   2653   2655     1
   2653   2656     1
   2654   9566     1
   2655   9565     1
   2655   2662     1
   2656   9565     1
   2656   2662     1
   2657   9639     1
   2658   2663     1
   2658   9638     1
   2659   2663     1
   2659   9638     1
   2660   9568     1
   2660   9570     1
   2661   9641     1
   2661   9643     1
   2662   9566     1
   2663   9639     1
   2666   2690     1
   2666   2674     1
   2666   2675     1
   2666   2677     1
   2666   2678     1
   2667   2689     1
   2667   2670     1
   2667   2671     1
   2667   2673     1
   2667   2676     1
   2668   2689     1
   2668   2670     1
   2668   2671     1
   2668   2673     1
   2668   2676     1
   2670   2672     1
   2670   2690     1
   2671   2672     1
   2671   2690     1
   2672   2683     1
   2672   2684     1
   2672   2680     1
   2672   2681     1
   2673   2677     1
   2673   2678     1
   2674   2676     1
   2674   2686     1
   2674   2683     1
   2674   2684     1
   2675   2676     1
   2675   2686     1
   2675   2683     1
   2675   2684     1
   2677   2685     1
   2677   2680     1
   2677   2681     1
   2678   2685     1
   2678   2680     1
   2678   2681     1
   2679   9712     1
   2680   9711     1
   2680   2687     1
   2681   9711     1
   2681   2687     1
   2682   9785     1
   2683   2688     1
   2683   9784     1
   2684   2688     1
   2684   9784     1
   2685   9714     1
   2685   9716     1
   2686   9787     1
   2686   9789     1
   2687   9712     1
   2688   9785     1
   2691   2715     1
   2691   2699     1
   2691   2700     1
   2691   2702     1
   2691   2703     1
   2692   2714     1
   2692   2695     1
   2692   2696     1
   2692   2698     1
   2692   2701     1
   2693   2714     1
   2693   2695     1
   2693   2696     1
   2693   2698     1
   2693   2701     1
   2695   2697     1
   2695   2715     1
   2696   2697     1
   2696   2715     1
   2697   2708     1
   2697   2709     1
   2697   2705     1
   2697   2706     1
   2698   2702     1
   2698   2703     1
   2699   2701     1
   2699   2711     1
   2699   2708     1
   2699   2709     1
   2700   2701     1
   2700   2711     1
   2700   2708     1
   2700   2709     1
   2702   2710     1
   2702   2705     1
   2702   2706     1
   2703   2710     1
   2703   2705     1
   2703   2706     1
   2704   9858     1
   2705   9857     1
   2705   2712     1
   2706   9857     1
   2706   2712     1
   2707   9931     1
   2708   2713     1
   2708   9930     1
   2709   2713     1
   2709   9930     1
   2710   9860     1
   2710   9862     1
   2711   9933     1
   2711   9935     1
   2712   9858     1
   2713   9931     1
   2716   2740     1
   2716   2724     1
   2716   2725     1
   2716   2727     1
   2716   2728     1
   2717   2739     1
   2717   2720     1
   2717   2721     1
   2717   2723     1
   2717   2726     1
   2718   2739     1
   2718   2720     1
   2718   2721     1
   2718   2723     1
   2718   2726     1
   2720   2722     1
   2720   2740     1
   2721   2722     1
   2721   2740     1
   2722   2733     1
   2722   2734     1
   2722   2730     1
   2722   2731     1
   2723   2727     1
   2723   2728     1
   2724   2726     1
   2724   2736     1
   2724   2733     1
   2724   2734     1
   2725   2726     1
   2725   2736     1
   2725   2733     1
   2725   2734     1
   2727   2735     1
   2727   2730     1
   2727   2731     1
   2728   2735     1
   2728   2730     1
   2728   2731     1
   2729  10004     1
   2730  10003     1
   2730   2737     1
   2731  10003     1
   2731   2737     1
   2732  10077     1
   2733   2738     1
   2733  10076     1
   2734   2738     1
   2734  10076     1
   2735  10006     1
   2735  10008     1
   2736  10079     1
   2736  10081     1
   2737  10004     1
   2738  10077     1
   2741   2765     1
   2741   2749     1
   2741   2750     1
   2741   2752     1
   2741   2753     1
   2742   2764     1
   2742   2745     1
   2742   2746     1
   2742   2748     1
   2742   2751     1
   2743   2764     1
   2743   2745     1
   2743   2746     1
   2743   2748     1
   2743   2751     1
   2745   2747     1
   2745   2765     1
   2746   2747     1
   2746   2765     1
   2747   2758     1
   2747   2759     1
   2747   2755     1
   2747   2756     1
   2748   2752     1
   2748   2753     1
   2749   2751     1
   2749   2761     1
   2749   2758     1
   2749   2759     1
   2750   2751     1
   2750   2761     1
   2750   2758     1
   2750   2759     1
   2752   2760     1
   2752   2755     1
   2752   2756     1
   2753   2760     1
   2753   2755     1
   2753   2756     1
   2754  10150     1
   2755  10149     1
   2755   2762     1
   2756  10149     1
   2756   2762     1
   2757  10223     1
   2758   2763     1
   2758  10222     1
   2759   2763     1
   2759  10222     1
   2760  10152     1
   2760  10154     1
   2761  10225     1
   2761  10227     1
   2762  10150     1
   2763  10223     1
   2766   2790     1
   2766   2774     1
   2766   2775     1
   2766   2777     1
   2766   2778     1
   2767   2789     1
   2767   2770     1
   2767   2771     1
   2767   2773     1
   2767   2776     1
   2768   2789     1
   2768   2770     1
   2768   2771     1
   2768   2773     1
   2768   2776     1
   2770   2772     1
   2770   2790     1
   2771   2772     1
   2771   2790     1
   2772   2783     1
   2772   2784     1
   2772   2780     1
   2772   2781     1
   2773   2777     1
   2773   2778     1
   2774   2776     1
   2774   2786     1
   2774   2783     1
   2774   2784     1
   2775   2776     1
   2775   2786     1
   2775   2783     1
   2775   2784     1
   2777   2785     1
   2777   2780     1
   2777   2781     1
   2778   2785     1
   2778   2780     1
   2778   2781     1
   2779  10296     1
   2780  10295     1
   2780   2787     1
   2781  10295     1
   2781   2787     1
   2782  10369     1
   2783   2788     1
   2783  10368     1
   2784   2788     1
   2784  10368     1
   2785  10298     1
   2785  10300     1
   2786  10371     1
   2786  10373     1
   2787  10296     1
   2788  10369     1
   2791   2815     1
   2791   2799     1
   2791   2800     1
   2791   2802     1
   2791   2803     1
   2792   2814     1
   2792   2795     1
   2792   2796     1
   2792   2798     1
   2792   2801     1
   2793   2814     1
   2793   2795     1
   2793   2796     1
   2793   2798     1
   2793   2801     1
   2795   2797     1
   2795   2815     1
   2796   2797     1
   2796   2815     1
   2797   2808     1
   2797   2809     1
   2797   2805     1
   2797   2806     1
   2798   2802     1
   2798   2803     1
   2799   2801     1
   2799   2811     1
   2799   2808     1
   2799   2809     1
   2800   2801     1
   2800   2811     1
   2800   2808     1
   2800   2809     1
   2802   2810     1
   2802   2805     1
   2802   2806     1
   2803   2810     1
   2803   2805     1
   2803   2806     1
   2804  10442     1
   2805  10441     1
   2805   2812     1
   2806  10441     1
   2806   2812     1
   2807  10515     1
   2808   2813     1
   2808  10514     1
   2809   2813     1
   2809  10514     1
   2810  10444     1
   2810  10446     1
   2811  10517     1
   2811  10519     1
   2812  10442     1
   2813  10515     1
   2816   2840     1
   2816   2824     1
   2816   2825     1
   2816   2827     1
   2816   2828     1
   2817   2839     1
   2817   2820     1
   2817   2821     1
   2817   2823     1
   2817   2826     1
   2818   2839     1
   2818   2820     1
   2818   2821     1
   2818   2823     1
   2818   2826     1
   2820   2822     1
   2820   2840     1
   2821   2822     1
   2821   2840     1
   2822   2833     1
   2822   2834     1
   2822   2830     1
   2822   2831     1
   2823   2827     1
   2823   2828     1
   2824   2826     1
   2824   2836     1
   2824   2833     1
   2824   2834     1
   2825   2826     1
   2825   2836     1
   2825   2833     1
   2825   2834     1
   2827   2835     1
   2827   2830     1
   2827   2831     1
   2828   2835     1
   2828   2830     1
   2828   2831     1
   2829  10588     1
   2830  10587     1
   2830   2837     1
   2831  10587     1
   2831   2837     1
   2832  10661     1
   2833   2838     1
   2833  10660     1
   2834   2838     1
   2834  10660     1
   2835  10590     1
   2835  10592     1
   2836  10663     1
   2836  10665     1
   2837  10588     1
   2838  10661     1
   2841   2865     1
   2841   2849     1
   2841   2850     1
   2841   2852     1
   2841   2853     1
   2842   2864     1
   2842   2845     1
   2842   2846     1
   2842   2848     1
   2842   2851     1
   2843   2864     1
   2843   2845     1
   2843   2846     1
   2843   2848     1
   2843   2851     1
   2845   2847     1
   2845   2865     1
   2846   2847     1
   2846   2865     1
   2847   2858     1
   2847   2859     1
   2847   2855     1
   2847   2856     1
   2848   2852     1
   2848   2853     1
   2849   2851     1
   2849   2861     1
   2849   2858     1
   2849   2859     1
   2850   2851     1
   2850   2861     1
   2850   2858     1
   2850   2859     1
   2852   2860     1
   2852   2855     1
   2852   2856     1
   2853   2860     1
   2853   2855     1
   2853   2856     1
   2854  10734     1
   2855  10733     1
   2855   2862     1
   2856  10733     1
   2856   2862     1
   2857  10807     1
   2858   2863     1
   2858  10806     1
   2859   2863     1
   2859  10806     1
   2860  10736     1
   2860  10738     1
   2861  10809     1
   2861  10811     1
   2862  10734     1
   2863  10807     1
   2866   2890     1
   2866   2874     1
   2866   2875     1
   2866   2877     1
   2866   2878     1
   2867   2889     1
   2867   2870     1
   2867   2871     1
   2867   2873     1
   2867   2876     1
   2868   2889     1
   2868   2870     1
   2868   2871     1
   2868   2873     1
   2868   2876     1
   2870   2872     1
   2870   2890     1
   2871   2872     1
   2871   2890     1
   2872   2883     1
   2872   2884     1
   2872   2880     1
   2872   2881     1
   2873   2877     1
   2873   2878     1
   2874   2876     1
   2874   2886     1
   2874   2883     1
   2874   2884     1
   2875   2876     1
   2875   2886     1
   2875   2883     1
   2875   2884     1
   2877   2885     1
   2877   2880     1
   2877   2881     1
   2878   2885     1
   2878   2880     1
   2878   2881     1
   2879  10880     1
   2880  10879     1
   2880   2887     1
   2881  10879     1
   2881   2887     1
   2882  10953     1
   2883   2888     1
   2883  10952     1
   2884   2888     1
   2884  10952     1
   2885  10882     1
   2885  10884     1
   2886  10955     1
   2886  10957     1
   2887  10880     1
   2888  10953     1
   2891   2915     1
   2891   2899     1
   2891   2900     1
   2891   2902     1
   2891   2903     1
   2892   2914     1
   2892   2895     1
   2892   2896     1
   2892   2898     1
   2892   2901     1
   2893   2914     1
   2893   2895     1
   2893   2896     1
   2893   2898     1
   2893   2901     1
   2895   2897     1
   2895   2915     1
   2896   2897     1
   2896   2915     1
   2897   2908     1
   2897   2909     1
   2897   2905     1
   2897   2906     1
   2898   2902     1
   2898   2903     1
   2899   2901     1
   2899   2911     1
   2899   2908     1
   2899   2909     1
   2900   2901     1
   2900   2911     1
   2900   2908     1
   2900   2909     1
   2902   2910     1
   2902   2905     1
   2902   2906     1
   2903   2910     1
   2903   2905     1
   2903   2906     1
   2904  11026     1
   2905  11025     1
   2905   2912     1
   2906  11025     1
   2906   2912     1
   2907  11099     1
   2908   2913     1
   2908  11098     1
   2909   2913     1
   2909  11098     1
   2910  11028     1
   2910  11030     1
   2911  11101     1
   2911  11103     1
   2912  11026     1
   2913  11099     1
   2916   2940     1
   2916   2924     1
   2916   2925     1
   2916   2927     1
   2916   2928     1
   2917   2939     1
   2917   2920     1
   2917   2921     1
   2917   2923     1
   2917   2926     1
   2918   2939     1
   2918   2920     1
   2918   2921     1
   2918   2923     1
   2918   2926     1
   2920   2922     1
   2920   2940     1
   2921   2922     1
   2921   2940     1
   2922   2933     1
   2922   2934     1
   2922   2930     1
   2922   2931     1
   2923   2927     1
   2923   2928     1
   2924   2926     1
   2924   2936     1
   2924   2933     1
   2924   2934     1
   2925   2926     1
   2925   2936     1
   2925   2933     1
   2925   2934     1
   2927   2935     1
   2927   2930     1
   2927   2931     1
   2928   2935     1
   2928   2930     1
   2928   2931     1
   2929  11172     1
   2930  11171     1
   2930   2937     1
   2931  11171     1
   2931   2937     1
   2932  11245     1
   2933   2938     1
   2933  11244     1
   2934   2938     1
   2934  11244     1
   2935  11174     1
   2935  11176     1
   2936  11247     1
   2936  11249     1
   2937  11172     1
   2938  11245     1
   2941   2965     1
   2941   2949     1
   2941   2950     1
   2941   2952     1
   2941   2953     1
   2942   2964     1
   2942   2945     1
   2942   2946     1
   2942   2948     1
   2942   2951     1
   2943   2964     1
   2943   2945     1
   2943   2946     1
   2943   2948     1
   2943   2951     1
   2945   2947     1
   2945   2965     1
   2946   2947     1
   2946   2965     1
   2947   2958     1
   2947   2959     1
   2947   2955     1
   2947   2956     1
   2948   2952     1
   2948   2953     1
   2949   2951     1
   2949   2961     1
   2949   2958     1
   2949   2959     1
   2950   2951     1
   2950   2961     1
   2950   2958     1
   2950   2959     1
   2952   2960     1
   2952   2955     1
   2952   2956     1
   2953   2960     1
   2953   2955     1
   2953   2956     1
   2954  11318     1
   2955  11317     1
   2955   2962     1
   2956  11317     1
   2956   2962     1
   2957  11391     1
   2958   2963     1
   2958  11390     1
   2959   2963     1
   2959  11390     1
   2960  11320     1
   2960  11322     1
   2961  11393     1
   2961  11395     1
   2962  11318     1
   2963  11391     1
   2966   2990     1
   2966   2974     1
   2966   2975     1
   2966   2977     1
   2966   2978     1
   2967   2989     1
   2967   2970     1
   2967   2971     1
   2967   2973     1
   2967   2976     1
   2968   2989     1
   2968   2970     1
   2968   2971     1
   2968   2973     1
   2968   2976     1
   2970   2972     1
   2970   2990     1
   2971   2972     1
   2971   2990     1
   2972   2983     1
   2972   2984     1
   2972   2980     1
   2972   2981     1
   2973   2977     1
   2973   2978     1
   2974   2976     1
   2974   2986     1
   2974   2983     1
   2974   2984     1
   2975   2976     1
   2975   2986     1
   2975   2983     1
   2975   2984     1
   2977   2985     1
   2977   2980     1
   2977   2981     1
   2978   2985     1
   2978   2980     1
   2978   2981     1
   2979  11464     1
   2980  11463     1
   2980   2987     1
   2981  11463     1
   2981   2987     1
   2982  11537     1
   2983   2988     1
   2983  11536     1
   2984   2988     1
   2984  11536     1
   2985  11466     1
   2985  11468     1
   2986  11539     1
   2986  11541     1
   2987  11464     1
   2988  11537     1
   2991   3015     1
   2991   2999     1
   2991   3000     1
   2991   3002     1
   2991   3003     1
   2992   3014     1
   2992   2995     1
   2992   2996     1
   2992   2998     1
   2992   3001     1
   2993   3014     1
   2993   2995     1
   2993   2996     1
   2993   2998     1
   2993   3001     1
   2995   2997     1
   2995   3015     1
   2996   2997     1
   2996   3015     1
   2997   3008     1
   2997   3009     1
   2997   3005     1
   2997   3006     1
   2998   3002     1
   2998   3003     1
   2999   3001     1
   2999   3011     1
   2999   3008     1
   2999   3009     1
   3000   3001     1
   3000   3011     1
   3000   3008     1
   3000   3009     1
   3002   3010     1
   3002   3005     1
   3002   3006     1
   3003   3010     1
   3003   3005     1
   3003   3006     1
   3004  11610     1
   3005  11609     1
   3005   3012     1
   3006  11609     1
   3006   3012     1
   3007  11683     1
   3008   3013     1
   3008  11682     1
   3009   3013     1
   3009  11682     1
   3010  11612     1
   3010  11614     1
   3011  11685     1
   3011  11687     1
   3012  11610     1
   3013  11683     1
   3016   3040     1
   3016   3024     1
   3016   3025     1
   3016   3027     1
   3016   3028     1
   3017   3039     1
   3017   3020     1
   3017   3021     1
   3017   3023     1
   3017   3026     1
   3018   3039     1
   3018   3020     1
   3018   3021     1
   3018   3023     1
   3018   3026     1
   3020   3022     1
   3020   3040     1
   3021   3022     1
   3021   3040     1
   3022   3033     1
   3022   3034     1
   3022   3030     1
   3022   3031     1
   3023   3027     1
   3023   3028     1
   3024   3026     1
   3024   3036     1
   3024   3033     1
   3024   3034     1
   3025   3026     1
   3025   3036     1
   3025   3033     1
   3025   3034     1
   3027   3035     1
   3027   3030     1
   3027   3031     1
   3028   3035     1
   3028   3030     1
   3028   3031     1
   3029  11756     1
   3030  11755     1
   3030   3037     1
   3031  11755     1
   3031   3037     1
   3032  11829     1
   3033   3038     1
   3033  11828     1
   3034   3038     1
   3034  11828     1
   3035  11758     1
   3035  11760     1
   3036  11831     1
   3036  11833     1
   3037  11756     1
   3038  11829     1
   3041   3065     1
   3041   3049     1
   3041   3050     1
   3041   3052     1
   3041   3053     1
   3042   3064     1
   3042   3045     1
   3042   3046     1
   3042   3048     1
   3042   3051     1
   3043   3064     1
   3043   3045     1
   3043   3046     1
   3043   3048     1
   3043   3051     1
   3045   3047     1
   3045   3065     1
   3046   3047     1
   3046   3065     1
   3047   3058     1
   3047   3059     1
   3047   3055     1
   3047   3056     1
   3048   3052     1
   3048   3053     1
   3049   3051     1
   3049   3061     1
   3049   3058     1
   3049   3059     1
   3050   3051     1
   3050   3061     1
   3050   3058     1
   3050   3059     1
   3052   3060     1
   3052   3055     1
   3052   3056     1
   3053   3060     1
   3053   3055     1
   3053   3056     1
   3054  11902     1
   3055  11901     1
   3055   3062     1
   3056  11901     1
   3056   3062     1
   3057  11975     1
   3058   3063     1
   3058  11974     1
   3059   3063     1
   3059  11974     1
   3060  11904     1
   3060  11906     1
   3061  11977     1
   3061  11979     1
   3062  11902     1
   3063  11975     1
   3066   3090     1
   3066   3074     1
   3066   3075     1
   3066   3077     1
   3066   3078     1
   3067   3089     1
   3067   3070     1
   3067   3071     1
   3067   3073     1
   3067   3076     1
   3068   3089     1
   3068   3070     1
   3068   3071     1
   3068   3073     1
   3068   3076     1
   3070   3072     1
   3070   3090     1
   3071   3072     1
   3071   3090     1
   3072   3083     1
   3072   3084     1
   3072   3080     1
   3072   3081     1
   3073   3077     1
   3073   3078     1
   3074   3076     1
   3074   3086     1
   3074   3083     1
   3074   3084     1
   3075   3076     1
   3075   3086     1
   3075   3083     1
   3075   3084     1
   3077   3085     1
   3077   3080     1
   3077   3081     1
   3078   3085     1
   3078   3080     1
   3078   3081     1
   3079  12048     1
   3080  12047     1
   3080   3087     1
   3081  12047     1
   3081   3087     1
   3082  12121     1
   3083   3088     1
   3083  12120     1
   3084   3088     1
   3084  12120     1
   3085  12050     1
   3085  12052     1
   3086  12123     1
   3086  12125     1
   3087  12048     1
   3088  12121     1
   3091   3115     1
   3091   3099     1
   3091   3100     1
   3091   3102     1
   3091   3103     1
   3092   3114     1
   3092   3095     1
   3092   3096     1
   3092   3098     1
   3092   3101     1
   3093   3114     1
   3093   3095     1
   3093   3096     1
   3093   3098     1
   3093   3101     1
   3095   3097     1
   3095   3115     1
   3096   3097     1
   3096   3115     1
   3097   3108     1
   3097   3109     1
   3097   3105     1
   3097   3106     1
   3098   3102     1
   3098   3103     1
   3099   3101     1
   3099   3111     1
   3099   3108     1
   3099   3109     1
   3100   3101     1
   3100   3111     1
   3100   3108     1
   3100   3109     1
   3102   3110     1
   3102   3105     1
   3102   3106     1
   3103   3110     1
   3103   3105     1
   3103   3106     1
   3104  12194     1
   3105  12193     1
   3105   3112     1
   3106  12193     1
   3106   3112     1
   3107  12267     1
   3108   3113     1
   3108  12266     1
   3109   3113     1
   3109  12266     1
   3110  12196     1
   3110  12198     1
   3111  12269     1
   3111  12271     1
   3112  12194     1
   3113  12267     1
   3116   3140     1
   3116   3124     1
   3116   3125     1
   3116   3127     1
   3116   3128     1
   3117   3139     1
   3117   3120     1
   3117   3121     1
   3117   3123     1
   3117   3126     1
   3118   3139     1
   3118   3120     1
   3118   3121     1
   3118   3123     1
   3118   3126     1
   3120   3122     1
   3120   3140     1
   3121   3122     1
   3121   3140     1
   3122   3133     1
   3122   3134     1
   3122   3130     1
   3122   3131     1
   3123   3127     1
   3123   3128     1
   3124   3126     1
   3124   3136     1
   3124   3133     1
   3124   3134     1
   3125   3126     1
   3125   3136     1
   3125   3133     1
   3125   3134     1
   3127   3135     1
   3127   3130     1
   3127   3131     1
   3128   3135     1
   3128   3130     1
   3128   3131     1
   3129  12340     1
   3130  12339     1
   3130   3137     1
   3131  12339     1
   3131   3137     1
   3132  12413     1
   3133  12412     1
   3133   3138     1
   3134  12412     1
   3134   3138     1
   3135  12342     1
   3135  12344     1
   3136  12415     1
   3136  12417     1
   3137  12340     1
   3138  12413     1
   3141   3147     1
   3141   3148     1
   3142   3145     1
   3142   3144     1
   3142   3146     1
   3144   3149     1
   3144   3147     1
   3144   3148     1
   3145   3159     1
   3145   3160     1
   3145   3152     1
   3145   3154     1
   3146   3149     1
   3146   3147     1
   3146   3148     1
   3147   3150     1
   3147   3151     1
   3148   3150     1
   3148   3151     1
   3149   3162     1
   3149   3163     1
   3149   3155     1
   3149   3156     1
   3150   3152     1
   3150   3154     1
   3151   3159     1
   3151   3160     1
   3152   3157     1
   3152   3155     1
   3152   3156     1
   3153   3179     1
   3154   3157     1
   3154   3155     1
   3154   3156     1
   3155   3158     1
   3155   3189     1
   3156   3158     1
   3156   3189     1
   3157   3172     1
   3158   3179     1
   3159   3164     1
   3159   3162     1
   3159   3163     1
   3160   3164     1
   3160   3162     1
   3160   3163     1
   3161   3203     1
   3162   3165     1
   3162   3213     1
   3163   3165     1
   3163   3213     1
   3164   3196     1
   3165   3203     1
   3166   3173     1
   3166   3188     1
   3166   3183     1
   3166   3174     1
   3167   3180     1
   3167   3181     1
   3167   3172     1
   3167   3178     1
   3168   3169     1
   3168   3187     1
   3168   3186     1
   3168   3182     1
   3168   3180     1
   3168   3181     1
   3168   3171     1
   3169   3188     1
   3169   3174     1
   3169   3179     1
   3170   3186     1
   3170   3178     1
   3170   3185     1
   3171   3173     1
   3171   3179     1
   3172   3176     1
   3172   3173     1
   3172   3175     1
   3172   3184     1
   3172   3174     1
   3172   3179     1
   3173   3187     1
   3173   3186     1
   3173   3189     1
   3173   3178     1
   3174   3189     1
   3174   3185     1
   3176   3186     1
   3177   3186     1
   3180   3184     1
   3180   3183     1
   3181   3184     1
   3181   3183     1
   3184   3186     1
   3184   3185     1
   3186   3188     1
   3190   3197     1
   3190   3212     1
   3190   3207     1
   3190   3198     1
   3191   3204     1
   3191   3205     1
   3191   3196     1
   3191   3202     1
   3192   3193     1
   3192   3211     1
   3192   3210     1
   3192   3206     1
   3192   3204     1
   3192   3205     1
   3192   3195     1
   3193   3212     1
   3193   3198     1
   3193   3203     1
   3194   3210     1
   3194   3202     1
   3194   3209     1
   3195   3197     1
   3195   3203     1
   3196   3200     1
   3196   3197     1
   3196   3199     1
   3196   3208     1
   3196   3198     1
   3196   3203     1
   3197   3211     1
   3197   3210     1
   3197   3213     1
   3197   3202     1
   3198   3213     1
   3198   3209     1
   3200   3210     1
   3201   3210     1
   3204   3208     1
   3204   3207     1
   3205   3208     1
   3205   3207     1
   3208   3210     1
   3208   3209     1
   3210   3212     1
   3214   3220     1
   3214   3221     1
   3215   3218     1
   3215   3217     1
   3215   3219     1
   3217   3222     1
   3217   3220     1
   3217   3221     1
   3218   3232     1
   3218   3233     1
   3218   3225     1
   3218   3227     1
   3219   3222     1
   3219   3220     1
   3219   3221     1
   3220   3223     1
   3220   3224     1
   3221   3223     1
   3221   3224     1
   3222   3235     1
   3222   3236     1
   3222   3228     1
   3222   3229     1
   3223   3225     1
   3223   3227     1
   3224   3232     1
   3224   3233     1
   3225   3230     1
   3225   3228     1
   3225   3229     1
   3226   3252     1
   3227   3230     1
   3227   3228     1
   3227   3229     1
   3228   3231     1
   3228   3262     1
   3229   3231     1
   3229   3262     1
   3230   3245     1
   3231   3252     1
   3232   3237     1
   3232   3235     1
   3232   3236     1
   3233   3237     1
   3233   3235     1
   3233   3236     1
   3234   3276     1
   3235   3238     1
   3235   3286     1
   3236   3238     1
   3236   3286     1
   3237   3269     1
   3238   3276     1
   3239   3246     1
   3239   3261     1
   3239   3256     1
   3239   3247     1
   3240   3245     1
   3240   3251     1
   3240   3253     1
   3240   3254     1
   3241   3242     1
   3241   3260     1
   3241   3259     1
   3241   3255     1
   3241   3253     1
   3241   3254     1
   3241   3244     1
   3242   3247     1
   3242   3252     1
   3242   3261     1
   3243   3258     1
   3243   3251     1
   3243   3259     1
   3244   3252     1
   3244   3246     1
   3245   3248     1
   3245   3257     1
   3245   3247     1
   3245   3252     1
   3245   3249     1
   3245   3246     1
   3246   3262     1
   3246   3251     1
   3246   3260     1
   3246   3259     1
   3247   3258     1
   3247   3262     1
   3249   3259     1
   3250   3259     1
   3253   3256     1
   3253   3257     1
   3254   3256     1
   3254   3257     1
   3257   3258     1
   3257   3259     1
   3259   3261     1
   3263   3270     1
   3263   3285     1
   3263   3280     1
   3263   3271     1
   3264   3269     1
   3264   3275     1
   3264   3277     1
   3264   3278     1
   3265   3266     1
   3265   3284     1
   3265   3283     1
   3265   3279     1
   3265   3277     1
   3265   3278     1
   3265   3268     1
   3266   3271     1
   3266   3276     1
   3266   3285     1
   3267   3282     1
   3267   3275     1
   3267   3283     1
   3268   3276     1
   3268   3270     1
   3269   3272     1
   3269   3281     1
   3269   3271     1
   3269   3276     1
   3269   3273     1
   3269   3270     1
   3270   3286     1
   3270   3275     1
   3270   3284     1
   3270   3283     1
   3271   3282     1
   3271   3286     1
   3273   3283     1
   3274   3283     1
   3277   3280     1
   3277   3281     1
   3278   3280     1
   3278   3281     1
   3281   3282     1
   3281   3283     1
   3283   3285     1
   3287   3293     1
   3287   3294     1
   3288   3291     1
   3288   3290     1
   3288   3292     1
   3290   3295     1
   3290   3293     1
   3290   3294     1
   3291   3305     1
   3291   3306     1
   3291   3298     1
   3291   3300     1
   3292   3295     1
   3292   3293     1
   3292   3294     1
   3293   3296     1
   3293   3297     1
   3294   3296     1
   3294   3297     1
   3295   3308     1
   3295   3309     1
   3295   3301     1
   3295   3302     1
   3296   3298     1
   3296   3300     1
   3297   3305     1
   3297   3306     1
   3298   3303     1
   3298   3301     1
   3298   3302     1
   3299   3325     1
   3300   3303     1
   3300   3301     1
   3300   3302     1
   3301   3304     1
   3301   3335     1
   3302   3304     1
   3302   3335     1
   3303   3318     1
   3304   3325     1
   3305   3310     1
   3305   3308     1
   3305   3309     1
   3306   3310     1
   3306   3308     1
   3306   3309     1
   3307   3349     1
   3308   3311     1
   3308   3359     1
   3309   3311     1
   3309   3359     1
   3310   3342     1
   3311   3349     1
   3312   3319     1
   3312   3334     1
   3312   3329     1
   3312   3320     1
   3313   3326     1
   3313   3327     1
   3313   3318     1
   3313   3324     1
   3314   3315     1
   3314   3333     1
   3314   3332     1
   3314   3328     1
   3314   3326     1
   3314   3327     1
   3314   3317     1
   3315   3334     1
   3315   3320     1
   3315   3325     1
   3316   3332     1
   3316   3324     1
   3316   3331     1
   3317   3319     1
   3317   3325     1
   3318   3322     1
   3318   3319     1
   3318   3321     1
   3318   3330     1
   3318   3320     1
   3318   3325     1
   3319   3333     1
   3319   3332     1
   3319   3335     1
   3319   3324     1
   3320   3335     1
   3320   3331     1
   3322   3332     1
   3323   3332     1
   3326   3330     1
   3326   3329     1
   3327   3330     1
   3327   3329     1
   3330   3332     1
   3330   3331     1
   3332   3334     1
   3336   3343     1
   3336   3358     1
   3336   3353     1
   3336   3344     1
   3337   3350     1
   3337   3351     1
   3337   3342     1
   3337   3348     1
   3338   3339     1
   3338   3357     1
   3338   3356     1
   3338   3352     1
   3338   3350     1
   3338   3351     1
   3338   3341     1
   3339   3358     1
   3339   3344     1
   3339   3349     1
   3340   3356     1
   3340   3348     1
   3340   3355     1
   3341   3343     1
   3341   3349     1
   3342   3346     1
   3342   3343     1
   3342   3345     1
   3342   3354     1
   3342   3344     1
   3342   3349     1
   3343   3357     1
   3343   3356     1
   3343   3359     1
   3343   3348     1
   3344   3359     1
   3344   3355     1
   3346   3356     1
   3347   3356     1
   3350   3354     1
   3350   3353     1
   3351   3354     1
   3351   3353     1
   3354   3356     1
   3354   3355     1
   3356   3358     1
   3360   3366     1
   3360   3367     1
   3361   3364     1
   3361   3363     1
   3361   3365     1
   3363   3368     1
   3363   3366     1
   3363   3367     1
   3364   3378     1
   3364   3379     1
   3364   3371     1
   3364   3373     1
   3365   3368     1
   3365   3366     1
   3365   3367     1
   3366   3369     1
   3366   3370     1
   3367   3369     1
   3367   3370     1
   3368   3381     1
   3368   3382     1
   3368   3374     1
   3368   3375     1
   3369   3371     1
   3369   3373     1
   3370   3378     1
   3370   3379     1
   3371   3376     1
   3371   3374     1
   3371   3375     1
   3372   3398     1
   3373   3376     1
   3373   3374     1
   3373   3375     1
   3374   3377     1
   3374   3408     1
   3375   3377     1
   3375   3408     1
   3376   3391     1
   3377   3398     1
   3378   3383     1
   3378   3381     1
   3378   3382     1
   3379   3383     1
   3379   3381     1
   3379   3382     1
   3380   3422     1
   3381   3384     1
   3381   3432     1
   3382   3384     1
   3382   3432     1
   3383   3415     1
   3384   3422     1
   3385   3392     1
   3385   3407     1
   3385   3402     1
   3385   3393     1
   3386   3391     1
   3386   3397     1
   3386   3399     1
   3386   3400     1
   3387   3388     1
   3387   3406     1
   3387   3405     1
   3387   3401     1
   3387   3399     1
   3387   3400     1
   3387   3390     1
   3388   3393     1
   3388   3398     1
   3388   3407     1
   3389   3404     1
   3389   3397     1
   3389   3405     1
   3390   3398     1
   3390   3392     1
   3391   3394     1
   3391   3403     1
   3391   3393     1
   3391   3398     1
   3391   3395     1
   3391   3392     1
   3392   3408     1
   3392   3397     1
   3392   3406     1
   3392   3405     1
   3393   3404     1
   3393   3408     1
   3395   3405     1
   3396   3405     1
   3399   3402     1
   3399   3403     1
   3400   3402     1
   3400   3403     1
   3403   3404     1
   3403   3405     1
   3405   3407     1
   3409   3416     1
   3409   3431     1
   3409   3426     1
   3409   3417     1
   3410   3415     1
   3410   3421     1
   3410   3423     1
   3410   3424     1
   3411   3412     1
   3411   3430     1
   3411   3429     1
   3411   3425     1
   3411   3423     1
   3411   3424     1
   3411   3414     1
   3412   3417     1
   3412   3422     1
   3412   3431     1
   3413   3428     1
   3413   3421     1
   3413   3429     1
   3414   3422     1
   3414   3416     1
   3415   3418     1
   3415   3427     1
   3415   3417     1
   3415   3422     1
   3415   3419     1
   3415   3416     1
   3416   3432     1
   3416   3421     1
   3416   3430     1
   3416   3429     1
   3417   3428     1
   3417   3432     1
   3419   3429     1
   3420   3429     1
   3423   3426     1
   3423   3427     1
   3424   3426     1
   3424   3427     1
   3427   3428     1
   3427   3429     1
   3429   3431     1
   3433   3439     1
   3433   3440     1
   3434   3437     1
   3434   3436     1
   3434   3438     1
   3436   3441     1
   3436   3439     1
   3436   3440     1
   3437   3451     1
   3437   3452     1
   3437   3444     1
   3437   3446     1
   3438   3441     1
   3438   3439     1
   3438   3440     1
   3439   3442     1
   3439   3443     1
   3440   3442     1
   3440   3443     1
   3441   3454     1
   3441   3455     1
   3441   3447     1
   3441   3448     1
   3442   3444     1
   3442   3446     1
   3443   3451     1
   3443   3452     1
   3444   3449     1
   3444   3447     1
   3444   3448     1
   3445   3471     1
   3446   3449     1
   3446   3447     1
   3446   3448     1
   3447   3450     1
   3447   3481     1
   3448   3450     1
   3448   3481     1
   3449   3464     1
   3450   3471     1
   3451   3456     1
   3451   3454     1
   3451   3455     1
   3452   3456     1
   3452   3454     1
   3452   3455     1
   3453   3495     1
   3454   3457     1
   3454   3505     1
   3455   3457     1
   3455   3505     1
   3456   3488     1
   3457   3495     1
   3458   3465     1
   3458   3480     1
   3458   3475     1
   3458   3466     1
   3459   3472     1
   3459   3473     1
   3459   3464     1
   3459   3470     1
   3460   3461     1
   3460   3479     1
   3460   3478     1
   3460   3474     1
   3460   3472     1
   3460   3473     1
   3460   3463     1
   3461   3480     1
   3461   3466     1
   3461   3471     1
   3462   3478     1
   3462   3470     1
   3462   3477     1
   3463   3465     1
   3463   3471     1
   3464   3468     1
   3464   3465     1
   3464   3467     1
   3464   3476     1
   3464   3466     1
   3464   3471     1
   3465   3479     1
   3465   3478     1
   3465   3481     1
   3465   3470     1
   3466   3481     1
   3466   3477     1
   3468   3478     1
   3469   3478     1
   3472   3476     1
   3472   3475     1
   3473   3476     1
   3473   3475     1
   3476   3478     1
   3476   3477     1
   3478   3480     1
   3482   3489     1
   3482   3504     1
   3482   3499     1
   3482   3490     1
   3483   3496     1
   3483   3497     1
   3483   3488     1
   3483   3494     1
   3484   3485     1
   3484   3503     1
   3484   3502     1
   3484   3498     1
   3484   3496     1
   3484   3497     1
   3484   3487     1
   3485   3504     1
   3485   3490     1
   3485   3495     1
   3486   3502     1
   3486   3494     1
   3486   3501     1
   3487   3489     1
   3487   3495     1
   3488   3492     1
   3488   3489     1
   3488   3491     1
   3488   3500     1
   3488   3490     1
   3488   3495     1
   3489   3503     1
   3489   3502     1
   3489   3505     1
   3489   3494     1
   3490   3505     1
   3490   3501     1
   3492   3502     1
   3493   3502     1
   3496   3500     1
   3496   3499     1
   3497   3500     1
   3497   3499     1
   3500   3502     1
   3500   3501     1
   3502   3504     1
   3506   3512     1
   3506   3513     1
   3507   3510     1
   3507   3509     1
   3507   3511     1
   3509   3514     1
   3509   3512     1
   3509   3513     1
   3510   3524     1
   3510   3525     1
   3510   3517     1
   3510   3519     1
   3511   3514     1
   3511   3512     1
   3511   3513     1
   3512   3515     1
   3512   3516     1
   3513   3515     1
   3513   3516     1
   3514   3527     1
   3514   3528     1
   3514   3520     1
   3514   3521     1
   3515   3517     1
   3515   3519     1
   3516   3524     1
   3516   3525     1
   3517   3522     1
   3517   3520     1
   3517   3521     1
   3518   3544     1
   3519   3522     1
   3519   3520     1
   3519   3521     1
   3520   3523     1
   3520   3554     1
   3521   3523     1
   3521   3554     1
   3522   3537     1
   3523   3544     1
   3524   3529     1
   3524   3527     1
   3524   3528     1
   3525   3529     1
   3525   3527     1
   3525   3528     1
   3526   3568     1
   3527   3530     1
   3527   3578     1
   3528   3530     1
   3528   3578     1
   3529   3561     1
   3530   3568     1
   3531   3538     1
   3531   3553     1
   3531   3548     1
   3531   3539     1
   3532   3537     1
   3532   3543     1
   3532   3545     1
   3532   3546     1
   3533   3534     1
   3533   3552     1
   3533   3551     1
   3533   3547     1
   3533   3545     1
   3533   3546     1
   3533   3536     1
   3534   3539     1
   3534   3544     1
   3534   3553     1
   3535   3550     1
   3535   3543     1
   3535   3551     1
   3536   3544     1
   3536   3538     1
   3537   3540     1
   3537   3549     1
   3537   3539     1
   3537   3544     1
   3537   3541     1
   3537   3538     1
   3538   3554     1
   3538   3543     1
   3538   3552     1
   3538   3551     1
   3539   3550     1
   3539   3554     1
   3541   3551     1
   3542   3551     1
   3545   3548     1
   3545   3549     1
   3546   3548     1
   3546   3549     1
   3549   3550     1
   3549   3551     1
   3551   3553     1
   3555   3562     1
   3555   3577     1
   3555   3572     1
   3555   3563     1
   3556   3561     1
   3556   3567     1
   3556   3569     1
   3556   3570     1
   3557   3558     1
   3557   3576     1
   3557   3575     1
   3557   3571     1
   3557   3569     1
   3557   3570     1
   3557   3560     1
   3558   3563     1
   3558   3568     1
   3558   3577     1
   3559   3574     1
   3559   3567     1
   3559   3575     1
   3560   3568     1
   3560   3562     1
   3561   3564     1
   3561   3573     1
   3561   3563     1
   3561   3568     1
   3561   3565     1
   3561   3562     1
   3562   3578     1
   3562   3567     1
   3562   3576     1
   3562   3575     1
   3563   3574     1
   3563   3578     1
   3565   3575     1
   3566   3575     1
   3569   3572     1
   3569   3573     1
   3570   3572     1
   3570   3573     1
   3573   3574     1
   3573   3575     1
   3575   3577     1
   3579   3585     1
   3579   3586     1
   3580   3583     1
   3580   3582     1
   3580   3584     1
   3582   3587     1
   3582   3585     1
   3582   3586     1
   3583   3597     1
   3583   3598     1
   3583   3590     1
   3583   3592     1
   3584   3587     1
   3584   3585     1
   3584   3586     1
   3585   3588     1
   3585   3589     1
   3586   3588     1
   3586   3589     1
   3587   3600     1
   3587   3601     1
   3587   3593     1
   3587   3594     1
   3588   3590     1
   3588   3592     1
   3589   3597     1
   3589   3598     1
   3590   3595     1
   3590   3593     1
   3590   3594     1
   3591   3617     1
   3592   3595     1
   3592   3593     1
   3592   3594     1
   3593   3596     1
   3593   3627     1
   3594   3596     1
   3594   3627     1
   3595   3610     1
   3596   3617     1
   3597   3602     1
   3597   3600     1
   3597   3601     1
   3598   3602     1
   3598   3600     1
   3598   3601     1
   3599   3641     1
   3600   3603     1
   3600   3651     1
   3601   3603     1
   3601   3651     1
   3602   3634     1
   3603   3641     1
   3604   3611     1
   3604   3626     1
   3604   3621     1
   3604   3612     1
   3605   3618     1
   3605   3619     1
   3605   3610     1
   3605   3616     1
   3606   3607     1
   3606   3625     1
   3606   3624     1
   3606   3620     1
   3606   3618     1
   3606   3619     1
   3606   3609     1
   3607   3626     1
   3607   3612     1
   3607   3617     1
   3608   3624     1
   3608   3616     1
   3608   3623     1
   3609   3611     1
   3609   3617     1
   3610   3614     1
   3610   3611     1
   3610   3613     1
   3610   3622     1
   3610   3612     1
   3610   3617     1
   3611   3625     1
   3611   3624     1
   3611   3627     1
   3611   3616     1
   3612   3627     1
   3612   3623     1
   3614   3624     1
   3615   3624     1
   3618   3622     1
   3618   3621     1
   3619   3622     1
   3619   3621     1
   3622   3624     1
   3622   3623     1
   3624   3626     1
   3628   3635     1
   3628   3650     1
   3628   3645     1
   3628   3636     1
   3629   3642     1
   3629   3643     1
   3629   3634     1
   3629   3640     1
   3630   3631     1
   3630   3649     1
   3630   3648     1
   3630   3644     1
   3630   3642     1
   3630   3643     1
   3630   3633     1
   3631   3650     1
   3631   3636     1
   3631   3641     1
   3632   3648     1
   3632   3640     1
   3632   3647     1
   3633   3635     1
   3633   3641     1
   3634   3638     1
   3634   3635     1
   3634   3637     1
   3634   3646     1
   3634   3636     1
   3634   3641     1
   3635   3649     1
   3635   3648     1
   3635   3651     1
   3635   3640     1
   3636   3651     1
   3636   3647     1
   3638   3648     1
   3639   3648     1
   3642   3646     1
   3642   3645     1
   3643   3646     1
   3643   3645     1
   3646   3648     1
   3646   3647     1
   3648   3650     1
   3652   3658     1
   3652   3659     1
   3653   3656     1
   3653   3655     1
   3653   3657     1
   3655   3660     1
   3655   3658     1
   3655   3659     1
   3656   3670     1
   3656   3671     1
   3656   3663     1
   3656   3665     1
   3657   3660     1
   3657   3658     1
   3657   3659     1
   3658   3661     1
   3658   3662     1
   3659   3661     1
   3659   3662     1
   3660   3673     1
   3660   3674     1
   3660   3666     1
   3660   3667     1
   3661   3663     1
   3661   3665     1
   3662   3670     1
   3662   3671     1
   3663   3668     1
   3663   3666     1
   3663   3667     1
   3664   3690     1
   3665   3668     1
   3665   3666     1
   3665   3667     1
   3666   3669     1
   3666   3700     1
   3667   3669     1
   3667   3700     1
   3668   3683     1
   3669   3690     1
   3670   3675     1
   3670   3673     1
   3670   3674     1
   3671   3675     1
   3671   3673     1
   3671   3674     1
   3672   3714     1
   3673   3676     1
   3673   3724     1
   3674   3676     1
   3674   3724     1
   3675   3707     1
   3676   3714     1
   3677   3684     1
   3677   3699     1
   3677   3694     1
   3677   3685     1
   3678   3683     1
   3678   3689     1
   3678   3691     1
   3678   3692     1
   3679   3680     1
   3679   3698     1
   3679   3697     1
   3679   3693     1
   3679   3691     1
   3679   3692     1
   3679   3682     1
   3680   3685     1
   3680   3690     1
   3680   3699     1
   3681   3696     1
   3681   3689     1
   3681   3697     1
   3682   3690     1
   3682   3684     1
   3683   3686     1
   3683   3695     1
   3683   3685     1
   3683   3690     1
   3683   3687     1
   3683   3684     1
   3684   3700     1
   3684   3689     1
   3684   3698     1
   3684   3697     1
   3685   3696     1
   3685   3700     1
   3687   3697     1
   3688   3697     1
   3691   3694     1
   3691   3695     1
   3692   3694     1
   3692   3695     1
   3695   3696     1
   3695   3697     1
   3697   3699     1
   3701   3708     1
   3701   3723     1
   3701   3718     1
   3701   3709     1
   3702   3707     1
   3702   3713     1
   3702   3715     1
   3702   3716     1
   3703   3704     1
   3703   3722     1
   3703   3721     1
   3703   3717     1
   3703   3715     1
   3703   3716     1
   3703   3706     1
   3704   3709     1
   3704   3714     1
   3704   3723     1
   3705   3720     1
   3705   3713     1
   3705   3721     1
   3706   3714     1
   3706   3708     1
   3707   3710     1
   3707   3719     1
   3707   3709     1
   3707   3714     1
   3707   3711     1
   3707   3708     1
   3708   3724     1
   3708   3713     1
   3708   3722     1
   3708   3721     1
   3709   3720     1
   3709   3724     1
   3711   3721     1
   3712   3721     1
   3715   3718     1
   3715   3719     1
   3716   3718     1
   3716   3719     1
   3719   3720     1
   3719   3721     1
   3721   3723     1
   3725   3731     1
   3725   3732     1
   3726   3729     1
   3726   3728     1
   3726   3730     1
   3728   3733     1
   3728   3731     1
   3728   3732     1
   3729   3743     1
   3729   3744     1
   3729   3736     1
   3729   3738     1
   3730   3733     1
   3730   3731     1
   3730   3732     1
   3731   3734     1
   3731   3735     1
   3732   3734     1
   3732   3735     1
   3733   3746     1
   3733   3747     1
   3733   3739     1
   3733   3740     1
   3734   3736     1
   3734   3738     1
   3735   3743     1
   3735   3744     1
   3736   3741     1
   3736   3739     1
   3736   3740     1
   3737   3763     1
   3738   3741     1
   3738   3739     1
   3738   3740     1
   3739   3742     1
   3739   3773     1
   3740   3742     1
   3740   3773     1
   3741   3756     1
   3742   3763     1
   3743   3748     1
   3743   3746     1
   3743   3747     1
   3744   3748     1
   3744   3746     1
   3744   3747     1
   3745   3787     1
   3746   3749     1
   3746   3797     1
   3747   3749     1
   3747   3797     1
   3748   3780     1
   3749   3787     1
   3750   3757     1
   3750   3772     1
   3750   3767     1
   3750   3758     1
   3751   3764     1
   3751   3765     1
   3751   3756     1
   3751   3762     1
   3752   3753     1
   3752   3771     1
   3752   3770     1
   3752   3766     1
   3752   3764     1
   3752   3765     1
   3752   3755     1
   3753   3772     1
   3753   3758     1
   3753   3763     1
   3754   3770     1
   3754   3762     1
   3754   3769     1
   3755   3757     1
   3755   3763     1
   3756   3760     1
   3756   3757     1
   3756   3759     1
   3756   3768     1
   3756   3758     1
   3756   3763     1
   3757   3771     1
   3757   3770     1
   3757   3773     1
   3757   3762     1
   3758   3773     1
   3758   3769     1
   3760   3770     1
   3761   3770     1
   3764   3768     1
   3764   3767     1
   3765   3768     1
   3765   3767     1
   3768   3770     1
   3768   3769     1
   3770   3772     1
   3774   3781     1
   3774   3796     1
   3774   3791     1
   3774   3782     1
   3775   3788     1
   3775   3789     1
   3775   3780     1
   3775   3786     1
   3776   3777     1
   3776   3795     1
   3776   3794     1
   3776   3790     1
   3776   3788     1
   3776   3789     1
   3776   3779     1
   3777   3796     1
   3777   3782     1
   3777   3787     1
   3778   3794     1
   3778   3786     1
   3778   3793     1
   3779   3781     1
   3779   3787     1
   3780   3784     1
   3780   3781     1
   3780   3783     1
   3780   3792     1
   3780   3782     1
   3780   3787     1
   3781   3795     1
   3781   3794     1
   3781   3797     1
   3781   3786     1
   3782   3797     1
   3782   3793     1
   3784   3794     1
   3785   3794     1
   3788   3792     1
   3788   3791     1
   3789   3792     1
   3789   3791     1
   3792   3794     1
   3792   3793     1
   3794   3796     1
   3798   3804     1
   3798   3805     1
   3799   3802     1
   3799   3801     1
   3799   3803     1
   3801   3806     1
   3801   3804     1
   3801   3805     1
   3802   3816     1
   3802   3817     1
   3802   3809     1
   3802   3811     1
   3803   3806     1
   3803   3804     1
   3803   3805     1
   3804   3807     1
   3804   3808     1
   3805   3807     1
   3805   3808     1
   3806   3819     1
   3806   3820     1
   3806   3812     1
   3806   3813     1
   3807   3809     1
   3807   3811     1
   3808   3816     1
   3808   3817     1
   3809   3814     1
   3809   3812     1
   3809   3813     1
   3810   3836     1
   3811   3814     1
   3811   3812     1
   3811   3813     1
   3812   3815     1
   3812   3846     1
   3813   3815     1
   3813   3846     1
   3814   3829     1
   3815   3836     1
   3816   3821     1
   3816   3819     1
   3816   3820     1
   3817   3821     1
   3817   3819     1
   3817   3820     1
   3818   3860     1
   3819   3822     1
   3819   3870     1
   3820   3822     1
   3820   3870     1
   3821   3853     1
   3822   3860     1
   3823   3830     1
   3823   3845     1
   3823   3840     1
   3823   3831     1
   3824   3829     1
   3824   3835     1
   3824   3837     1
   3824   3838     1
   3825   3826     1
   3825   3844     1
   3825   3843     1
   3825   3839     1
   3825   3837     1
   3825   3838     1
   3825   3828     1
   3826   3831     1
   3826   3836     1
   3826   3845     1
   3827   3842     1
   3827   3835     1
   3827   3843     1
   3828   3836     1
   3828   3830     1
   3829   3832     1
   3829   3841     1
   3829   3831     1
   3829   3836     1
   3829   3833     1
   3829   3830     1
   3830   3846     1
   3830   3835     1
   3830   3844     1
   3830   3843     1
   3831   3842     1
   3831   3846     1
   3833   3843     1
   3834   3843     1
   3837   3840     1
   3837   3841     1
   3838   3840     1
   3838   3841     1
   3841   3842     1
   3841   3843     1
   3843   3845     1
   3847   3854     1
   3847   3869     1
   3847   3864     1
   3847   3855     1
   3848   3853     1
   3848   3859     1
   3848   3861     1
   3848   3862     1
   3849   3850     1
   3849   3868     1
   3849   3867     1
   3849   3863     1
   3849   3861     1
   3849   3862     1
   3849   3852     1
   3850   3855     1
   3850   3860     1
   3850   3869     1
   3851   3866     1
   3851   3859     1
   3851   3867     1
   3852   3860     1
   3852   3854     1
   3853   3856     1
   3853   3865     1
   3853   3855     1
   3853   3860     1
   3853   3857     1
   3853   3854     1
   3854   3870     1
   3854   3859     1
   3854   3868     1
   3854   3867     1
   3855   3866     1
   3855   3870     1
   3857   3867     1
   3858   3867     1
   3861   3864     1
   3861   3865     1
   3862   3864     1
   3862   3865     1
   3865   3866     1
   3865   3867     1
   3867   3869     1
   3871   3877     1
   3871   3878     1
   3872   3875     1
   3872   3874     1
   3872   3876     1
   3874   3879     1
   3874   3877     1
   3874   3878     1
   3875   3889     1
   3875   3890     1
   3875   3882     1
   3875   3884     1
   3876   3879     1
   3876   3877     1
   3876   3878     1
   3877   3880     1
   3877   3881     1
   3878   3880     1
   3878   3881     1
   3879   3892     1
   3879   3893     1
   3879   3885     1
   3879   3886     1
   3880   3882     1
   3880   3884     1
   3881   3889     1
   3881   3890     1
   3882   3887     1
   3882   3885     1
   3882   3886     1
   3883   3909     1
   3884   3887     1
   3884   3885     1
   3884   3886     1
   3885   3888     1
   3885   3919     1
   3886   3888     1
   3886   3919     1
   3887   3902     1
   3888   3909     1
   3889   3894     1
   3889   3892     1
   3889   3893     1
   3890   3894     1
   3890   3892     1
   3890   3893     1
   3891   3933     1
   3892   3895     1
   3892   3943     1
   3893   3895     1
   3893   3943     1
   3894   3926     1
   3895   3933     1
   3896   3903     1
   3896   3918     1
   3896   3913     1
   3896   3904     1
   3897   3910     1
   3897   3911     1
   3897   3902     1
   3897   3908     1
   3898   3899     1
   3898   3917     1
   3898   3916     1
   3898   3912     1
   3898   3910     1
   3898   3911     1
   3898   3901     1
   3899   3918     1
   3899   3904     1
   3899   3909     1
   3900   3916     1
   3900   3908     1
   3900   3915     1
   3901   3903     1
   3901   3909     1
   3902   3906     1
   3902   3903     1
   3902   3905     1
   3902   3914     1
   3902   3904     1
   3902   3909     1
   3903   3917     1
   3903   3916     1
   3903   3919     1
   3903   3908     1
   3904   3919     1
   3904   3915     1
   3906   3916     1
   3907   3916     1
   3910   3914     1
   3910   3913     1
   3911   3914     1
   3911   3913     1
   3914   3916     1
   3914   3915     1
   3916   3918     1
   3920   3927     1
   3920   3942     1
   3920   3937     1
   3920   3928     1
   3921   3934     1
   3921   3935     1
   3921   3926     1
   3921   3932     1
   3922   3923     1
   3922   3941     1
   3922   3940     1
   3922   3936     1
   3922   3934     1
   3922   3935     1
   3922   3925     1
   3923   3942     1
   3923   3928     1
   3923   3933     1
   3924   3940     1
   3924   3932     1
   3924   3939     1
   3925   3927     1
   3925   3933     1
   3926   3930     1
   3926   3927     1
   3926   3929     1
   3926   3938     1
   3926   3928     1
   3926   3933     1
   3927   3941     1
   3927   3940     1
   3927   3943     1
   3927   3932     1
   3928   3943     1
   3928   3939     1
   3930   3940     1
   3931   3940     1
   3934   3938     1
   3934   3937     1
   3935   3938     1
   3935   3937     1
   3938   3940     1
   3938   3939     1
   3940   3942     1
   3944   3950     1
   3944   3951     1
   3945   3948     1
   3945   3947     1
   3945   3949     1
   3947   3952     1
   3947   3950     1
   3947   3951     1
   3948   3962     1
   3948   3963     1
   3948   3955     1
   3948   3957     1
   3949   3952     1
   3949   3950     1
   3949   3951     1
   3950   3953     1
   3950   3954     1
   3951   3953     1
   3951   3954     1
   3952   3965     1
   3952   3966     1
   3952   3958     1
   3952   3959     1
   3953   3955     1
   3953   3957     1
   3954   3962     1
   3954   3963     1
   3955   3960     1
   3955   3958     1
   3955   3959     1
   3956   3982     1
   3957   3960     1
   3957   3958     1
   3957   3959     1
   3958   3961     1
   3958   3992     1
   3959   3961     1
   3959   3992     1
   3960   3975     1
   3961   3982     1
   3962   3967     1
   3962   3965     1
   3962   3966     1
   3963   3967     1
   3963   3965     1
   3963   3966     1
   3964   4006     1
   3965   3968     1
   3965   4016     1
   3966   3968     1
   3966   4016     1
   3967   3999     1
   3968   4006     1
   3969   3976     1
   3969   3991     1
   3969   3986     1
   3969   3977     1
   3970   3975     1
   3970   3981     1
   3970   3983     1
   3970   3984     1
   3971   3972     1
   3971   3990     1
   3971   3989     1
   3971   3985     1
   3971   3983     1
   3971   3984     1
   3971   3974     1
   3972   3977     1
   3972   3982     1
   3972   3991     1
   3973   3988     1
   3973   3981     1
   3973   3989     1
   3974   3982     1
   3974   3976     1
   3975   3978     1
   3975   3987     1
   3975   3977     1
   3975   3982     1
   3975   3979     1
   3975   3976     1
   3976   3992     1
   3976   3981     1
   3976   3990     1
   3976   3989     1
   3977   3988     1
   3977   3992     1
   3979   3989     1
   3980   3989     1
   3983   3986     1
   3983   3987     1
   3984   3986     1
   3984   3987     1
   3987   3988     1
   3987   3989     1
   3989   3991     1
   3993   4000     1
   3993   4015     1
   3993   4010     1
   3993   4001     1
   3994   3999     1
   3994   4005     1
   3994   4007     1
   3994   4008     1
   3995   3996     1
   3995   4014     1
   3995   4013     1
   3995   4009     1
   3995   4007     1
   3995   4008     1
   3995   3998     1
   3996   4001     1
   3996   4006     1
   3996   4015     1
   3997   4012     1
   3997   4005     1
   3997   4013     1
   3998   4006     1
   3998   4000     1
   3999   4002     1
   3999   4011     1
   3999   4001     1
   3999   4006     1
   3999   4003     1
   3999   4000     1
   4000   4016     1
   4000   4005     1
   4000   4014     1
   4000   4013     1
   4001   4012     1
   4001   4016     1
   4003   4013     1
   4004   4013     1
   4007   4010     1
   4007   4011     1
   4008   4010     1
   4008   4011     1
   4011   4012     1
   4011   4013     1
   4013   4015     1
   4017   4023     1
   4017   4024     1
   4018   4021     1
   4018   4020     1
   4018   4022     1
   4020   4025     1
   4020   4023     1
   4020   4024     1
   4021   4035     1
   4021   4036     1
   4021   4028     1
   4021   4030     1
   4022   4025     1
   4022   4023     1
   4022   4024     1
   4023   4026     1
   4023   4027     1
   4024   4026     1
   4024   4027     1
   4025   4038     1
   4025   4039     1
   4025   4031     1
   4025   4032     1
   4026   4028     1
   4026   4030     1
   4027   4035     1
   4027   4036     1
   4028   4033     1
   4028   4031     1
   4028   4032     1
   4029   4055     1
   4030   4033     1
   4030   4031     1
   4030   4032     1
   4031   4034     1
   4031   4065     1
   4032   4034     1
   4032   4065     1
   4033   4048     1
   4034   4055     1
   4035   4040     1
   4035   4038     1
   4035   4039     1
   4036   4040     1
   4036   4038     1
   4036   4039     1
   4037   4079     1
   4038   4041     1
   4038   4089     1
   4039   4041     1
   4039   4089     1
   4040   4072     1
   4041   4079     1
   4042   4049     1
   4042   4064     1
   4042   4059     1
   4042   4050     1
   4043   4056     1
   4043   4057     1
   4043   4048     1
   4043   4054     1
   4044   4045     1
   4044   4063     1
   4044   4062     1
   4044   4058     1
   4044   4056     1
   4044   4057     1
   4044   4047     1
   4045   4064     1
   4045   4050     1
   4045   4055     1
   4046   4062     1
   4046   4054     1
   4046   4061     1
   4047   4049     1
   4047   4055     1
   4048   4052     1
   4048   4049     1
   4048   4051     1
   4048   4060     1
   4048   4050     1
   4048   4055     1
   4049   4063     1
   4049   4062     1
   4049   4065     1
   4049   4054     1
   4050   4065     1
   4050   4061     1
   4052   4062     1
   4053   4062     1
   4056   4060     1
   4056   4059     1
   4057   4060     1
   4057   4059     1
   4060   4062     1
   4060   4061     1
   4062   4064     1
   4066   4073     1
   4066   4088     1
   4066   4083     1
   4066   4074     1
   4067   4080     1
   4067   4081     1
   4067   4072     1
   4067   4078     1
   4068   4069     1
   4068   4087     1
   4068   4086     1
   4068   4082     1
   4068   4080     1
   4068   4081     1
   4068   4071     1
   4069   4088     1
   4069   4074     1
   4069   4079     1
   4070   4086     1
   4070   4078     1
   4070   4085     1
   4071   4073     1
   4071   4079     1
   4072   4076     1
   4072   4073     1
   4072   4075     1
   4072   4084     1
   4072   4074     1
   4072   4079     1
   4073   4087     1
   4073   4086     1
   4073   4089     1
   4073   4078     1
   4074   4089     1
   4074   4085     1
   4076   4086     1
   4077   4086     1
   4080   4084     1
   4080   4083     1
   4081   4084     1
   4081   4083     1
   4084   4086     1
   4084   4085     1
   4086   4088     1
   4090   4096     1
   4090   4097     1
   4091   4094     1
   4091   4093     1
   4091   4095     1
   4093   4098     1
   4093   4096     1
   4093   4097     1
   4094   4108     1
   4094   4109     1
   4094   4101     1
   4094   4103     1
   4095   4098     1
   4095   4096     1
   4095   4097     1
   4096   4099     1
   4096   4100     1
   4097   4099     1
   4097   4100     1
   4098   4111     1
   4098   4112     1
   4098   4104     1
   4098   4105     1
   4099   4101     1
   4099   4103     1
   4100   4108     1
   4100   4109     1
   4101   4106     1
   4101   4104     1
   4101   4105     1
   4102   4128     1
   4103   4106     1
   4103   4104     1
   4103   4105     1
   4104   4107     1
   4104   4138     1
   4105   4107     1
   4105   4138     1
   4106   4121     1
   4107   4128     1
   4108   4113     1
   4108   4111     1
   4108   4112     1
   4109   4113     1
   4109   4111     1
   4109   4112     1
   4110   4152     1
   4111   4114     1
   4111   4162     1
   4112   4114     1
   4112   4162     1
   4113   4145     1
   4114   4152     1
   4115   4122     1
   4115   4137     1
   4115   4132     1
   4115   4123     1
   4116   4121     1
   4116   4127     1
   4116   4129     1
   4116   4130     1
   4117   4118     1
   4117   4136     1
   4117   4135     1
   4117   4131     1
   4117   4129     1
   4117   4130     1
   4117   4120     1
   4118   4123     1
   4118   4128     1
   4118   4137     1
   4119   4134     1
   4119   4127     1
   4119   4135     1
   4120   4128     1
   4120   4122     1
   4121   4124     1
   4121   4133     1
   4121   4123     1
   4121   4128     1
   4121   4125     1
   4121   4122     1
   4122   4138     1
   4122   4127     1
   4122   4136     1
   4122   4135     1
   4123   4134     1
   4123   4138     1
   4125   4135     1
   4126   4135     1
   4129   4132     1
   4129   4133     1
   4130   4132     1
   4130   4133     1
   4133   4134     1
   4133   4135     1
   4135   4137     1
   4139   4146     1
   4139   4161     1
   4139   4156     1
   4139   4147     1
   4140   4145     1
   4140   4151     1
   4140   4153     1
   4140   4154     1
   4141   4142     1
   4141   4160     1
   4141   4159     1
   4141   4155     1
   4141   4153     1
   4141   4154     1
   4141   4144     1
   4142   4147     1
   4142   4152     1
   4142   4161     1
   4143   4158     1
   4143   4151     1
   4143   4159     1
   4144   4152     1
   4144   4146     1
   4145   4148     1
   4145   4157     1
   4145   4147     1
   4145   4152     1
   4145   4149     1
   4145   4146     1
   4146   4162     1
   4146   4151     1
   4146   4160     1
   4146   4159     1
   4147   4158     1
   4147   4162     1
   4149   4159     1
   4150   4159     1
   4153   4156     1
   4153   4157     1
   4154   4156     1
   4154   4157     1
   4157   4158     1
   4157   4159     1
   4159   4161     1
   4163   4169     1
   4163   4170     1
   4164   4167     1
   4164   4166     1
   4164   4168     1
   4166   4171     1
   4166   4169     1
   4166   4170     1
   4167   4181     1
   4167   4182     1
   4167   4174     1
   4167   4176     1
   4168   4171     1
   4168   4169     1
   4168   4170     1
   4169   4172     1
   4169   4173     1
   4170   4172     1
   4170   4173     1
   4171   4184     1
   4171   4185     1
   4171   4177     1
   4171   4178     1
   4172   4174     1
   4172   4176     1
   4173   4181     1
   4173   4182     1
   4174   4179     1
   4174   4177     1
   4174   4178     1
   4175   4201     1
   4176   4179     1
   4176   4177     1
   4176   4178     1
   4177   4180     1
   4177   4211     1
   4178   4180     1
   4178   4211     1
   4179   4194     1
   4180   4201     1
   4181   4186     1
   4181   4184     1
   4181   4185     1
   4182   4186     1
   4182   4184     1
   4182   4185     1
   4183   4225     1
   4184   4187     1
   4184   4235     1
   4185   4187     1
   4185   4235     1
   4186   4218     1
   4187   4225     1
   4188   4195     1
   4188   4210     1
   4188   4205     1
   4188   4196     1
   4189   4202     1
   4189   4203     1
   4189   4194     1
   4189   4200     1
   4190   4191     1
   4190   4209     1
   4190   4208     1
   4190   4204     1
   4190   4202     1
   4190   4203     1
   4190   4193     1
   4191   4210     1
   4191   4196     1
   4191   4201     1
   4192   4208     1
   4192   4200     1
   4192   4207     1
   4193   4195     1
   4193   4201     1
   4194   4198     1
   4194   4195     1
   4194   4197     1
   4194   4206     1
   4194   4196     1
   4194   4201     1
   4195   4209     1
   4195   4208     1
   4195   4211     1
   4195   4200     1
   4196   4211     1
   4196   4207     1
   4198   4208     1
   4199   4208     1
   4202   4206     1
   4202   4205     1
   4203   4206     1
   4203   4205     1
   4206   4208     1
   4206   4207     1
   4208   4210     1
   4212   4219     1
   4212   4234     1
   4212   4229     1
   4212   4220     1
   4213   4226     1
   4213   4227     1
   4213   4218     1
   4213   4224     1
   4214   4215     1
   4214   4233     1
   4214   4232     1
   4214   4228     1
   4214   4226     1
   4214   4227     1
   4214   4217     1
   4215   4234     1
   4215   4220     1
   4215   4225     1
   4216   4232     1
   4216   4224     1
   4216   4231     1
   4217   4219     1
   4217   4225     1
   4218   4222     1
   4218   4219     1
   4218   4221     1
   4218   4230     1
   4218   4220     1
   4218   4225     1
   4219   4233     1
   4219   4232     1
   4219   4235     1
   4219   4224     1
   4220   4235     1
   4220   4231     1
   4222   4232     1
   4223   4232     1
   4226   4230     1
   4226   4229     1
   4227   4230     1
   4227   4229     1
   4230   4232     1
   4230   4231     1
   4232   4234     1
   4236   4242     1
   4236   4243     1
   4237   4240     1
   4237   4239     1
   4237   4241     1
   4239   4244     1
   4239   4242     1
   4239   4243     1
   4240   4254     1
   4240   4255     1
   4240   4247     1
   4240   4249     1
   4241   4244     1
   4241   4242     1
   4241   4243     1
   4242   4245     1
   4242   4246     1
   4243   4245     1
   4243   4246     1
   4244   4257     1
   4244   4258     1
   4244   4250     1
   4244   4251     1
   4245   4247     1
   4245   4249     1
   4246   4254     1
   4246   4255     1
   4247   4252     1
   4247   4250     1
   4247   4251     1
   4248   4274     1
   4249   4252     1
   4249   4250     1
   4249   4251     1
   4250   4253     1
   4250   4284     1
   4251   4253     1
   4251   4284     1
   4252   4267     1
   4253   4274     1
   4254   4259     1
   4254   4257     1
   4254   4258     1
   4255   4259     1
   4255   4257     1
   4255   4258     1
   4256   4298     1
   4257   4260     1
   4257   4308     1
   4258   4260     1
   4258   4308     1
   4259   4291     1
   4260   4298     1
   4261   4268     1
   4261   4283     1
   4261   4278     1
   4261   4269     1
   4262   4267     1
   4262   4273     1
   4262   4275     1
   4262   4276     1
   4263   4264     1
   4263   4282     1
   4263   4281     1
   4263   4277     1
   4263   4275     1
   4263   4276     1
   4263   4266     1
   4264   4269     1
   4264   4274     1
   4264   4283     1
   4265   4280     1
   4265   4273     1
   4265   4281     1
   4266   4274     1
   4266   4268     1
   4267   4270     1
   4267   4279     1
   4267   4269     1
   4267   4274     1
   4267   4271     1
   4267   4268     1
   4268   4284     1
   4268   4273     1
   4268   4282     1
   4268   4281     1
   4269   4280     1
   4269   4284     1
   4271   4281     1
   4272   4281     1
   4275   4278     1
   4275   4279     1
   4276   4278     1
   4276   4279     1
   4279   4280     1
   4279   4281     1
   4281   4283     1
   4285   4292     1
   4285   4307     1
   4285   4302     1
   4285   4293     1
   4286   4291     1
   4286   4297     1
   4286   4299     1
   4286   4300     1
   4287   4288     1
   4287   4306     1
   4287   4305     1
   4287   4301     1
   4287   4299     1
   4287   4300     1
   4287   4290     1
   4288   4293     1
   4288   4298     1
   4288   4307     1
   4289   4304     1
   4289   4297     1
   4289   4305     1
   4290   4298     1
   4290   4292     1
   4291   4294     1
   4291   4303     1
   4291   4293     1
   4291   4298     1
   4291   4295     1
   4291   4292     1
   4292   4308     1
   4292   4297     1
   4292   4306     1
   4292   4305     1
   4293   4304     1
   4293   4308     1
   4295   4305     1
   4296   4305     1
   4299   4302     1
   4299   4303     1
   4300   4302     1
   4300   4303     1
   4303   4304     1
   4303   4305     1
   4305   4307     1
   4309   4315     1
   4309   4316     1
   4310   4313     1
   4310   4312     1
   4310   4314     1
   4312   4317     1
   4312   4315     1
   4312   4316     1
   4313   4327     1
   4313   4328     1
   4313   4320     1
   4313   4322     1
   4314   4317     1
   4314   4315     1
   4314   4316     1
   4315   4318     1
   4315   4319     1
   4316   4318     1
   4316   4319     1
   4317   4330     1
   4317   4331     1
   4317   4323     1
   4317   4324     1
   4318   4320     1
   4318   4322     1
   4319   4327     1
   4319   4328     1
   4320   4325     1
   4320   4323     1
   4320   4324     1
   4321   4347     1
   4322   4325     1
   4322   4323     1
   4322   4324     1
   4323   4326     1
   4323   4357     1
   4324   4326     1
   4324   4357     1
   4325   4340     1
   4326   4347     1
   4327   4332     1
   4327   4330     1
   4327   4331     1
   4328   4332     1
   4328   4330     1
   4328   4331     1
   4329   4371     1
   4330   4333     1
   4330   4381     1
   4331   4333     1
   4331   4381     1
   4332   4364     1
   4333   4371     1
   4334   4341     1
   4334   4356     1
   4334   4351     1
   4334   4342     1
   4335   4348     1
   4335   4349     1
   4335   4340     1
   4335   4346     1
   4336   4337     1
   4336   4355     1
   4336   4354     1
   4336   4350     1
   4336   4348     1
   4336   4349     1
   4336   4339     1
   4337   4356     1
   4337   4342     1
   4337   4347     1
   4338   4354     1
   4338   4346     1
   4338   4353     1
   4339   4341     1
   4339   4347     1
   4340   4344     1
   4340   4341     1
   4340   4343     1
   4340   4352     1
   4340   4342     1
   4340   4347     1
   4341   4355     1
   4341   4354     1
   4341   4357     1
   4341   4346     1
   4342   4357     1
   4342   4353     1
   4344   4354     1
   4345   4354     1
   4348   4352     1
   4348   4351     1
   4349   4352     1
   4349   4351     1
   4352   4354     1
   4352   4353     1
   4354   4356     1
   4358   4365     1
   4358   4380     1
   4358   4375     1
   4358   4366     1
   4359   4372     1
   4359   4373     1
   4359   4364     1
   4359   4370     1
   4360   4361     1
   4360   4379     1
   4360   4378     1
   4360   4374     1
   4360   4372     1
   4360   4373     1
   4360   4363     1
   4361   4380     1
   4361   4366     1
   4361   4371     1
   4362   4378     1
   4362   4370     1
   4362   4377     1
   4363   4365     1
   4363   4371     1
   4364   4368     1
   4364   4365     1
   4364   4367     1
   4364   4376     1
   4364   4366     1
   4364   4371     1
   4365   4379     1
   4365   4378     1
   4365   4381     1
   4365   4370     1
   4366   4381     1
   4366   4377     1
   4368   4378     1
   4369   4378     1
   4372   4376     1
   4372   4375     1
   4373   4376     1
   4373   4375     1
   4376   4378     1
   4376   4377     1
   4378   4380     1
   4382   4388     1
   4382   4389     1
   4383   4386     1
   4383   4385     1
   4383   4387     1
   4385   4390     1
   4385   4388     1
   4385   4389     1
   4386   4400     1
   4386   4401     1
   4386   4393     1
   4386   4395     1
   4387   4390     1
   4387   4388     1
   4387   4389     1
   4388   4391     1
   4388   4392     1
   4389   4391     1
   4389   4392     1
   4390   4403     1
   4390   4404     1
   4390   4396     1
   4390   4397     1
   4391   4393     1
   4391   4395     1
   4392   4400     1
   4392   4401     1
   4393   4398     1
   4393   4396     1
   4393   4397     1
   4394   4420     1
   4395   4398     1
   4395   4396     1
   4395   4397     1
   4396   4399     1
   4396   4430     1
   4397   4399     1
   4397   4430     1
   4398   4413     1
   4399   4420     1
   4400   4405     1
   4400   4403     1
   4400   4404     1
   4401   4405     1
   4401   4403     1
   4401   4404     1
   4402   4444     1
   4403   4406     1
   4403   4454     1
   4404   4406     1
   4404   4454     1
   4405   4437     1
   4406   4444     1
   4407   4414     1
   4407   4429     1
   4407   4424     1
   4407   4415     1
   4408   4413     1
   4408   4419     1
   4408   4421     1
   4408   4422     1
   4409   4410     1
   4409   4428     1
   4409   4427     1
   4409   4423     1
   4409   4421     1
   4409   4422     1
   4409   4412     1
   4410   4415     1
   4410   4420     1
   4410   4429     1
   4411   4426     1
   4411   4419     1
   4411   4427     1
   4412   4420     1
   4412   4414     1
   4413   4416     1
   4413   4425     1
   4413   4415     1
   4413   4420     1
   4413   4417     1
   4413   4414     1
   4414   4430     1
   4414   4419     1
   4414   4428     1
   4414   4427     1
   4415   4426     1
   4415   4430     1
   4417   4427     1
   4418   4427     1
   4421   4424     1
   4421   4425     1
   4422   4424     1
   4422   4425     1
   4425   4426     1
   4425   4427     1
   4427   4429     1
   4431   4438     1
   4431   4453     1
   4431   4448     1
   4431   4439     1
   4432   4437     1
   4432   4443     1
   4432   4445     1
   4432   4446     1
   4433   4434     1
   4433   4452     1
   4433   4451     1
   4433   4447     1
   4433   4445     1
   4433   4446     1
   4433   4436     1
   4434   4439     1
   4434   4444     1
   4434   4453     1
   4435   4450     1
   4435   4443     1
   4435   4451     1
   4436   4444     1
   4436   4438     1
   4437   4440     1
   4437   4449     1
   4437   4439     1
   4437   4444     1
   4437   4441     1
   4437   4438     1
   4438   4454     1
   4438   4443     1
   4438   4452     1
   4438   4451     1
   4439   4450     1
   4439   4454     1
   4441   4451     1
   4442   4451     1
   4445   4448     1
   4445   4449     1
   4446   4448     1
   4446   4449     1
   4449   4450     1
   4449   4451     1
   4451   4453     1
   4455   4461     1
   4455   4462     1
   4456   4459     1
   4456   4458     1
   4456   4460     1
   4458   4463     1
   4458   4461     1
   4458   4462     1
   4459   4473     1
   4459   4474     1
   4459   4466     1
   4459   4468     1
   4460   4463     1
   4460   4461     1
   4460   4462     1
   4461   4464     1
   4461   4465     1
   4462   4464     1
   4462   4465     1
   4463   4476     1
   4463   4477     1
   4463   4469     1
   4463   4470     1
   4464   4466     1
   4464   4468     1
   4465   4473     1
   4465   4474     1
   4466   4471     1
   4466   4469     1
   4466   4470     1
   4467   4493     1
   4468   4471     1
   4468   4469     1
   4468   4470     1
   4469   4472     1
   4469   4503     1
   4470   4472     1
   4470   4503     1
   4471   4486     1
   4472   4493     1
   4473   4478     1
   4473   4476     1
   4473   4477     1
   4474   4478     1
   4474   4476     1
   4474   4477     1
   4475   4517     1
   4476   4479     1
   4476   4527     1
   4477   4479     1
   4477   4527     1
   4478   4510     1
   4479   4517     1
   4480   4487     1
   4480   4502     1
   4480   4497     1
   4480   4488     1
   4481   4494     1
   4481   4495     1
   4481   4486     1
   4481   4492     1
   4482   4483     1
   4482   4501     1
   4482   4500     1
   4482   4496     1
   4482   4494     1
   4482   4495     1
   4482   4485     1
   4483   4502     1
   4483   4488     1
   4483   4493     1
   4484   4500     1
   4484   4492     1
   4484   4499     1
   4485   4487     1
   4485   4493     1
   4486   4490     1
   4486   4487     1
   4486   4489     1
   4486   4498     1
   4486   4488     1
   4486   4493     1
   4487   4501     1
   4487   4500     1
   4487   4503     1
   4487   4492     1
   4488   4503     1
   4488   4499     1
   4490   4500     1
   4491   4500     1
   4494   4498     1
   4494   4497     1
   4495   4498     1
   4495   4497     1
   4498   4500     1
   4498   4499     1
   4500   4502     1
   4504   4511     1
   4504   4526     1
   4504   4521     1
   4504   4512     1
   4505   4518     1
   4505   4519     1
   4505   4510     1
   4505   4516     1
   4506   4507     1
   4506   4525     1
   4506   4524     1
   4506   4520     1
   4506   4518     1
   4506   4519     1
   4506   4509     1
   4507   4526     1
   4507   4512     1
   4507   4517     1
   4508   4524     1
   4508   4516     1
   4508   4523     1
   4509   4511     1
   4509   4517     1
   4510   4514     1
   4510   4511     1
   4510   4513     1
   4510   4522     1
   4510   4512     1
   4510   4517     1
   4511   4525     1
   4511   4524     1
   4511   4527     1
   4511   4516     1
   4512   4527     1
   4512   4523     1
   4514   4524     1
   4515   4524     1
   4518   4522     1
   4518   4521     1
   4519   4522     1
   4519   4521     1
   4522   4524     1
   4522   4523     1
   4524   4526     1
   4528   4534     1
   4528   4535     1
   4529   4532     1
   4529   4531     1
   4529   4533     1
   4531   4536     1
   4531   4534     1
   4531   4535     1
   4532   4546     1
   4532   4547     1
   4532   4539     1
   4532   4541     1
   4533   4536     1
   4533   4534     1
   4533   4535     1
   4534   4537     1
   4534   4538     1
   4535   4537     1
   4535   4538     1
   4536   4549     1
   4536   4550     1
   4536   4542     1
   4536   4543     1
   4537   4539     1
   4537   4541     1
   4538   4546     1
   4538   4547     1
   4539   4544     1
   4539   4542     1
   4539   4543     1
   4540   4566     1
   4541   4544     1
   4541   4542     1
   4541   4543     1
   4542   4545     1
   4542   4576     1
   4543   4545     1
   4543   4576     1
   4544   4559     1
   4545   4566     1
   4546   4551     1
   4546   4549     1
   4546   4550     1
   4547   4551     1
   4547   4549     1
   4547   4550     1
   4548   4590     1
   4549   4552     1
   4549   4600     1
   4550   4552     1
   4550   4600     1
   4551   4583     1
   4552   4590     1
   4553   4560     1
   4553   4575     1
   4553   4570     1
   4553   4561     1
   4554   4559     1
   4554   4565     1
   4554   4567     1
   4554   4568     1
   4555   4556     1
   4555   4574     1
   4555   4573     1
   4555   4569     1
   4555   4567     1
   4555   4568     1
   4555   4558     1
   4556   4561     1
   4556   4566     1
   4556   4575     1
   4557   4572     1
   4557   4565     1
   4557   4573     1
   4558   4566     1
   4558   4560     1
   4559   4562     1
   4559   4571     1
   4559   4561     1
   4559   4566     1
   4559   4563     1
   4559   4560     1
   4560   4576     1
   4560   4565     1
   4560   4574     1
   4560   4573     1
   4561   4572     1
   4561   4576     1
   4563   4573     1
   4564   4573     1
   4567   4570     1
   4567   4571     1
   4568   4570     1
   4568   4571     1
   4571   4572     1
   4571   4573     1
   4573   4575     1
   4577   4584     1
   4577   4599     1
   4577   4594     1
   4577   4585     1
   4578   4583     1
   4578   4589     1
   4578   4591     1
   4578   4592     1
   4579   4580     1
   4579   4598     1
   4579   4597     1
   4579   4593     1
   4579   4591     1
   4579   4592     1
   4579   4582     1
   4580   4585     1
   4580   4590     1
   4580   4599     1
   4581   4596     1
   4581   4589     1
   4581   4597     1
   4582   4590     1
   4582   4584     1
   4583   4586     1
   4583   4595     1
   4583   4585     1
   4583   4590     1
   4583   4587     1
   4583   4584     1
   4584   4600     1
   4584   4589     1
   4584   4598     1
   4584   4597     1
   4585   4596     1
   4585   4600     1
   4587   4597     1
   4588   4597     1
   4591   4594     1
   4591   4595     1
   4592   4594     1
   4592   4595     1
   4595   4596     1
   4595   4597     1
   4597   4599     1
   4601   4607     1
   4601   4608     1
   4602   4605     1
   4602   4604     1
   4602   4606     1
   4604   4609     1
   4604   4607     1
   4604   4608     1
   4605   4619     1
   4605   4620     1
   4605   4612     1
   4605   4614     1
   4606   4609     1
   4606   4607     1
   4606   4608     1
   4607   4610     1
   4607   4611     1
   4608   4610     1
   4608   4611     1
   4609   4622     1
   4609   4623     1
   4609   4615     1
   4609   4616     1
   4610   4612     1
   4610   4614     1
   4611   4619     1
   4611   4620     1
   4612   4617     1
   4612   4615     1
   4612   4616     1
   4613   4639     1
   4614   4617     1
   4614   4615     1
   4614   4616     1
   4615   4618     1
   4615   4649     1
   4616   4618     1
   4616   4649     1
   4617   4632     1
   4618   4639     1
   4619   4624     1
   4619   4622     1
   4619   4623     1
   4620   4624     1
   4620   4622     1
   4620   4623     1
   4621   4663     1
   4622   4625     1
   4622   4673     1
   4623   4625     1
   4623   4673     1
   4624   4656     1
   4625   4663     1
   4626   4633     1
   4626   4648     1
   4626   4643     1
   4626   4634     1
   4627   4640     1
   4627   4641     1
   4627   4632     1
   4627   4638     1
   4628   4629     1
   4628   4647     1
   4628   4646     1
   4628   4642     1
   4628   4640     1
   4628   4641     1
   4628   4631     1
   4629   4648     1
   4629   4634     1
   4629   4639     1
   4630   4646     1
   4630   4638     1
   4630   4645     1
   4631   4633     1
   4631   4639     1
   4632   4636     1
   4632   4633     1
   4632   4635     1
   4632   4644     1
   4632   4634     1
   4632   4639     1
   4633   4647     1
   4633   4646     1
   4633   4649     1
   4633   4638     1
   4634   4649     1
   4634   4645     1
   4636   4646     1
   4637   4646     1
   4640   4644     1
   4640   4643     1
   4641   4644     1
   4641   4643     1
   4644   4646     1
   4644   4645     1
   4646   4648     1
   4650   4657     1
   4650   4672     1
   4650   4667     1
   4650   4658     1
   4651   4664     1
   4651   4665     1
   4651   4656     1
   4651   4662     1
   4652   4653     1
   4652   4671     1
   4652   4670     1
   4652   4666     1
   4652   4664     1
   4652   4665     1
   4652   4655     1
   4653   4672     1
   4653   4658     1
   4653   4663     1
   4654   4670     1
   4654   4662     1
   4654   4669     1
   4655   4657     1
   4655   4663     1
   4656   4660     1
   4656   4657     1
   4656   4659     1
   4656   4668     1
   4656   4658     1
   4656   4663     1
   4657   4671     1
   4657   4670     1
   4657   4673     1
   4657   4662     1
   4658   4673     1
   4658   4669     1
   4660   4670     1
   4661   4670     1
   4664   4668     1
   4664   4667     1
   4665   4668     1
   4665   4667     1
   4668   4670     1
   4668   4669     1
   4670   4672     1
   4674   4680     1
   4674   4681     1
   4675   4678     1
   4675   4677     1
   4675   4679     1
   4677   4682     1
   4677   4680     1
   4677   4681     1
   4678   4692     1
   4678   4693     1
   4678   4685     1
   4678   4687     1
   4679   4682     1
   4679   4680     1
   4679   4681     1
   4680   4683     1
   4680   4684     1
   4681   4683     1
   4681   4684     1
   4682   4695     1
   4682   4696     1
   4682   4688     1
   4682   4689     1
   4683   4685     1
   4683   4687     1
   4684   4692     1
   4684   4693     1
   4685   4690     1
   4685   4688     1
   4685   4689     1
   4686   4712     1
   4687   4690     1
   4687   4688     1
   4687   4689     1
   4688   4691     1
   4688   4722     1
   4689   4691     1
   4689   4722     1
   4690   4705     1
   4691   4712     1
   4692   4697     1
   4692   4695     1
   4692   4696     1
   4693   4697     1
   4693   4695     1
   4693   4696     1
   4694   4736     1
   4695   4698     1
   4695   4746     1
   4696   4698     1
   4696   4746     1
   4697   4729     1
   4698   4736     1
   4699   4706     1
   4699   4721     1
   4699   4716     1
   4699   4707     1
   4700   4705     1
   4700   4711     1
   4700   4713     1
   4700   4714     1
   4701   4702     1
   4701   4720     1
   4701   4719     1
   4701   4715     1
   4701   4713     1
   4701   4714     1
   4701   4704     1
   4702   4707     1
   4702   4712     1
   4702   4721     1
   4703   4718     1
   4703   4711     1
   4703   4719     1
   4704   4712     1
   4704   4706     1
   4705   4708     1
   4705   4717     1
   4705   4707     1
   4705   4712     1
   4705   4709     1
   4705   4706     1
   4706   4722     1
   4706   4711     1
   4706   4720     1
   4706   4719     1
   4707   4718     1
   4707   4722     1
   4709   4719     1
   4710   4719     1
   4713   4716     1
   4713   4717     1
   4714   4716     1
   4714   4717     1
   4717   4718     1
   4717   4719     1
   4719   4721     1
   4723   4730     1
   4723   4745     1
   4723   4740     1
   4723   4731     1
   4724   4729     1
   4724   4735     1
   4724   4737     1
   4724   4738     1
   4725   4726     1
   4725   4744     1
   4725   4743     1
   4725   4739     1
   4725   4737     1
   4725   4738     1
   4725   4728     1
   4726   4731     1
   4726   4736     1
   4726   4745     1
   4727   4742     1
   4727   4735     1
   4727   4743     1
   4728   4736     1
   4728   4730     1
   4729   4732     1
   4729   4741     1
   4729   4731     1
   4729   4736     1
   4729   4733     1
   4729   4730     1
   4730   4746     1
   4730   4735     1
   4730   4744     1
   4730   4743     1
   4731   4742     1
   4731   4746     1
   4733   4743     1
   4734   4743     1
   4737   4740     1
   4737   4741     1
   4738   4740     1
   4738   4741     1
   4741   4742     1
   4741   4743     1
   4743   4745     1
   4747   4753     1
   4747   4754     1
   4748   4751     1
   4748   4750     1
   4748   4752     1
   4750   4755     1
   4750   4753     1
   4750   4754     1
   4751   4765     1
   4751   4766     1
   4751   4758     1
   4751   4760     1
   4752   4755     1
   4752   4753     1
   4752   4754     1
   4753   4756     1
   4753   4757     1
   4754   4756     1
   4754   4757     1
   4755   4768     1
   4755   4769     1
   4755   4761     1
   4755   4762     1
   4756   4758     1
   4756   4760     1
   4757   4765     1
   4757   4766     1
   4758   4763     1
   4758   4761     1
   4758   4762     1
   4759   4785     1
   4760   4763     1
   4760   4761     1
   4760   4762     1
   4761   4764     1
   4761   4795     1
   4762   4764     1
   4762   4795     1
   4763   4778     1
   4764   4785     1
   4765   4770     1
   4765   4768     1
   4765   4769     1
   4766   4770     1
   4766   4768     1
   4766   4769     1
   4767   4809     1
   4768   4771     1
   4768   4819     1
   4769   4771     1
   4769   4819     1
   4770   4802     1
   4771   4809     1
   4772   4779     1
   4772   4794     1
   4772   4789     1
   4772   4780     1
   4773   4786     1
   4773   4787     1
   4773   4778     1
   4773   4784     1
   4774   4775     1
   4774   4793     1
   4774   4792     1
   4774   4788     1
   4774   4786     1
   4774   4787     1
   4774   4777     1
   4775   4794     1
   4775   4780     1
   4775   4785     1
   4776   4792     1
   4776   4784     1
   4776   4791     1
   4777   4779     1
   4777   4785     1
   4778   4782     1
   4778   4779     1
   4778   4781     1
   4778   4790     1
   4778   4780     1
   4778   4785     1
   4779   4793     1
   4779   4792     1
   4779   4795     1
   4779   4784     1
   4780   4795     1
   4780   4791     1
   4782   4792     1
   4783   4792     1
   4786   4790     1
   4786   4789     1
   4787   4790     1
   4787   4789     1
   4790   4792     1
   4790   4791     1
   4792   4794     1
   4796   4803     1
   4796   4818     1
   4796   4813     1
   4796   4804     1
   4797   4810     1
   4797   4811     1
   4797   4802     1
   4797   4808     1
   4798   4799     1
   4798   4817     1
   4798   4816     1
   4798   4812     1
   4798   4810     1
   4798   4811     1
   4798   4801     1
   4799   4818     1
   4799   4804     1
   4799   4809     1
   4800   4816     1
   4800   4808     1
   4800   4815     1
   4801   4803     1
   4801   4809     1
   4802   4806     1
   4802   4803     1
   4802   4805     1
   4802   4814     1
   4802   4804     1
   4802   4809     1
   4803   4817     1
   4803   4816     1
   4803   4819     1
   4803   4808     1
   4804   4819     1
   4804   4815     1
   4806   4816     1
   4807   4816     1
   4810   4814     1
   4810   4813     1
   4811   4814     1
   4811   4813     1
   4814   4816     1
   4814   4815     1
   4816   4818     1
   4820   4826     1
   4820   4827     1
   4821   4824     1
   4821   4823     1
   4821   4825     1
   4823   4828     1
   4823   4826     1
   4823   4827     1
   4824   4838     1
   4824   4839     1
   4824   4831     1
   4824   4833     1
   4825   4828     1
   4825   4826     1
   4825   4827     1
   4826   4829     1
   4826   4830     1
   4827   4829     1
   4827   4830     1
   4828   4841     1
   4828   4842     1
   4828   4834     1
   4828   4835     1
   4829   4831     1
   4829   4833     1
   4830   4838     1
   4830   4839     1
   4831   4836     1
   4831   4834     1
   4831   4835     1
   4832   4858     1
   4833   4836     1
   4833   4834     1
   4833   4835     1
   4834   4837     1
   4834   4868     1
   4835   4837     1
   4835   4868     1
   4836   4851     1
   4837   4858     1
   4838   4843     1
   4838   4841     1
   4838   4842     1
   4839   4843     1
   4839   4841     1
   4839   4842     1
   4840   4882     1
   4841   4844     1
   4841   4892     1
   4842   4844     1
   4842   4892     1
   4843   4875     1
   4844   4882     1
   4845   4852     1
   4845   4867     1
   4845   4862     1
   4845   4853     1
   4846   4851     1
   4846   4857     1
   4846   4859     1
   4846   4860     1
   4847   4848     1
   4847   4866     1
   4847   4865     1
   4847   4861     1
   4847   4859     1
   4847   4860     1
   4847   4850     1
   4848   4853     1
   4848   4858     1
   4848   4867     1
   4849   4864     1
   4849   4857     1
   4849   4865     1
   4850   4858     1
   4850   4852     1
   4851   4854     1
   4851   4863     1
   4851   4853     1
   4851   4858     1
   4851   4855     1
   4851   4852     1
   4852   4868     1
   4852   4857     1
   4852   4866     1
   4852   4865     1
   4853   4864     1
   4853   4868     1
   4855   4865     1
   4856   4865     1
   4859   4862     1
   4859   4863     1
   4860   4862     1
   4860   4863     1
   4863   4864     1
   4863   4865     1
   4865   4867     1
   4869   4876     1
   4869   4891     1
   4869   4886     1
   4869   4877     1
   4870   4875     1
   4870   4881     1
   4870   4883     1
   4870   4884     1
   4871   4872     1
   4871   4890     1
   4871   4889     1
   4871   4885     1
   4871   4883     1
   4871   4884     1
   4871   4874     1
   4872   4877     1
   4872   4882     1
   4872   4891     1
   4873   4888     1
   4873   4881     1
   4873   4889     1
   4874   4882     1
   4874   4876     1
   4875   4878     1
   4875   4887     1
   4875   4877     1
   4875   4882     1
   4875   4879     1
   4875   4876     1
   4876   4892     1
   4876   4881     1
   4876   4890     1
   4876   4889     1
   4877   4888     1
   4877   4892     1
   4879   4889     1
   4880   4889     1
   4883   4886     1
   4883   4887     1
   4884   4886     1
   4884   4887     1
   4887   4888     1
   4887   4889     1
   4889   4891     1
   4893   4899     1
   4893   4900     1
   4894   4897     1
   4894   4896     1
   4894   4898     1
   4896   4901     1
   4896   4899     1
   4896   4900     1
   4897   4911     1
   4897   4912     1
   4897   4904     1
   4897   4906     1
   4898   4901     1
   4898   4899     1
   4898   4900     1
   4899   4902     1
   4899   4903     1
   4900   4902     1
   4900   4903     1
   4901   4914     1
   4901   4915     1
   4901   4907     1
   4901   4908     1
   4902   4904     1
   4902   4906     1
   4903   4911     1
   4903   4912     1
   4904   4909     1
   4904   4907     1
   4904   4908     1
   4905   4931     1
   4906   4909     1
   4906   4907     1
   4906   4908     1
   4907   4910     1
   4907   4941     1
   4908   4910     1
   4908   4941     1
   4909   4924     1
   4910   4931     1
   4911   4916     1
   4911   4914     1
   4911   4915     1
   4912   4916     1
   4912   4914     1
   4912   4915     1
   4913   4955     1
   4914   4917     1
   4914   4965     1
   4915   4917     1
   4915   4965     1
   4916   4948     1
   4917   4955     1
   4918   4925     1
   4918   4940     1
   4918   4935     1
   4918   4926     1
   4919   4932     1
   4919   4933     1
   4919   4924     1
   4919   4930     1
   4920   4921     1
   4920   4939     1
   4920   4938     1
   4920   4934     1
   4920   4932     1
   4920   4933     1
   4920   4923     1
   4921   4940     1
   4921   4926     1
   4921   4931     1
   4922   4938     1
   4922   4930     1
   4922   4937     1
   4923   4925     1
   4923   4931     1
   4924   4928     1
   4924   4925     1
   4924   4927     1
   4924   4936     1
   4924   4926     1
   4924   4931     1
   4925   4939     1
   4925   4938     1
   4925   4941     1
   4925   4930     1
   4926   4941     1
   4926   4937     1
   4928   4938     1
   4929   4938     1
   4932   4936     1
   4932   4935     1
   4933   4936     1
   4933   4935     1
   4936   4938     1
   4936   4937     1
   4938   4940     1
   4942   4949     1
   4942   4964     1
   4942   4959     1
   4942   4950     1
   4943   4956     1
   4943   4957     1
   4943   4948     1
   4943   4954     1
   4944   4945     1
   4944   4963     1
   4944   4962     1
   4944   4958     1
   4944   4956     1
   4944   4957     1
   4944   4947     1
   4945   4964     1
   4945   4950     1
   4945   4955     1
   4946   4962     1
   4946   4954     1
   4946   4961     1
   4947   4949     1
   4947   4955     1
   4948   4952     1
   4948   4949     1
   4948   4951     1
   4948   4960     1
   4948   4950     1
   4948   4955     1
   4949   4963     1
   4949   4962     1
   4949   4965     1
   4949   4954     1
   4950   4965     1
   4950   4961     1
   4952   4962     1
   4953   4962     1
   4956   4960     1
   4956   4959     1
   4957   4960     1
   4957   4959     1
   4960   4962     1
   4960   4961     1
   4962   4964     1
   4966   4972     1
   4966   4973     1
   4967   4970     1
   4967   4969     1
   4967   4971     1
   4969   4974     1
   4969   4972     1
   4969   4973     1
   4970   4984     1
   4970   4985     1
   4970   4977     1
   4970   4979     1
   4971   4974     1
   4971   4972     1
   4971   4973     1
   4972   4975     1
   4972   4976     1
   4973   4975     1
   4973   4976     1
   4974   4987     1
   4974   4988     1
   4974   4980     1
   4974   4981     1
   4975   4977     1
   4975   4979     1
   4976   4984     1
   4976   4985     1
   4977   4982     1
   4977   4980     1
   4977   4981     1
   4978   5004     1
   4979   4982     1
   4979   4980     1
   4979   4981     1
   4980   4983     1
   4980   5014     1
   4981   4983     1
   4981   5014     1
   4982   4997     1
   4983   5004     1
   4984   4989     1
   4984   4987     1
   4984   4988     1
   4985   4989     1
   4985   4987     1
   4985   4988     1
   4986   5028     1
   4987   4990     1
   4987   5038     1
   4988   4990     1
   4988   5038     1
   4989   5021     1
   4990   5028     1
   4991   4998     1
   4991   5013     1
   4991   5008     1
   4991   4999     1
   4992   4997     1
   4992   5003     1
   4992   5005     1
   4992   5006     1
   4993   4994     1
   4993   5012     1
   4993   5011     1
   4993   5007     1
   4993   5005     1
   4993   5006     1
   4993   4996     1
   4994   4999     1
   4994   5004     1
   4994   5013     1
   4995   5010     1
   4995   5003     1
   4995   5011     1
   4996   5004     1
   4996   4998     1
   4997   5000     1
   4997   5009     1
   4997   4999     1
   4997   5004     1
   4997   5001     1
   4997   4998     1
   4998   5014     1
   4998   5003     1
   4998   5012     1
   4998   5011     1
   4999   5010     1
   4999   5014     1
   5001   5011     1
   5002   5011     1
   5005   5008     1
   5005   5009     1
   5006   5008     1
   5006   5009     1
   5009   5010     1
   5009   5011     1
   5011   5013     1
   5015   5022     1
   5015   5037     1
   5015   5032     1
   5015   5023     1
   5016   5021     1
   5016   5027     1
   5016   5029     1
   5016   5030     1
   5017   5018     1
   5017   5036     1
   5017   5035     1
   5017   5031     1
   5017   5029     1
   5017   5030     1
   5017   5020     1
   5018   5023     1
   5018   5028     1
   5018   5037     1
   5019   5034     1
   5019   5027     1
   5019   5035     1
   5020   5028     1
   5020   5022     1
   5021   5024     1
   5021   5033     1
   5021   5023     1
   5021   5028     1
   5021   5025     1
   5021   5022     1
   5022   5038     1
   5022   5027     1
   5022   5036     1
   5022   5035     1
   5023   5034     1
   5023   5038     1
   5025   5035     1
   5026   5035     1
   5029   5032     1
   5029   5033     1
   5030   5032     1
   5030   5033     1
   5033   5034     1
   5033   5035     1
   5035   5037     1
   5039   5045     1
   5039   5046     1
   5040   5043     1
   5040   5042     1
   5040   5044     1
   5042   5047     1
   5042   5045     1
   5042   5046     1
   5043   5057     1
   5043   5058     1
   5043   5050     1
   5043   5052     1
   5044   5047     1
   5044   5045     1
   5044   5046     1
   5045   5048     1
   5045   5049     1
   5046   5048     1
   5046   5049     1
   5047   5060     1
   5047   5061     1
   5047   5053     1
   5047   5054     1
   5048   5050     1
   5048   5052     1
   5049   5057     1
   5049   5058     1
   5050   5055     1
   5050   5053     1
   5050   5054     1
   5051   5077     1
   5052   5055     1
   5052   5053     1
   5052   5054     1
   5053   5056     1
   5053   5087     1
   5054   5056     1
   5054   5087     1
   5055   5070     1
   5056   5077     1
   5057   5062     1
   5057   5060     1
   5057   5061     1
   5058   5062     1
   5058   5060     1
   5058   5061     1
   5059   5101     1
   5060   5063     1
   5060   5111     1
   5061   5063     1
   5061   5111     1
   5062   5094     1
   5063   5101     1
   5064   5071     1
   5064   5086     1
   5064   5081     1
   5064   5072     1
   5065   5078     1
   5065   5079     1
   5065   5070     1
   5065   5076     1
   5066   5067     1
   5066   5085     1
   5066   5084     1
   5066   5080     1
   5066   5078     1
   5066   5079     1
   5066   5069     1
   5067   5086     1
   5067   5072     1
   5067   5077     1
   5068   5084     1
   5068   5076     1
   5068   5083     1
   5069   5071     1
   5069   5077     1
   5070   5074     1
   5070   5071     1
   5070   5073     1
   5070   5082     1
   5070   5072     1
   5070   5077     1
   5071   5085     1
   5071   5084     1
   5071   5087     1
   5071   5076     1
   5072   5087     1
   5072   5083     1
   5074   5084     1
   5075   5084     1
   5078   5082     1
   5078   5081     1
   5079   5082     1
   5079   5081     1
   5082   5084     1
   5082   5083     1
   5084   5086     1
   5088   5095     1
   5088   5110     1
   5088   5105     1
   5088   5096     1
   5089   5102     1
   5089   5103     1
   5089   5094     1
   5089   5100     1
   5090   5091     1
   5090   5109     1
   5090   5108     1
   5090   5104     1
   5090   5102     1
   5090   5103     1
   5090   5093     1
   5091   5110     1
   5091   5096     1
   5091   5101     1
   5092   5108     1
   5092   5100     1
   5092   5107     1
   5093   5095     1
   5093   5101     1
   5094   5098     1
   5094   5095     1
   5094   5097     1
   5094   5106     1
   5094   5096     1
   5094   5101     1
   5095   5109     1
   5095   5108     1
   5095   5111     1
   5095   5100     1
   5096   5111     1
   5096   5107     1
   5098   5108     1
   5099   5108     1
   5102   5106     1
   5102   5105     1
   5103   5106     1
   5103   5105     1
   5106   5108     1
   5106   5107     1
   5108   5110     1
   5112   5118     1
   5112   5119     1
   5113   5116     1
   5113   5115     1
   5113   5117     1
   5115   5120     1
   5115   5118     1
   5115   5119     1
   5116   5130     1
   5116   5131     1
   5116   5123     1
   5116   5125     1
   5117   5120     1
   5117   5118     1
   5117   5119     1
   5118   5121     1
   5118   5122     1
   5119   5121     1
   5119   5122     1
   5120   5133     1
   5120   5134     1
   5120   5126     1
   5120   5127     1
   5121   5123     1
   5121   5125     1
   5122   5130     1
   5122   5131     1
   5123   5128     1
   5123   5126     1
   5123   5127     1
   5124   5150     1
   5125   5128     1
   5125   5126     1
   5125   5127     1
   5126   5129     1
   5126   5160     1
   5127   5129     1
   5127   5160     1
   5128   5143     1
   5129   5150     1
   5130   5135     1
   5130   5133     1
   5130   5134     1
   5131   5135     1
   5131   5133     1
   5131   5134     1
   5132   5174     1
   5133   5136     1
   5133   5184     1
   5134   5136     1
   5134   5184     1
   5135   5167     1
   5136   5174     1
   5137   5144     1
   5137   5159     1
   5137   5154     1
   5137   5145     1
   5138   5143     1
   5138   5149     1
   5138   5151     1
   5138   5152     1
   5139   5140     1
   5139   5158     1
   5139   5157     1
   5139   5153     1
   5139   5151     1
   5139   5152     1
   5139   5142     1
   5140   5145     1
   5140   5150     1
   5140   5159     1
   5141   5156     1
   5141   5149     1
   5141   5157     1
   5142   5150     1
   5142   5144     1
   5143   5146     1
   5143   5155     1
   5143   5145     1
   5143   5150     1
   5143   5147     1
   5143   5144     1
   5144   5160     1
   5144   5149     1
   5144   5158     1
   5144   5157     1
   5145   5156     1
   5145   5160     1
   5147   5157     1
   5148   5157     1
   5151   5154     1
   5151   5155     1
   5152   5154     1
   5152   5155     1
   5155   5156     1
   5155   5157     1
   5157   5159     1
   5161   5168     1
   5161   5183     1
   5161   5178     1
   5161   5169     1
   5162   5167     1
   5162   5173     1
   5162   5175     1
   5162   5176     1
   5163   5164     1
   5163   5182     1
   5163   5181     1
   5163   5177     1
   5163   5175     1
   5163   5176     1
   5163   5166     1
   5164   5169     1
   5164   5174     1
   5164   5183     1
   5165   5180     1
   5165   5173     1
   5165   5181     1
   5166   5174     1
   5166   5168     1
   5167   5170     1
   5167   5179     1
   5167   5169     1
   5167   5174     1
   5167   5171     1
   5167   5168     1
   5168   5184     1
   5168   5173     1
   5168   5182     1
   5168   5181     1
   5169   5180     1
   5169   5184     1
   5171   5181     1
   5172   5181     1
   5175   5178     1
   5175   5179     1
   5176   5178     1
   5176   5179     1
   5179   5180     1
   5179   5181     1
   5181   5183     1
   5185   5191     1
   5185   5192     1
   5186   5189     1
   5186   5188     1
   5186   5190     1
   5188   5193     1
   5188   5191     1
   5188   5192     1
   5189   5203     1
   5189   5204     1
   5189   5196     1
   5189   5198     1
   5190   5193     1
   5190   5191     1
   5190   5192     1
   5191   5194     1
   5191   5195     1
   5192   5194     1
   5192   5195     1
   5193   5206     1
   5193   5207     1
   5193   5199     1
   5193   5200     1
   5194   5196     1
   5194   5198     1
   5195   5203     1
   5195   5204     1
   5196   5201     1
   5196   5199     1
   5196   5200     1
   5197   5223     1
   5198   5201     1
   5198   5199     1
   5198   5200     1
   5199   5202     1
   5199   5233     1
   5200   5202     1
   5200   5233     1
   5201   5216     1
   5202   5223     1
   5203   5208     1
   5203   5206     1
   5203   5207     1
   5204   5208     1
   5204   5206     1
   5204   5207     1
   5205   5247     1
   5206   5209     1
   5206   5257     1
   5207   5209     1
   5207   5257     1
   5208   5240     1
   5209   5247     1
   5210   5217     1
   5210   5232     1
   5210   5227     1
   5210   5218     1
   5211   5224     1
   5211   5225     1
   5211   5216     1
   5211   5222     1
   5212   5213     1
   5212   5231     1
   5212   5230     1
   5212   5226     1
   5212   5224     1
   5212   5225     1
   5212   5215     1
   5213   5232     1
   5213   5218     1
   5213   5223     1
   5214   5230     1
   5214   5222     1
   5214   5229     1
   5215   5217     1
   5215   5223     1
   5216   5220     1
   5216   5217     1
   5216   5219     1
   5216   5228     1
   5216   5218     1
   5216   5223     1
   5217   5231     1
   5217   5230     1
   5217   5233     1
   5217   5222     1
   5218   5233     1
   5218   5229     1
   5220   5230     1
   5221   5230     1
   5224   5228     1
   5224   5227     1
   5225   5228     1
   5225   5227     1
   5228   5230     1
   5228   5229     1
   5230   5232     1
   5234   5241     1
   5234   5256     1
   5234   5251     1
   5234   5242     1
   5235   5248     1
   5235   5249     1
   5235   5240     1
   5235   5246     1
   5236   5237     1
   5236   5255     1
   5236   5254     1
   5236   5250     1
   5236   5248     1
   5236   5249     1
   5236   5239     1
   5237   5256     1
   5237   5242     1
   5237   5247     1
   5238   5254     1
   5238   5246     1
   5238   5253     1
   5239   5241     1
   5239   5247     1
   5240   5244     1
   5240   5241     1
   5240   5243     1
   5240   5252     1
   5240   5242     1
   5240   5247     1
   5241   5255     1
   5241   5254     1
   5241   5257     1
   5241   5246     1
   5242   5257     1
   5242   5253     1
   5244   5254     1
   5245   5254     1
   5248   5252     1
   5248   5251     1
   5249   5252     1
   5249   5251     1
   5252   5254     1
   5252   5253     1
   5254   5256     1
   5258   5264     1
   5258   5265     1
   5259   5262     1
   5259   5261     1
   5259   5263     1
   5261   5266     1
   5261   5264     1
   5261   5265     1
   5262   5276     1
   5262   5277     1
   5262   5269     1
   5262   5271     1
   5263   5266     1
   5263   5264     1
   5263   5265     1
   5264   5267     1
   5264   5268     1
   5265   5267     1
   5265   5268     1
   5266   5279     1
   5266   5280     1
   5266   5272     1
   5266   5273     1
   5267   5269     1
   5267   5271     1
   5268   5276     1
   5268   5277     1
   5269   5274     1
   5269   5272     1
   5269   5273     1
   5270   5296     1
   5271   5274     1
   5271   5272     1
   5271   5273     1
   5272   5275     1
   5272   5306     1
   5273   5275     1
   5273   5306     1
   5274   5289     1
   5275   5296     1
   5276   5281     1
   5276   5279     1
   5276   5280     1
   5277   5281     1
   5277   5279     1
   5277   5280     1
   5278   5320     1
   5279   5282     1
   5279   5330     1
   5280   5282     1
   5280   5330     1
   5281   5313     1
   5282   5320     1
   5283   5290     1
   5283   5305     1
   5283   5300     1
   5283   5291     1
   5284   5289     1
   5284   5295     1
   5284   5297     1
   5284   5298     1
   5285   5286     1
   5285   5304     1
   5285   5303     1
   5285   5299     1
   5285   5297     1
   5285   5298     1
   5285   5288     1
   5286   5291     1
   5286   5296     1
   5286   5305     1
   5287   5302     1
   5287   5295     1
   5287   5303     1
   5288   5296     1
   5288   5290     1
   5289   5292     1
   5289   5301     1
   5289   5291     1
   5289   5296     1
   5289   5293     1
   5289   5290     1
   5290   5306     1
   5290   5295     1
   5290   5304     1
   5290   5303     1
   5291   5302     1
   5291   5306     1
   5293   5303     1
   5294   5303     1
   5297   5300     1
   5297   5301     1
   5298   5300     1
   5298   5301     1
   5301   5302     1
   5301   5303     1
   5303   5305     1
   5307   5314     1
   5307   5329     1
   5307   5324     1
   5307   5315     1
   5308   5313     1
   5308   5319     1
   5308   5321     1
   5308   5322     1
   5309   5310     1
   5309   5328     1
   5309   5327     1
   5309   5323     1
   5309   5321     1
   5309   5322     1
   5309   5312     1
   5310   5315     1
   5310   5320     1
   5310   5329     1
   5311   5326     1
   5311   5319     1
   5311   5327     1
   5312   5320     1
   5312   5314     1
   5313   5316     1
   5313   5325     1
   5313   5315     1
   5313   5320     1
   5313   5317     1
   5313   5314     1
   5314   5330     1
   5314   5319     1
   5314   5328     1
   5314   5327     1
   5315   5326     1
   5315   5330     1
   5317   5327     1
   5318   5327     1
   5321   5324     1
   5321   5325     1
   5322   5324     1
   5322   5325     1
   5325   5326     1
   5325   5327     1
   5327   5329     1
   5331   5337     1
   5331   5338     1
   5332   5335     1
   5332   5334     1
   5332   5336     1
   5334   5339     1
   5334   5337     1
   5334   5338     1
   5335   5349     1
   5335   5350     1
   5335   5342     1
   5335   5344     1
   5336   5339     1
   5336   5337     1
   5336   5338     1
   5337   5340     1
   5337   5341     1
   5338   5340     1
   5338   5341     1
   5339   5352     1
   5339   5353     1
   5339   5345     1
   5339   5346     1
   5340   5342     1
   5340   5344     1
   5341   5349     1
   5341   5350     1
   5342   5347     1
   5342   5345     1
   5342   5346     1
   5343   5369     1
   5344   5347     1
   5344   5345     1
   5344   5346     1
   5345   5348     1
   5345   5379     1
   5346   5348     1
   5346   5379     1
   5347   5362     1
   5348   5369     1
   5349   5354     1
   5349   5352     1
   5349   5353     1
   5350   5354     1
   5350   5352     1
   5350   5353     1
   5351   5393     1
   5352   5355     1
   5352   5403     1
   5353   5355     1
   5353   5403     1
   5354   5386     1
   5355   5393     1
   5356   5363     1
   5356   5378     1
   5356   5373     1
   5356   5364     1
   5357   5370     1
   5357   5371     1
   5357   5362     1
   5357   5368     1
   5358   5359     1
   5358   5377     1
   5358   5376     1
   5358   5372     1
   5358   5370     1
   5358   5371     1
   5358   5361     1
   5359   5378     1
   5359   5364     1
   5359   5369     1
   5360   5376     1
   5360   5368     1
   5360   5375     1
   5361   5363     1
   5361   5369     1
   5362   5366     1
   5362   5363     1
   5362   5365     1
   5362   5374     1
   5362   5364     1
   5362   5369     1
   5363   5377     1
   5363   5376     1
   5363   5379     1
   5363   5368     1
   5364   5379     1
   5364   5375     1
   5366   5376     1
   5367   5376     1
   5370   5374     1
   5370   5373     1
   5371   5374     1
   5371   5373     1
   5374   5376     1
   5374   5375     1
   5376   5378     1
   5380   5387     1
   5380   5402     1
   5380   5397     1
   5380   5388     1
   5381   5394     1
   5381   5395     1
   5381   5386     1
   5381   5392     1
   5382   5383     1
   5382   5401     1
   5382   5400     1
   5382   5396     1
   5382   5394     1
   5382   5395     1
   5382   5385     1
   5383   5402     1
   5383   5388     1
   5383   5393     1
   5384   5400     1
   5384   5392     1
   5384   5399     1
   5385   5387     1
   5385   5393     1
   5386   5390     1
   5386   5387     1
   5386   5389     1
   5386   5398     1
   5386   5388     1
   5386   5393     1
   5387   5401     1
   5387   5400     1
   5387   5403     1
   5387   5392     1
   5388   5403     1
   5388   5399     1
   5390   5400     1
   5391   5400     1
   5394   5398     1
   5394   5397     1
   5395   5398     1
   5395   5397     1
   5398   5400     1
   5398   5399     1
   5400   5402     1
   5404   5410     1
   5404   5411     1
   5405   5408     1
   5405   5407     1
   5405   5409     1
   5407   5412     1
   5407   5410     1
   5407   5411     1
   5408   5422     1
   5408   5423     1
   5408   5415     1
   5408   5417     1
   5409   5412     1
   5409   5410     1
   5409   5411     1
   5410   5413     1
   5410   5414     1
   5411   5413     1
   5411   5414     1
   5412   5425     1
   5412   5426     1
   5412   5418     1
   5412   5419     1
   5413   5415     1
   5413   5417     1
   5414   5422     1
   5414   5423     1
   5415   5420     1
   5415   5418     1
   5415   5419     1
   5416   5442     1
   5417   5420     1
   5417   5418     1
   5417   5419     1
   5418   5421     1
   5418   5452     1
   5419   5421     1
   5419   5452     1
   5420   5435     1
   5421   5442     1
   5422   5427     1
   5422   5425     1
   5422   5426     1
   5423   5427     1
   5423   5425     1
   5423   5426     1
   5424   5466     1
   5425   5428     1
   5425   5476     1
   5426   5428     1
   5426   5476     1
   5427   5459     1
   5428   5466     1
   5429   5436     1
   5429   5451     1
   5429   5446     1
   5429   5437     1
   5430   5435     1
   5430   5441     1
   5430   5443     1
   5430   5444     1
   5431   5432     1
   5431   5450     1
   5431   5449     1
   5431   5445     1
   5431   5443     1
   5431   5444     1
   5431   5434     1
   5432   5437     1
   5432   5442     1
   5432   5451     1
   5433   5448     1
   5433   5441     1
   5433   5449     1
   5434   5442     1
   5434   5436     1
   5435   5438     1
   5435   5447     1
   5435   5437     1
   5435   5442     1
   5435   5439     1
   5435   5436     1
   5436   5452     1
   5436   5441     1
   5436   5450     1
   5436   5449     1
   5437   5448     1
   5437   5452     1
   5439   5449     1
   5440   5449     1
   5443   5446     1
   5443   5447     1
   5444   5446     1
   5444   5447     1
   5447   5448     1
   5447   5449     1
   5449   5451     1
   5453   5460     1
   5453   5475     1
   5453   5470     1
   5453   5461     1
   5454   5459     1
   5454   5465     1
   5454   5467     1
   5454   5468     1
   5455   5456     1
   5455   5474     1
   5455   5473     1
   5455   5469     1
   5455   5467     1
   5455   5468     1
   5455   5458     1
   5456   5461     1
   5456   5466     1
   5456   5475     1
   5457   5472     1
   5457   5465     1
   5457   5473     1
   5458   5466     1
   5458   5460     1
   5459   5462     1
   5459   5471     1
   5459   5461     1
   5459   5466     1
   5459   5463     1
   5459   5460     1
   5460   5476     1
   5460   5465     1
   5460   5474     1
   5460   5473     1
   5461   5472     1
   5461   5476     1
   5463   5473     1
   5464   5473     1
   5467   5470     1
   5467   5471     1
   5468   5470     1
   5468   5471     1
   5471   5472     1
   5471   5473     1
   5473   5475     1
   5477   5483     1
   5477   5484     1
   5478   5481     1
   5478   5480     1
   5478   5482     1
   5480   5485     1
   5480   5483     1
   5480   5484     1
   5481   5495     1
   5481   5496     1
   5481   5488     1
   5481   5490     1
   5482   5485     1
   5482   5483     1
   5482   5484     1
   5483   5486     1
   5483   5487     1
   5484   5486     1
   5484   5487     1
   5485   5498     1
   5485   5499     1
   5485   5491     1
   5485   5492     1
   5486   5488     1
   5486   5490     1
   5487   5495     1
   5487   5496     1
   5488   5493     1
   5488   5491     1
   5488   5492     1
   5489   5515     1
   5490   5493     1
   5490   5491     1
   5490   5492     1
   5491   5494     1
   5491   5525     1
   5492   5494     1
   5492   5525     1
   5493   5508     1
   5494   5515     1
   5495   5500     1
   5495   5498     1
   5495   5499     1
   5496   5500     1
   5496   5498     1
   5496   5499     1
   5497   5539     1
   5498   5501     1
   5498   5549     1
   5499   5501     1
   5499   5549     1
   5500   5532     1
   5501   5539     1
   5502   5509     1
   5502   5524     1
   5502   5519     1
   5502   5510     1
   5503   5516     1
   5503   5517     1
   5503   5508     1
   5503   5514     1
   5504   5505     1
   5504   5523     1
   5504   5522     1
   5504   5518     1
   5504   5516     1
   5504   5517     1
   5504   5507     1
   5505   5524     1
   5505   5510     1
   5505   5515     1
   5506   5522     1
   5506   5514     1
   5506   5521     1
   5507   5509     1
   5507   5515     1
   5508   5512     1
   5508   5509     1
   5508   5511     1
   5508   5520     1
   5508   5510     1
   5508   5515     1
   5509   5523     1
   5509   5522     1
   5509   5525     1
   5509   5514     1
   5510   5525     1
   5510   5521     1
   5512   5522     1
   5513   5522     1
   5516   5520     1
   5516   5519     1
   5517   5520     1
   5517   5519     1
   5520   5522     1
   5520   5521     1
   5522   5524     1
   5526   5533     1
   5526   5548     1
   5526   5543     1
   5526   5534     1
   5527   5540     1
   5527   5541     1
   5527   5532     1
   5527   5538     1
   5528   5529     1
   5528   5547     1
   5528   5546     1
   5528   5542     1
   5528   5540     1
   5528   5541     1
   5528   5531     1
   5529   5548     1
   5529   5534     1
   5529   5539     1
   5530   5546     1
   5530   5538     1
   5530   5545     1
   5531   5533     1
   5531   5539     1
   5532   5536     1
   5532   5533     1
   5532   5535     1
   5532   5544     1
   5532   5534     1
   5532   5539     1
   5533   5547     1
   5533   5546     1
   5533   5549     1
   5533   5538     1
   5534   5549     1
   5534   5545     1
   5536   5546     1
   5537   5546     1
   5540   5544     1
   5540   5543     1
   5541   5544     1
   5541   5543     1
   5544   5546     1
   5544   5545     1
   5546   5548     1
   5550   5556     1
   5550   5557     1
   5551   5554     1
   5551   5553     1
   5551   5555     1
   5553   5558     1
   5553   5556     1
   5553   5557     1
   5554   5568     1
   5554   5569     1
   5554   5561     1
   5554   5563     1
   5555   5558     1
   5555   5556     1
   5555   5557     1
   5556   5559     1
   5556   5560     1
   5557   5559     1
   5557   5560     1
   5558   5571     1
   5558   5572     1
   5558   5564     1
   5558   5565     1
   5559   5561     1
   5559   5563     1
   5560   5568     1
   5560   5569     1
   5561   5566     1
   5561   5564     1
   5561   5565     1
   5562   5588     1
   5563   5566     1
   5563   5564     1
   5563   5565     1
   5564   5567     1
   5564   5598     1
   5565   5567     1
   5565   5598     1
   5566   5581     1
   5567   5588     1
   5568   5573     1
   5568   5571     1
   5568   5572     1
   5569   5573     1
   5569   5571     1
   5569   5572     1
   5570   5612     1
   5571   5574     1
   5571   5622     1
   5572   5574     1
   5572   5622     1
   5573   5605     1
   5574   5612     1
   5575   5582     1
   5575   5597     1
   5575   5592     1
   5575   5583     1
   5576   5581     1
   5576   5587     1
   5576   5589     1
   5576   5590     1
   5577   5578     1
   5577   5596     1
   5577   5595     1
   5577   5591     1
   5577   5589     1
   5577   5590     1
   5577   5580     1
   5578   5583     1
   5578   5588     1
   5578   5597     1
   5579   5594     1
   5579   5587     1
   5579   5595     1
   5580   5588     1
   5580   5582     1
   5581   5584     1
   5581   5593     1
   5581   5583     1
   5581   5588     1
   5581   5585     1
   5581   5582     1
   5582   5598     1
   5582   5587     1
   5582   5596     1
   5582   5595     1
   5583   5594     1
   5583   5598     1
   5585   5595     1
   5586   5595     1
   5589   5592     1
   5589   5593     1
   5590   5592     1
   5590   5593     1
   5593   5594     1
   5593   5595     1
   5595   5597     1
   5599   5606     1
   5599   5621     1
   5599   5616     1
   5599   5607     1
   5600   5605     1
   5600   5611     1
   5600   5613     1
   5600   5614     1
   5601   5602     1
   5601   5620     1
   5601   5619     1
   5601   5615     1
   5601   5613     1
   5601   5614     1
   5601   5604     1
   5602   5607     1
   5602   5612     1
   5602   5621     1
   5603   5618     1
   5603   5611     1
   5603   5619     1
   5604   5612     1
   5604   5606     1
   5605   5608     1
   5605   5617     1
   5605   5607     1
   5605   5612     1
   5605   5609     1
   5605   5606     1
   5606   5622     1
   5606   5611     1
   5606   5620     1
   5606   5619     1
   5607   5618     1
   5607   5622     1
   5609   5619     1
   5610   5619     1
   5613   5616     1
   5613   5617     1
   5614   5616     1
   5614   5617     1
   5617   5618     1
   5617   5619     1
   5619   5621     1
   5623   5629     1
   5623   5630     1
   5624   5627     1
   5624   5626     1
   5624   5628     1
   5626   5631     1
   5626   5629     1
   5626   5630     1
   5627   5641     1
   5627   5642     1
   5627   5634     1
   5627   5636     1
   5628   5631     1
   5628   5629     1
   5628   5630     1
   5629   5632     1
   5629   5633     1
   5630   5632     1
   5630   5633     1
   5631   5644     1
   5631   5645     1
   5631   5637     1
   5631   5638     1
   5632   5634     1
   5632   5636     1
   5633   5641     1
   5633   5642     1
   5634   5639     1
   5634   5637     1
   5634   5638     1
   5635   5661     1
   5636   5639     1
   5636   5637     1
   5636   5638     1
   5637   5640     1
   5637   5671     1
   5638   5640     1
   5638   5671     1
   5639   5654     1
   5640   5661     1
   5641   5646     1
   5641   5644     1
   5641   5645     1
   5642   5646     1
   5642   5644     1
   5642   5645     1
   5643   5685     1
   5644   5647     1
   5644   5695     1
   5645   5647     1
   5645   5695     1
   5646   5678     1
   5647   5685     1
   5648   5655     1
   5648   5670     1
   5648   5665     1
   5648   5656     1
   5649   5662     1
   5649   5663     1
   5649   5654     1
   5649   5660     1
   5650   5651     1
   5650   5669     1
   5650   5668     1
   5650   5664     1
   5650   5662     1
   5650   5663     1
   5650   5653     1
   5651   5670     1
   5651   5656     1
   5651   5661     1
   5652   5668     1
   5652   5660     1
   5652   5667     1
   5653   5655     1
   5653   5661     1
   5654   5658     1
   5654   5655     1
   5654   5657     1
   5654   5666     1
   5654   5656     1
   5654   5661     1
   5655   5669     1
   5655   5668     1
   5655   5671     1
   5655   5660     1
   5656   5671     1
   5656   5667     1
   5658   5668     1
   5659   5668     1
   5662   5666     1
   5662   5665     1
   5663   5666     1
   5663   5665     1
   5666   5668     1
   5666   5667     1
   5668   5670     1
   5672   5679     1
   5672   5694     1
   5672   5689     1
   5672   5680     1
   5673   5686     1
   5673   5687     1
   5673   5678     1
   5673   5684     1
   5674   5675     1
   5674   5693     1
   5674   5692     1
   5674   5688     1
   5674   5686     1
   5674   5687     1
   5674   5677     1
   5675   5694     1
   5675   5680     1
   5675   5685     1
   5676   5692     1
   5676   5684     1
   5676   5691     1
   5677   5679     1
   5677   5685     1
   5678   5682     1
   5678   5679     1
   5678   5681     1
   5678   5690     1
   5678   5680     1
   5678   5685     1
   5679   5693     1
   5679   5692     1
   5679   5695     1
   5679   5684     1
   5680   5695     1
   5680   5691     1
   5682   5692     1
   5683   5692     1
   5686   5690     1
   5686   5689     1
   5687   5690     1
   5687   5689     1
   5690   5692     1
   5690   5691     1
   5692   5694     1
   5696   5702     1
   5696   5703     1
   5697   5700     1
   5697   5699     1
   5697   5701     1
   5699   5704     1
   5699   5702     1
   5699   5703     1
   5700   5714     1
   5700   5715     1
   5700   5707     1
   5700   5709     1
   5701   5704     1
   5701   5702     1
   5701   5703     1
   5702   5705     1
   5702   5706     1
   5703   5705     1
   5703   5706     1
   5704   5717     1
   5704   5718     1
   5704   5710     1
   5704   5711     1
   5705   5707     1
   5705   5709     1
   5706   5714     1
   5706   5715     1
   5707   5712     1
   5707   5710     1
   5707   5711     1
   5708   5734     1
   5709   5712     1
   5709   5710     1
   5709   5711     1
   5710   5713     1
   5710   5744     1
   5711   5713     1
   5711   5744     1
   5712   5727     1
   5713   5734     1
   5714   5719     1
   5714   5717     1
   5714   5718     1
   5715   5719     1
   5715   5717     1
   5715   5718     1
   5716   5758     1
   5717   5720     1
   5717   5768     1
   5718   5720     1
   5718   5768     1
   5719   5751     1
   5720   5758     1
   5721   5728     1
   5721   5743     1
   5721   5738     1
   5721   5729     1
   5722   5727     1
   5722   5733     1
   5722   5735     1
   5722   5736     1
   5723   5724     1
   5723   5742     1
   5723   5741     1
   5723   5737     1
   5723   5735     1
   5723   5736     1
   5723   5726     1
   5724   5729     1
   5724   5734     1
   5724   5743     1
   5725   5740     1
   5725   5733     1
   5725   5741     1
   5726   5734     1
   5726   5728     1
   5727   5730     1
   5727   5739     1
   5727   5729     1
   5727   5734     1
   5727   5731     1
   5727   5728     1
   5728   5744     1
   5728   5733     1
   5728   5742     1
   5728   5741     1
   5729   5740     1
   5729   5744     1
   5731   5741     1
   5732   5741     1
   5735   5738     1
   5735   5739     1
   5736   5738     1
   5736   5739     1
   5739   5740     1
   5739   5741     1
   5741   5743     1
   5745   5752     1
   5745   5767     1
   5745   5762     1
   5745   5753     1
   5746   5751     1
   5746   5757     1
   5746   5759     1
   5746   5760     1
   5747   5748     1
   5747   5766     1
   5747   5765     1
   5747   5761     1
   5747   5759     1
   5747   5760     1
   5747   5750     1
   5748   5753     1
   5748   5758     1
   5748   5767     1
   5749   5764     1
   5749   5757     1
   5749   5765     1
   5750   5758     1
   5750   5752     1
   5751   5754     1
   5751   5763     1
   5751   5753     1
   5751   5758     1
   5751   5755     1
   5751   5752     1
   5752   5768     1
   5752   5757     1
   5752   5766     1
   5752   5765     1
   5753   5764     1
   5753   5768     1
   5755   5765     1
   5756   5765     1
   5759   5762     1
   5759   5763     1
   5760   5762     1
   5760   5763     1
   5763   5764     1
   5763   5765     1
   5765   5767     1
   5769   5775     1
   5769   5776     1
   5770   5773     1
   5770   5772     1
   5770   5774     1
   5772   5777     1
   5772   5775     1
   5772   5776     1
   5773   5787     1
   5773   5788     1
   5773   5780     1
   5773   5782     1
   5774   5777     1
   5774   5775     1
   5774   5776     1
   5775   5778     1
   5775   5779     1
   5776   5778     1
   5776   5779     1
   5777   5790     1
   5777   5791     1
   5777   5783     1
   5777   5784     1
   5778   5780     1
   5778   5782     1
   5779   5787     1
   5779   5788     1
   5780   5785     1
   5780   5783     1
   5780   5784     1
   5781   5807     1
   5782   5785     1
   5782   5783     1
   5782   5784     1
   5783   5786     1
   5783   5817     1
   5784   5786     1
   5784   5817     1
   5785   5800     1
   5786   5807     1
   5787   5792     1
   5787   5790     1
   5787   5791     1
   5788   5792     1
   5788   5790     1
   5788   5791     1
   5789   5831     1
   5790   5793     1
   5790   5841     1
   5791   5793     1
   5791   5841     1
   5792   5824     1
   5793   5831     1
   5794   5801     1
   5794   5816     1
   5794   5811     1
   5794   5802     1
   5795   5808     1
   5795   5809     1
   5795   5800     1
   5795   5806     1
   5796   5797     1
   5796   5815     1
   5796   5814     1
   5796   5810     1
   5796   5808     1
   5796   5809     1
   5796   5799     1
   5797   5816     1
   5797   5802     1
   5797   5807     1
   5798   5814     1
   5798   5806     1
   5798   5813     1
   5799   5801     1
   5799   5807     1
   5800   5804     1
   5800   5801     1
   5800   5803     1
   5800   5812     1
   5800   5802     1
   5800   5807     1
   5801   5815     1
   5801   5814     1
   5801   5817     1
   5801   5806     1
   5802   5817     1
   5802   5813     1
   5804   5814     1
   5805   5814     1
   5808   5812     1
   5808   5811     1
   5809   5812     1
   5809   5811     1
   5812   5814     1
   5812   5813     1
   5814   5816     1
   5818   5825     1
   5818   5840     1
   5818   5835     1
   5818   5826     1
   5819   5832     1
   5819   5833     1
   5819   5824     1
   5819   5830     1
   5820   5821     1
   5820   5839     1
   5820   5838     1
   5820   5834     1
   5820   5832     1
   5820   5833     1
   5820   5823     1
   5821   5840     1
   5821   5826     1
   5821   5831     1
   5822   5838     1
   5822   5830     1
   5822   5837     1
   5823   5825     1
   5823   5831     1
   5824   5828     1
   5824   5825     1
   5824   5827     1
   5824   5836     1
   5824   5826     1
   5824   5831     1
   5825   5839     1
   5825   5838     1
   5825   5841     1
   5825   5830     1
   5826   5841     1
   5826   5837     1
   5828   5838     1
   5829   5838     1
   5832   5836     1
   5832   5835     1
   5833   5836     1
   5833   5835     1
   5836   5838     1
   5836   5837     1
   5838   5840     1
   5842   5848     1
   5842   5849     1
   5843   5846     1
   5843   5845     1
   5843   5847     1
   5845   5850     1
   5845   5848     1
   5845   5849     1
   5846   5860     1
   5846   5861     1
   5846   5853     1
   5846   5855     1
   5847   5850     1
   5847   5848     1
   5847   5849     1
   5848   5851     1
   5848   5852     1
   5849   5851     1
   5849   5852     1
   5850   5863     1
   5850   5864     1
   5850   5856     1
   5850   5857     1
   5851   5853     1
   5851   5855     1
   5852   5860     1
   5852   5861     1
   5853   5858     1
   5853   5856     1
   5853   5857     1
   5854   5880     1
   5855   5858     1
   5855   5856     1
   5855   5857     1
   5856   5859     1
   5856   5890     1
   5857   5859     1
   5857   5890     1
   5858   5873     1
   5859   5880     1
   5860   5865     1
   5860   5863     1
   5860   5864     1
   5861   5865     1
   5861   5863     1
   5861   5864     1
   5862   5904     1
   5863   5866     1
   5863   5914     1
   5864   5866     1
   5864   5914     1
   5865   5897     1
   5866   5904     1
   5867   5874     1
   5867   5889     1
   5867   5884     1
   5867   5875     1
   5868   5873     1
   5868   5879     1
   5868   5881     1
   5868   5882     1
   5869   5870     1
   5869   5888     1
   5869   5887     1
   5869   5883     1
   5869   5881     1
   5869   5882     1
   5869   5872     1
   5870   5875     1
   5870   5880     1
   5870   5889     1
   5871   5886     1
   5871   5879     1
   5871   5887     1
   5872   5880     1
   5872   5874     1
   5873   5876     1
   5873   5885     1
   5873   5875     1
   5873   5880     1
   5873   5877     1
   5873   5874     1
   5874   5890     1
   5874   5879     1
   5874   5888     1
   5874   5887     1
   5875   5886     1
   5875   5890     1
   5877   5887     1
   5878   5887     1
   5881   5884     1
   5881   5885     1
   5882   5884     1
   5882   5885     1
   5885   5886     1
   5885   5887     1
   5887   5889     1
   5891   5898     1
   5891   5913     1
   5891   5908     1
   5891   5899     1
   5892   5897     1
   5892   5903     1
   5892   5905     1
   5892   5906     1
   5893   5894     1
   5893   5912     1
   5893   5911     1
   5893   5907     1
   5893   5905     1
   5893   5906     1
   5893   5896     1
   5894   5899     1
   5894   5904     1
   5894   5913     1
   5895   5910     1
   5895   5903     1
   5895   5911     1
   5896   5904     1
   5896   5898     1
   5897   5900     1
   5897   5909     1
   5897   5899     1
   5897   5904     1
   5897   5901     1
   5897   5898     1
   5898   5914     1
   5898   5903     1
   5898   5912     1
   5898   5911     1
   5899   5910     1
   5899   5914     1
   5901   5911     1
   5902   5911     1
   5905   5908     1
   5905   5909     1
   5906   5908     1
   5906   5909     1
   5909   5910     1
   5909   5911     1
   5911   5913     1
   5915   5921     1
   5915   5922     1
   5916   5919     1
   5916   5918     1
   5916   5920     1
   5918   5923     1
   5918   5921     1
   5918   5922     1
   5919   5933     1
   5919   5934     1
   5919   5926     1
   5919   5928     1
   5920   5923     1
   5920   5921     1
   5920   5922     1
   5921   5924     1
   5921   5925     1
   5922   5924     1
   5922   5925     1
   5923   5936     1
   5923   5937     1
   5923   5929     1
   5923   5930     1
   5924   5926     1
   5924   5928     1
   5925   5933     1
   5925   5934     1
   5926   5931     1
   5926   5929     1
   5926   5930     1
   5927   5953     1
   5928   5931     1
   5928   5929     1
   5928   5930     1
   5929   5932     1
   5929   5963     1
   5930   5932     1
   5930   5963     1
   5931   5946     1
   5932   5953     1
   5933   5938     1
   5933   5936     1
   5933   5937     1
   5934   5938     1
   5934   5936     1
   5934   5937     1
   5935   5977     1
   5936   5939     1
   5936   5987     1
   5937   5939     1
   5937   5987     1
   5938   5970     1
   5939   5977     1
   5940   5947     1
   5940   5962     1
   5940   5957     1
   5940   5948     1
   5941   5954     1
   5941   5955     1
   5941   5946     1
   5941   5952     1
   5942   5943     1
   5942   5961     1
   5942   5960     1
   5942   5956     1
   5942   5954     1
   5942   5955     1
   5942   5945     1
   5943   5962     1
   5943   5948     1
   5943   5953     1
   5944   5960     1
   5944   5952     1
   5944   5959     1
   5945   5947     1
   5945   5953     1
   5946   5950     1
   5946   5947     1
   5946   5949     1
   5946   5958     1
   5946   5948     1
   5946   5953     1
   5947   5961     1
   5947   5960     1
   5947   5963     1
   5947   5952     1
   5948   5963     1
   5948   5959     1
   5950   5960     1
   5951   5960     1
   5954   5958     1
   5954   5957     1
   5955   5958     1
   5955   5957     1
   5958   5960     1
   5958   5959     1
   5960   5962     1
   5964   5971     1
   5964   5986     1
   5964   5981     1
   5964   5972     1
   5965   5978     1
   5965   5979     1
   5965   5970     1
   5965   5976     1
   5966   5967     1
   5966   5985     1
   5966   5984     1
   5966   5980     1
   5966   5978     1
   5966   5979     1
   5966   5969     1
   5967   5986     1
   5967   5972     1
   5967   5977     1
   5968   5984     1
   5968   5976     1
   5968   5983     1
   5969   5971     1
   5969   5977     1
   5970   5974     1
   5970   5971     1
   5970   5973     1
   5970   5982     1
   5970   5972     1
   5970   5977     1
   5971   5985     1
   5971   5984     1
   5971   5987     1
   5971   5976     1
   5972   5987     1
   5972   5983     1
   5974   5984     1
   5975   5984     1
   5978   5982     1
   5978   5981     1
   5979   5982     1
   5979   5981     1
   5982   5984     1
   5982   5983     1
   5984   5986     1
   5988   5994     1
   5988   5995     1
   5989   5992     1
   5989   5991     1
   5989   5993     1
   5991   5996     1
   5991   5994     1
   5991   5995     1
   5992   6006     1
   5992   6007     1
   5992   5999     1
   5992   6001     1
   5993   5996     1
   5993   5994     1
   5993   5995     1
   5994   5997     1
   5994   5998     1
   5995   5997     1
   5995   5998     1
   5996   6009     1
   5996   6010     1
   5996   6002     1
   5996   6003     1
   5997   5999     1
   5997   6001     1
   5998   6006     1
   5998   6007     1
   5999   6004     1
   5999   6002     1
   5999   6003     1
   6000   6026     1
   6001   6004     1
   6001   6002     1
   6001   6003     1
   6002   6005     1
   6002   6036     1
   6003   6005     1
   6003   6036     1
   6004   6019     1
   6005   6026     1
   6006   6011     1
   6006   6009     1
   6006   6010     1
   6007   6011     1
   6007   6009     1
   6007   6010     1
   6008   6050     1
   6009   6012     1
   6009   6060     1
   6010   6012     1
   6010   6060     1
   6011   6043     1
   6012   6050     1
   6013   6020     1
   6013   6035     1
   6013   6030     1
   6013   6021     1
   6014   6019     1
   6014   6025     1
   6014   6027     1
   6014   6028     1
   6015   6016     1
   6015   6034     1
   6015   6033     1
   6015   6029     1
   6015   6027     1
   6015   6028     1
   6015   6018     1
   6016   6021     1
   6016   6026     1
   6016   6035     1
   6017   6032     1
   6017   6025     1
   6017   6033     1
   6018   6026     1
   6018   6020     1
   6019   6022     1
   6019   6031     1
   6019   6021     1
   6019   6026     1
   6019   6023     1
   6019   6020     1
   6020   6036     1
   6020   6025     1
   6020   6034     1
   6020   6033     1
   6021   6032     1
   6021   6036     1
   6023   6033     1
   6024   6033     1
   6027   6030     1
   6027   6031     1
   6028   6030     1
   6028   6031     1
   6031   6032     1
   6031   6033     1
   6033   6035     1
   6037   6044     1
   6037   6059     1
   6037   6054     1
   6037   6045     1
   6038   6043     1
   6038   6049     1
   6038   6051     1
   6038   6052     1
   6039   6040     1
   6039   6058     1
   6039   6057     1
   6039   6053     1
   6039   6051     1
   6039   6052     1
   6039   6042     1
   6040   6045     1
   6040   6050     1
   6040   6059     1
   6041   6056     1
   6041   6049     1
   6041   6057     1
   6042   6050     1
   6042   6044     1
   6043   6046     1
   6043   6055     1
   6043   6045     1
   6043   6050     1
   6043   6047     1
   6043   6044     1
   6044   6060     1
   6044   6049     1
   6044   6058     1
   6044   6057     1
   6045   6056     1
   6045   6060     1
   6047   6057     1
   6048   6057     1
   6051   6054     1
   6051   6055     1
   6052   6054     1
   6052   6055     1
   6055   6056     1
   6055   6057     1
   6057   6059     1
   6061   6067     1
   6061   6068     1
   6062   6065     1
   6062   6064     1
   6062   6066     1
   6064   6069     1
   6064   6067     1
   6064   6068     1
   6065   6079     1
   6065   6080     1
   6065   6072     1
   6065   6074     1
   6066   6069     1
   6066   6067     1
   6066   6068     1
   6067   6070     1
   6067   6071     1
   6068   6070     1
   6068   6071     1
   6069   6082     1
   6069   6083     1
   6069   6075     1
   6069   6076     1
   6070   6072     1
   6070   6074     1
   6071   6079     1
   6071   6080     1
   6072   6077     1
   6072   6075     1
   6072   6076     1
   6073   6099     1
   6074   6077     1
   6074   6075     1
   6074   6076     1
   6075   6078     1
   6075   6109     1
   6076   6078     1
   6076   6109     1
   6077   6092     1
   6078   6099     1
   6079   6084     1
   6079   6082     1
   6079   6083     1
   6080   6084     1
   6080   6082     1
   6080   6083     1
   6081   6123     1
   6082   6085     1
   6082   6133     1
   6083   6085     1
   6083   6133     1
   6084   6116     1
   6085   6123     1
   6086   6093     1
   6086   6108     1
   6086   6103     1
   6086   6094     1
   6087   6100     1
   6087   6101     1
   6087   6092     1
   6087   6098     1
   6088   6089     1
   6088   6107     1
   6088   6106     1
   6088   6102     1
   6088   6100     1
   6088   6101     1
   6088   6091     1
   6089   6108     1
   6089   6094     1
   6089   6099     1
   6090   6106     1
   6090   6098     1
   6090   6105     1
   6091   6093     1
   6091   6099     1
   6092   6096     1
   6092   6093     1
   6092   6095     1
   6092   6104     1
   6092   6094     1
   6092   6099     1
   6093   6107     1
   6093   6106     1
   6093   6109     1
   6093   6098     1
   6094   6109     1
   6094   6105     1
   6096   6106     1
   6097   6106     1
   6100   6104     1
   6100   6103     1
   6101   6104     1
   6101   6103     1
   6104   6106     1
   6104   6105     1
   6106   6108     1
   6110   6117     1
   6110   6132     1
   6110   6127     1
   6110   6118     1
   6111   6124     1
   6111   6125     1
   6111   6116     1
   6111   6122     1
   6112   6113     1
   6112   6131     1
   6112   6130     1
   6112   6126     1
   6112   6124     1
   6112   6125     1
   6112   6115     1
   6113   6132     1
   6113   6118     1
   6113   6123     1
   6114   6130     1
   6114   6122     1
   6114   6129     1
   6115   6117     1
   6115   6123     1
   6116   6120     1
   6116   6117     1
   6116   6119     1
   6116   6128     1
   6116   6118     1
   6116   6123     1
   6117   6131     1
   6117   6130     1
   6117   6133     1
   6117   6122     1
   6118   6133     1
   6118   6129     1
   6120   6130     1
   6121   6130     1
   6124   6128     1
   6124   6127     1
   6125   6128     1
   6125   6127     1
   6128   6130     1
   6128   6129     1
   6130   6132     1
   6134   6140     1
   6134   6141     1
   6135   6138     1
   6135   6137     1
   6135   6139     1
   6137   6142     1
   6137   6140     1
   6137   6141     1
   6138   6152     1
   6138   6153     1
   6138   6145     1
   6138   6147     1
   6139   6142     1
   6139   6140     1
   6139   6141     1
   6140   6143     1
   6140   6144     1
   6141   6143     1
   6141   6144     1
   6142   6155     1
   6142   6156     1
   6142   6148     1
   6142   6149     1
   6143   6145     1
   6143   6147     1
   6144   6152     1
   6144   6153     1
   6145   6150     1
   6145   6148     1
   6145   6149     1
   6146   6172     1
   6147   6150     1
   6147   6148     1
   6147   6149     1
   6148   6151     1
   6148   6182     1
   6149   6151     1
   6149   6182     1
   6150   6165     1
   6151   6172     1
   6152   6157     1
   6152   6155     1
   6152   6156     1
   6153   6157     1
   6153   6155     1
   6153   6156     1
   6154   6196     1
   6155   6158     1
   6155   6206     1
   6156   6158     1
   6156   6206     1
   6157   6189     1
   6158   6196     1
   6159   6166     1
   6159   6181     1
   6159   6176     1
   6159   6167     1
   6160   6165     1
   6160   6171     1
   6160   6173     1
   6160   6174     1
   6161   6162     1
   6161   6180     1
   6161   6179     1
   6161   6175     1
   6161   6173     1
   6161   6174     1
   6161   6164     1
   6162   6167     1
   6162   6172     1
   6162   6181     1
   6163   6178     1
   6163   6171     1
   6163   6179     1
   6164   6172     1
   6164   6166     1
   6165   6168     1
   6165   6177     1
   6165   6167     1
   6165   6172     1
   6165   6169     1
   6165   6166     1
   6166   6182     1
   6166   6171     1
   6166   6180     1
   6166   6179     1
   6167   6178     1
   6167   6182     1
   6169   6179     1
   6170   6179     1
   6173   6176     1
   6173   6177     1
   6174   6176     1
   6174   6177     1
   6177   6178     1
   6177   6179     1
   6179   6181     1
   6183   6190     1
   6183   6205     1
   6183   6200     1
   6183   6191     1
   6184   6189     1
   6184   6195     1
   6184   6197     1
   6184   6198     1
   6185   6186     1
   6185   6204     1
   6185   6203     1
   6185   6199     1
   6185   6197     1
   6185   6198     1
   6185   6188     1
   6186   6191     1
   6186   6196     1
   6186   6205     1
   6187   6202     1
   6187   6195     1
   6187   6203     1
   6188   6196     1
   6188   6190     1
   6189   6192     1
   6189   6201     1
   6189   6191     1
   6189   6196     1
   6189   6193     1
   6189   6190     1
   6190   6206     1
   6190   6195     1
   6190   6204     1
   6190   6203     1
   6191   6202     1
   6191   6206     1
   6193   6203     1
   6194   6203     1
   6197   6200     1
   6197   6201     1
   6198   6200     1
   6198   6201     1
   6201   6202     1
   6201   6203     1
   6203   6205     1
   6207   6213     1
   6207   6214     1
   6208   6211     1
   6208   6210     1
   6208   6212     1
   6210   6215     1
   6210   6213     1
   6210   6214     1
   6211   6225     1
   6211   6226     1
   6211   6218     1
   6211   6220     1
   6212   6215     1
   6212   6213     1
   6212   6214     1
   6213   6216     1
   6213   6217     1
   6214   6216     1
   6214   6217     1
   6215   6228     1
   6215   6229     1
   6215   6221     1
   6215   6222     1
   6216   6218     1
   6216   6220     1
   6217   6225     1
   6217   6226     1
   6218   6223     1
   6218   6221     1
   6218   6222     1
   6219   6245     1
   6220   6223     1
   6220   6221     1
   6220   6222     1
   6221   6224     1
   6221   6255     1
   6222   6224     1
   6222   6255     1
   6223   6238     1
   6224   6245     1
   6225   6230     1
   6225   6228     1
   6225   6229     1
   6226   6230     1
   6226   6228     1
   6226   6229     1
   6227   6269     1
   6228   6231     1
   6228   6279     1
   6229   6231     1
   6229   6279     1
   6230   6262     1
   6231   6269     1
   6232   6239     1
   6232   6254     1
   6232   6249     1
   6232   6240     1
   6233   6246     1
   6233   6247     1
   6233   6238     1
   6233   6244     1
   6234   6235     1
   6234   6253     1
   6234   6252     1
   6234   6248     1
   6234   6246     1
   6234   6247     1
   6234   6237     1
   6235   6254     1
   6235   6240     1
   6235   6245     1
   6236   6252     1
   6236   6244     1
   6236   6251     1
   6237   6239     1
   6237   6245     1
   6238   6242     1
   6238   6239     1
   6238   6241     1
   6238   6250     1
   6238   6240     1
   6238   6245     1
   6239   6253     1
   6239   6252     1
   6239   6255     1
   6239   6244     1
   6240   6255     1
   6240   6251     1
   6242   6252     1
   6243   6252     1
   6246   6250     1
   6246   6249     1
   6247   6250     1
   6247   6249     1
   6250   6252     1
   6250   6251     1
   6252   6254     1
   6256   6263     1
   6256   6278     1
   6256   6273     1
   6256   6264     1
   6257   6270     1
   6257   6271     1
   6257   6262     1
   6257   6268     1
   6258   6259     1
   6258   6277     1
   6258   6276     1
   6258   6272     1
   6258   6270     1
   6258   6271     1
   6258   6261     1
   6259   6278     1
   6259   6264     1
   6259   6269     1
   6260   6276     1
   6260   6268     1
   6260   6275     1
   6261   6263     1
   6261   6269     1
   6262   6266     1
   6262   6263     1
   6262   6265     1
   6262   6274     1
   6262   6264     1
   6262   6269     1
   6263   6277     1
   6263   6276     1
   6263   6279     1
   6263   6268     1
   6264   6279     1
   6264   6275     1
   6266   6276     1
   6267   6276     1
   6270   6274     1
   6270   6273     1
   6271   6274     1
   6271   6273     1
   6274   6276     1
   6274   6275     1
   6276   6278     1
   6280   6286     1
   6280   6287     1
   6281   6284     1
   6281   6283     1
   6281   6285     1
   6283   6288     1
   6283   6286     1
   6283   6287     1
   6284   6298     1
   6284   6299     1
   6284   6291     1
   6284   6293     1
   6285   6288     1
   6285   6286     1
   6285   6287     1
   6286   6289     1
   6286   6290     1
   6287   6289     1
   6287   6290     1
   6288   6301     1
   6288   6302     1
   6288   6294     1
   6288   6295     1
   6289   6291     1
   6289   6293     1
   6290   6298     1
   6290   6299     1
   6291   6296     1
   6291   6294     1
   6291   6295     1
   6292   6318     1
   6293   6296     1
   6293   6294     1
   6293   6295     1
   6294   6297     1
   6294   6328     1
   6295   6297     1
   6295   6328     1
   6296   6311     1
   6297   6318     1
   6298   6303     1
   6298   6301     1
   6298   6302     1
   6299   6303     1
   6299   6301     1
   6299   6302     1
   6300   6342     1
   6301   6304     1
   6301   6352     1
   6302   6304     1
   6302   6352     1
   6303   6335     1
   6304   6342     1
   6305   6312     1
   6305   6327     1
   6305   6322     1
   6305   6313     1
   6306   6311     1
   6306   6317     1
   6306   6319     1
   6306   6320     1
   6307   6308     1
   6307   6326     1
   6307   6325     1
   6307   6321     1
   6307   6319     1
   6307   6320     1
   6307   6310     1
   6308   6313     1
   6308   6318     1
   6308   6327     1
   6309   6324     1
   6309   6317     1
   6309   6325     1
   6310   6318     1
   6310   6312     1
   6311   6314     1
   6311   6323     1
   6311   6313     1
   6311   6318     1
   6311   6315     1
   6311   6312     1
   6312   6328     1
   6312   6317     1
   6312   6326     1
   6312   6325     1
   6313   6324     1
   6313   6328     1
   6315   6325     1
   6316   6325     1
   6319   6322     1
   6319   6323     1
   6320   6322     1
   6320   6323     1
   6323   6324     1
   6323   6325     1
   6325   6327     1
   6329   6336     1
   6329   6351     1
   6329   6346     1
   6329   6337     1
   6330   6335     1
   6330   6341     1
   6330   6343     1
   6330   6344     1
   6331   6332     1
   6331   6350     1
   6331   6349     1
   6331   6345     1
   6331   6343     1
   6331   6344     1
   6331   6334     1
   6332   6337     1
   6332   6342     1
   6332   6351     1
   6333   6348     1
   6333   6341     1
   6333   6349     1
   6334   6342     1
   6334   6336     1
   6335   6338     1
   6335   6347     1
   6335   6337     1
   6335   6342     1
   6335   6339     1
   6335   6336     1
   6336   6352     1
   6336   6341     1
   6336   6350     1
   6336   6349     1
   6337   6348     1
   6337   6352     1
   6339   6349     1
   6340   6349     1
   6343   6346     1
   6343   6347     1
   6344   6346     1
   6344   6347     1
   6347   6348     1
   6347   6349     1
   6349   6351     1
   6353   6359     1
   6353   6360     1
   6354   6357     1
   6354   6356     1
   6354   6358     1
   6356   6361     1
   6356   6359     1
   6356   6360     1
   6357   6371     1
   6357   6372     1
   6357   6364     1
   6357   6366     1
   6358   6361     1
   6358   6359     1
   6358   6360     1
   6359   6362     1
   6359   6363     1
   6360   6362     1
   6360   6363     1
   6361   6374     1
   6361   6375     1
   6361   6367     1
   6361   6368     1
   6362   6364     1
   6362   6366     1
   6363   6371     1
   6363   6372     1
   6364   6369     1
   6364   6367     1
   6364   6368     1
   6365   6391     1
   6366   6369     1
   6366   6367     1
   6366   6368     1
   6367   6370     1
   6367   6401     1
   6368   6370     1
   6368   6401     1
   6369   6384     1
   6370   6391     1
   6371   6376     1
   6371   6374     1
   6371   6375     1
   6372   6376     1
   6372   6374     1
   6372   6375     1
   6373   6415     1
   6374   6377     1
   6374   6425     1
   6375   6377     1
   6375   6425     1
   6376   6408     1
   6377   6415     1
   6378   6385     1
   6378   6400     1
   6378   6395     1
   6378   6386     1
   6379   6392     1
   6379   6393     1
   6379   6384     1
   6379   6390     1
   6380   6381     1
   6380   6399     1
   6380   6398     1
   6380   6394     1
   6380   6392     1
   6380   6393     1
   6380   6383     1
   6381   6400     1
   6381   6386     1
   6381   6391     1
   6382   6398     1
   6382   6390     1
   6382   6397     1
   6383   6385     1
   6383   6391     1
   6384   6388     1
   6384   6385     1
   6384   6387     1
   6384   6396     1
   6384   6386     1
   6384   6391     1
   6385   6399     1
   6385   6398     1
   6385   6401     1
   6385   6390     1
   6386   6401     1
   6386   6397     1
   6388   6398     1
   6389   6398     1
   6392   6396     1
   6392   6395     1
   6393   6396     1
   6393   6395     1
   6396   6398     1
   6396   6397     1
   6398   6400     1
   6402   6409     1
   6402   6424     1
   6402   6419     1
   6402   6410     1
   6403   6416     1
   6403   6417     1
   6403   6408     1
   6403   6414     1
   6404   6405     1
   6404   6423     1
   6404   6422     1
   6404   6418     1
   6404   6416     1
   6404   6417     1
   6404   6407     1
   6405   6424     1
   6405   6410     1
   6405   6415     1
   6406   6422     1
   6406   6414     1
   6406   6421     1
   6407   6409     1
   6407   6415     1
   6408   6412     1
   6408   6409     1
   6408   6411     1
   6408   6420     1
   6408   6410     1
   6408   6415     1
   6409   6423     1
   6409   6422     1
   6409   6425     1
   6409   6414     1
   6410   6425     1
   6410   6421     1
   6412   6422     1
   6413   6422     1
   6416   6420     1
   6416   6419     1
   6417   6420     1
   6417   6419     1
   6420   6422     1
   6420   6421     1
   6422   6424     1
   6426   6432     1
   6426   6433     1
   6427   6430     1
   6427   6429     1
   6427   6431     1
   6429   6434     1
   6429   6432     1
   6429   6433     1
   6430   6444     1
   6430   6445     1
   6430   6437     1
   6430   6439     1
   6431   6434     1
   6431   6432     1
   6431   6433     1
   6432   6435     1
   6432   6436     1
   6433   6435     1
   6433   6436     1
   6434   6447     1
   6434   6448     1
   6434   6440     1
   6434   6441     1
   6435   6437     1
   6435   6439     1
   6436   6444     1
   6436   6445     1
   6437   6442     1
   6437   6440     1
   6437   6441     1
   6438   6464     1
   6439   6442     1
   6439   6440     1
   6439   6441     1
   6440   6443     1
   6440   6474     1
   6441   6443     1
   6441   6474     1
   6442   6457     1
   6443   6464     1
   6444   6449     1
   6444   6447     1
   6444   6448     1
   6445   6449     1
   6445   6447     1
   6445   6448     1
   6446   6488     1
   6447   6450     1
   6447   6498     1
   6448   6450     1
   6448   6498     1
   6449   6481     1
   6450   6488     1
   6451   6458     1
   6451   6473     1
   6451   6468     1
   6451   6459     1
   6452   6457     1
   6452   6463     1
   6452   6465     1
   6452   6466     1
   6453   6454     1
   6453   6472     1
   6453   6471     1
   6453   6467     1
   6453   6465     1
   6453   6466     1
   6453   6456     1
   6454   6459     1
   6454   6464     1
   6454   6473     1
   6455   6470     1
   6455   6463     1
   6455   6471     1
   6456   6464     1
   6456   6458     1
   6457   6460     1
   6457   6469     1
   6457   6459     1
   6457   6464     1
   6457   6461     1
   6457   6458     1
   6458   6474     1
   6458   6463     1
   6458   6472     1
   6458   6471     1
   6459   6470     1
   6459   6474     1
   6461   6471     1
   6462   6471     1
   6465   6468     1
   6465   6469     1
   6466   6468     1
   6466   6469     1
   6469   6470     1
   6469   6471     1
   6471   6473     1
   6475   6482     1
   6475   6497     1
   6475   6492     1
   6475   6483     1
   6476   6481     1
   6476   6487     1
   6476   6489     1
   6476   6490     1
   6477   6478     1
   6477   6496     1
   6477   6495     1
   6477   6491     1
   6477   6489     1
   6477   6490     1
   6477   6480     1
   6478   6483     1
   6478   6488     1
   6478   6497     1
   6479   6494     1
   6479   6487     1
   6479   6495     1
   6480   6488     1
   6480   6482     1
   6481   6484     1
   6481   6493     1
   6481   6483     1
   6481   6488     1
   6481   6485     1
   6481   6482     1
   6482   6498     1
   6482   6487     1
   6482   6496     1
   6482   6495     1
   6483   6494     1
   6483   6498     1
   6485   6495     1
   6486   6495     1
   6489   6492     1
   6489   6493     1
   6490   6492     1
   6490   6493     1
   6493   6494     1
   6493   6495     1
   6495   6497     1
   6499   6505     1
   6499   6506     1
   6500   6503     1
   6500   6502     1
   6500   6504     1
   6502   6507     1
   6502   6505     1
   6502   6506     1
   6503   6517     1
   6503   6518     1
   6503   6510     1
   6503   6512     1
   6504   6507     1
   6504   6505     1
   6504   6506     1
   6505   6508     1
   6505   6509     1
   6506   6508     1
   6506   6509     1
   6507   6520     1
   6507   6521     1
   6507   6513     1
   6507   6514     1
   6508   6510     1
   6508   6512     1
   6509   6517     1
   6509   6518     1
   6510   6515     1
   6510   6513     1
   6510   6514     1
   6511   6537     1
   6512   6515     1
   6512   6513     1
   6512   6514     1
   6513   6516     1
   6513   6547     1
   6514   6516     1
   6514   6547     1
   6515   6530     1
   6516   6537     1
   6517   6522     1
   6517   6520     1
   6517   6521     1
   6518   6522     1
   6518   6520     1
   6518   6521     1
   6519   6561     1
   6520   6523     1
   6520   6571     1
   6521   6523     1
   6521   6571     1
   6522   6554     1
   6523   6561     1
   6524   6531     1
   6524   6546     1
   6524   6541     1
   6524   6532     1
   6525   6538     1
   6525   6539     1
   6525   6530     1
   6525   6536     1
   6526   6527     1
   6526   6545     1
   6526   6544     1
   6526   6540     1
   6526   6538     1
   6526   6539     1
   6526   6529     1
   6527   6546     1
   6527   6532     1
   6527   6537     1
   6528   6544     1
   6528   6536     1
   6528   6543     1
   6529   6531     1
   6529   6537     1
   6530   6534     1
   6530   6531     1
   6530   6533     1
   6530   6542     1
   6530   6532     1
   6530   6537     1
   6531   6545     1
   6531   6544     1
   6531   6547     1
   6531   6536     1
   6532   6547     1
   6532   6543     1
   6534   6544     1
   6535   6544     1
   6538   6542     1
   6538   6541     1
   6539   6542     1
   6539   6541     1
   6542   6544     1
   6542   6543     1
   6544   6546     1
   6548   6555     1
   6548   6570     1
   6548   6565     1
   6548   6556     1
   6549   6562     1
   6549   6563     1
   6549   6554     1
   6549   6560     1
   6550   6551     1
   6550   6569     1
   6550   6568     1
   6550   6564     1
   6550   6562     1
   6550   6563     1
   6550   6553     1
   6551   6570     1
   6551   6556     1
   6551   6561     1
   6552   6568     1
   6552   6560     1
   6552   6567     1
   6553   6555     1
   6553   6561     1
   6554   6558     1
   6554   6555     1
   6554   6557     1
   6554   6566     1
   6554   6556     1
   6554   6561     1
   6555   6569     1
   6555   6568     1
   6555   6571     1
   6555   6560     1
   6556   6571     1
   6556   6567     1
   6558   6568     1
   6559   6568     1
   6562   6566     1
   6562   6565     1
   6563   6566     1
   6563   6565     1
   6566   6568     1
   6566   6567     1
   6568   6570     1
   6572   6578     1
   6572   6579     1
   6573   6576     1
   6573   6575     1
   6573   6577     1
   6575   6580     1
   6575   6578     1
   6575   6579     1
   6576   6590     1
   6576   6591     1
   6576   6583     1
   6576   6585     1
   6577   6580     1
   6577   6578     1
   6577   6579     1
   6578   6581     1
   6578   6582     1
   6579   6581     1
   6579   6582     1
   6580   6593     1
   6580   6594     1
   6580   6586     1
   6580   6587     1
   6581   6583     1
   6581   6585     1
   6582   6590     1
   6582   6591     1
   6583   6588     1
   6583   6586     1
   6583   6587     1
   6584   6610     1
   6585   6588     1
   6585   6586     1
   6585   6587     1
   6586   6589     1
   6586   6620     1
   6587   6589     1
   6587   6620     1
   6588   6603     1
   6589   6610     1
   6590   6595     1
   6590   6593     1
   6590   6594     1
   6591   6595     1
   6591   6593     1
   6591   6594     1
   6592   6634     1
   6593   6596     1
   6593   6644     1
   6594   6596     1
   6594   6644     1
   6595   6627     1
   6596   6634     1
   6597   6604     1
   6597   6619     1
   6597   6614     1
   6597   6605     1
   6598   6603     1
   6598   6609     1
   6598   6611     1
   6598   6612     1
   6599   6600     1
   6599   6618     1
   6599   6617     1
   6599   6613     1
   6599   6611     1
   6599   6612     1
   6599   6602     1
   6600   6605     1
   6600   6610     1
   6600   6619     1
   6601   6616     1
   6601   6609     1
   6601   6617     1
   6602   6610     1
   6602   6604     1
   6603   6606     1
   6603   6615     1
   6603   6605     1
   6603   6610     1
   6603   6607     1
   6603   6604     1
   6604   6620     1
   6604   6609     1
   6604   6618     1
   6604   6617     1
   6605   6616     1
   6605   6620     1
   6607   6617     1
   6608   6617     1
   6611   6614     1
   6611   6615     1
   6612   6614     1
   6612   6615     1
   6615   6616     1
   6615   6617     1
   6617   6619     1
   6621   6628     1
   6621   6643     1
   6621   6638     1
   6621   6629     1
   6622   6627     1
   6622   6633     1
   6622   6635     1
   6622   6636     1
   6623   6624     1
   6623   6642     1
   6623   6641     1
   6623   6637     1
   6623   6635     1
   6623   6636     1
   6623   6626     1
   6624   6629     1
   6624   6634     1
   6624   6643     1
   6625   6640     1
   6625   6633     1
   6625   6641     1
   6626   6634     1
   6626   6628     1
   6627   6630     1
   6627   6639     1
   6627   6629     1
   6627   6634     1
   6627   6631     1
   6627   6628     1
   6628   6644     1
   6628   6633     1
   6628   6642     1
   6628   6641     1
   6629   6640     1
   6629   6644     1
   6631   6641     1
   6632   6641     1
   6635   6638     1
   6635   6639     1
   6636   6638     1
   6636   6639     1
   6639   6640     1
   6639   6641     1
   6641   6643     1
   6645   6651     1
   6645   6652     1
   6646   6649     1
   6646   6648     1
   6646   6650     1
   6648   6653     1
   6648   6651     1
   6648   6652     1
   6649   6663     1
   6649   6664     1
   6649   6656     1
   6649   6658     1
   6650   6653     1
   6650   6651     1
   6650   6652     1
   6651   6654     1
   6651   6655     1
   6652   6654     1
   6652   6655     1
   6653   6666     1
   6653   6667     1
   6653   6659     1
   6653   6660     1
   6654   6656     1
   6654   6658     1
   6655   6663     1
   6655   6664     1
   6656   6661     1
   6656   6659     1
   6656   6660     1
   6657   6683     1
   6658   6661     1
   6658   6659     1
   6658   6660     1
   6659   6662     1
   6659   6693     1
   6660   6662     1
   6660   6693     1
   6661   6676     1
   6662   6683     1
   6663   6668     1
   6663   6666     1
   6663   6667     1
   6664   6668     1
   6664   6666     1
   6664   6667     1
   6665   6707     1
   6666   6669     1
   6666   6717     1
   6667   6669     1
   6667   6717     1
   6668   6700     1
   6669   6707     1
   6670   6677     1
   6670   6692     1
   6670   6687     1
   6670   6678     1
   6671   6684     1
   6671   6685     1
   6671   6676     1
   6671   6682     1
   6672   6673     1
   6672   6691     1
   6672   6690     1
   6672   6686     1
   6672   6684     1
   6672   6685     1
   6672   6675     1
   6673   6692     1
   6673   6678     1
   6673   6683     1
   6674   6690     1
   6674   6682     1
   6674   6689     1
   6675   6677     1
   6675   6683     1
   6676   6680     1
   6676   6677     1
   6676   6679     1
   6676   6688     1
   6676   6678     1
   6676   6683     1
   6677   6691     1
   6677   6690     1
   6677   6693     1
   6677   6682     1
   6678   6693     1
   6678   6689     1
   6680   6690     1
   6681   6690     1
   6684   6688     1
   6684   6687     1
   6685   6688     1
   6685   6687     1
   6688   6690     1
   6688   6689     1
   6690   6692     1
   6694   6701     1
   6694   6716     1
   6694   6711     1
   6694   6702     1
   6695   6708     1
   6695   6709     1
   6695   6700     1
   6695   6706     1
   6696   6697     1
   6696   6715     1
   6696   6714     1
   6696   6710     1
   6696   6708     1
   6696   6709     1
   6696   6699     1
   6697   6716     1
   6697   6702     1
   6697   6707     1
   6698   6714     1
   6698   6706     1
   6698   6713     1
   6699   6701     1
   6699   6707     1
   6700   6704     1
   6700   6701     1
   6700   6703     1
   6700   6712     1
   6700   6702     1
   6700   6707     1
   6701   6715     1
   6701   6714     1
   6701   6717     1
   6701   6706     1
   6702   6717     1
   6702   6713     1
   6704   6714     1
   6705   6714     1
   6708   6712     1
   6708   6711     1
   6709   6712     1
   6709   6711     1
   6712   6714     1
   6712   6713     1
   6714   6716     1
   6718   6724     1
   6718   6725     1
   6719   6722     1
   6719   6721     1
   6719   6723     1
   6721   6726     1
   6721   6724     1
   6721   6725     1
   6722   6736     1
   6722   6737     1
   6722   6729     1
   6722   6731     1
   6723   6726     1
   6723   6724     1
   6723   6725     1
   6724   6727     1
   6724   6728     1
   6725   6727     1
   6725   6728     1
   6726   6739     1
   6726   6740     1
   6726   6732     1
   6726   6733     1
   6727   6729     1
   6727   6731     1
   6728   6736     1
   6728   6737     1
   6729   6734     1
   6729   6732     1
   6729   6733     1
   6730   6756     1
   6731   6734     1
   6731   6732     1
   6731   6733     1
   6732   6735     1
   6732   6766     1
   6733   6735     1
   6733   6766     1
   6734   6749     1
   6735   6756     1
   6736   6741     1
   6736   6739     1
   6736   6740     1
   6737   6741     1
   6737   6739     1
   6737   6740     1
   6738   6780     1
   6739   6742     1
   6739   6790     1
   6740   6742     1
   6740   6790     1
   6741   6773     1
   6742   6780     1
   6743   6750     1
   6743   6765     1
   6743   6760     1
   6743   6751     1
   6744   6749     1
   6744   6755     1
   6744   6757     1
   6744   6758     1
   6745   6746     1
   6745   6764     1
   6745   6763     1
   6745   6759     1
   6745   6757     1
   6745   6758     1
   6745   6748     1
   6746   6751     1
   6746   6756     1
   6746   6765     1
   6747   6762     1
   6747   6755     1
   6747   6763     1
   6748   6756     1
   6748   6750     1
   6749   6752     1
   6749   6761     1
   6749   6751     1
   6749   6756     1
   6749   6753     1
   6749   6750     1
   6750   6766     1
   6750   6755     1
   6750   6764     1
   6750   6763     1
   6751   6762     1
   6751   6766     1
   6753   6763     1
   6754   6763     1
   6757   6760     1
   6757   6761     1
   6758   6760     1
   6758   6761     1
   6761   6762     1
   6761   6763     1
   6763   6765     1
   6767   6774     1
   6767   6789     1
   6767   6784     1
   6767   6775     1
   6768   6773     1
   6768   6779     1
   6768   6781     1
   6768   6782     1
   6769   6770     1
   6769   6788     1
   6769   6787     1
   6769   6783     1
   6769   6781     1
   6769   6782     1
   6769   6772     1
   6770   6775     1
   6770   6780     1
   6770   6789     1
   6771   6786     1
   6771   6779     1
   6771   6787     1
   6772   6780     1
   6772   6774     1
   6773   6776     1
   6773   6785     1
   6773   6775     1
   6773   6780     1
   6773   6777     1
   6773   6774     1
   6774   6790     1
   6774   6779     1
   6774   6788     1
   6774   6787     1
   6775   6786     1
   6775   6790     1
   6777   6787     1
   6778   6787     1
   6781   6784     1
   6781   6785     1
   6782   6784     1
   6782   6785     1
   6785   6786     1
   6785   6787     1
   6787   6789     1
   6791   6797     1
   6791   6798     1
   6792   6795     1
   6792   6794     1
   6792   6796     1
   6794   6799     1
   6794   6797     1
   6794   6798     1
   6795   6809     1
   6795   6810     1
   6795   6802     1
   6795   6804     1
   6796   6799     1
   6796   6797     1
   6796   6798     1
   6797   6800     1
   6797   6801     1
   6798   6800     1
   6798   6801     1
   6799   6812     1
   6799   6813     1
   6799   6805     1
   6799   6806     1
   6800   6802     1
   6800   6804     1
   6801   6809     1
   6801   6810     1
   6802   6807     1
   6802   6805     1
   6802   6806     1
   6803   6829     1
   6804   6807     1
   6804   6805     1
   6804   6806     1
   6805   6808     1
   6805   6839     1
   6806   6808     1
   6806   6839     1
   6807   6822     1
   6808   6829     1
   6809   6814     1
   6809   6812     1
   6809   6813     1
   6810   6814     1
   6810   6812     1
   6810   6813     1
   6811   6853     1
   6812   6815     1
   6812   6863     1
   6813   6815     1
   6813   6863     1
   6814   6846     1
   6815   6853     1
   6816   6823     1
   6816   6838     1
   6816   6833     1
   6816   6824     1
   6817   6830     1
   6817   6831     1
   6817   6822     1
   6817   6828     1
   6818   6819     1
   6818   6837     1
   6818   6836     1
   6818   6832     1
   6818   6830     1
   6818   6831     1
   6818   6821     1
   6819   6838     1
   6819   6824     1
   6819   6829     1
   6820   6836     1
   6820   6828     1
   6820   6835     1
   6821   6823     1
   6821   6829     1
   6822   6826     1
   6822   6823     1
   6822   6825     1
   6822   6834     1
   6822   6824     1
   6822   6829     1
   6823   6837     1
   6823   6836     1
   6823   6839     1
   6823   6828     1
   6824   6839     1
   6824   6835     1
   6826   6836     1
   6827   6836     1
   6830   6834     1
   6830   6833     1
   6831   6834     1
   6831   6833     1
   6834   6836     1
   6834   6835     1
   6836   6838     1
   6840   6847     1
   6840   6862     1
   6840   6857     1
   6840   6848     1
   6841   6854     1
   6841   6855     1
   6841   6846     1
   6841   6852     1
   6842   6843     1
   6842   6861     1
   6842   6860     1
   6842   6856     1
   6842   6854     1
   6842   6855     1
   6842   6845     1
   6843   6862     1
   6843   6848     1
   6843   6853     1
   6844   6860     1
   6844   6852     1
   6844   6859     1
   6845   6847     1
   6845   6853     1
   6846   6850     1
   6846   6847     1
   6846   6849     1
   6846   6858     1
   6846   6848     1
   6846   6853     1
   6847   6861     1
   6847   6860     1
   6847   6863     1
   6847   6852     1
   6848   6863     1
   6848   6859     1
   6850   6860     1
   6851   6860     1
   6854   6858     1
   6854   6857     1
   6855   6858     1
   6855   6857     1
   6858   6860     1
   6858   6859     1
   6860   6862     1
   6864   6870     1
   6864   6871     1
   6865   6868     1
   6865   6867     1
   6865   6869     1
   6867   6872     1
   6867   6870     1
   6867   6871     1
   6868   6882     1
   6868   6883     1
   6868   6875     1
   6868   6877     1
   6869   6872     1
   6869   6870     1
   6869   6871     1
   6870   6873     1
   6870   6874     1
   6871   6873     1
   6871   6874     1
   6872   6885     1
   6872   6886     1
   6872   6878     1
   6872   6879     1
   6873   6875     1
   6873   6877     1
   6874   6882     1
   6874   6883     1
   6875   6880     1
   6875   6878     1
   6875   6879     1
   6876   6902     1
   6877   6880     1
   6877   6878     1
   6877   6879     1
   6878   6881     1
   6878   6912     1
   6879   6881     1
   6879   6912     1
   6880   6895     1
   6881   6902     1
   6882   6887     1
   6882   6885     1
   6882   6886     1
   6883   6887     1
   6883   6885     1
   6883   6886     1
   6884   6926     1
   6885   6888     1
   6885   6936     1
   6886   6888     1
   6886   6936     1
   6887   6919     1
   6888   6926     1
   6889   6896     1
   6889   6911     1
   6889   6906     1
   6889   6897     1
   6890   6895     1
   6890   6901     1
   6890   6903     1
   6890   6904     1
   6891   6892     1
   6891   6910     1
   6891   6909     1
   6891   6905     1
   6891   6903     1
   6891   6904     1
   6891   6894     1
   6892   6897     1
   6892   6902     1
   6892   6911     1
   6893   6908     1
   6893   6901     1
   6893   6909     1
   6894   6902     1
   6894   6896     1
   6895   6898     1
   6895   6907     1
   6895   6897     1
   6895   6902     1
   6895   6899     1
   6895   6896     1
   6896   6912     1
   6896   6901     1
   6896   6910     1
   6896   6909     1
   6897   6908     1
   6897   6912     1
   6899   6909     1
   6900   6909     1
   6903   6906     1
   6903   6907     1
   6904   6906     1
   6904   6907     1
   6907   6908     1
   6907   6909     1
   6909   6911     1
   6913   6920     1
   6913   6935     1
   6913   6930     1
   6913   6921     1
   6914   6919     1
   6914   6925     1
   6914   6927     1
   6914   6928     1
   6915   6916     1
   6915   6934     1
   6915   6933     1
   6915   6929     1
   6915   6927     1
   6915   6928     1
   6915   6918     1
   6916   6921     1
   6916   6926     1
   6916   6935     1
   6917   6932     1
   6917   6925     1
   6917   6933     1
   6918   6926     1
   6918   6920     1
   6919   6922     1
   6919   6931     1
   6919   6921     1
   6919   6926     1
   6919   6923     1
   6919   6920     1
   6920   6936     1
   6920   6925     1
   6920   6934     1
   6920   6933     1
   6921   6932     1
   6921   6936     1
   6923   6933     1
   6924   6933     1
   6927   6930     1
   6927   6931     1
   6928   6930     1
   6928   6931     1
   6931   6932     1
   6931   6933     1
   6933   6935     1
   6937   6943     1
   6937   6944     1
   6938   6941     1
   6938   6940     1
   6938   6942     1
   6940   6945     1
   6940   6943     1
   6940   6944     1
   6941   6955     1
   6941   6956     1
   6941   6948     1
   6941   6950     1
   6942   6945     1
   6942   6943     1
   6942   6944     1
   6943   6946     1
   6943   6947     1
   6944   6946     1
   6944   6947     1
   6945   6958     1
   6945   6959     1
   6945   6951     1
   6945   6952     1
   6946   6948     1
   6946   6950     1
   6947   6955     1
   6947   6956     1
   6948   6953     1
   6948   6951     1
   6948   6952     1
   6949   6975     1
   6950   6953     1
   6950   6951     1
   6950   6952     1
   6951   6954     1
   6951   6985     1
   6952   6954     1
   6952   6985     1
   6953   6968     1
   6954   6975     1
   6955   6960     1
   6955   6958     1
   6955   6959     1
   6956   6960     1
   6956   6958     1
   6956   6959     1
   6957   6999     1
   6958   6961     1
   6958   7009     1
   6959   6961     1
   6959   7009     1
   6960   6992     1
   6961   6999     1
   6962   6969     1
   6962   6984     1
   6962   6979     1
   6962   6970     1
   6963   6976     1
   6963   6977     1
   6963   6968     1
   6963   6974     1
   6964   6965     1
   6964   6983     1
   6964   6982     1
   6964   6978     1
   6964   6976     1
   6964   6977     1
   6964   6967     1
   6965   6984     1
   6965   6970     1
   6965   6975     1
   6966   6982     1
   6966   6974     1
   6966   6981     1
   6967   6969     1
   6967   6975     1
   6968   6972     1
   6968   6969     1
   6968   6971     1
   6968   6980     1
   6968   6970     1
   6968   6975     1
   6969   6983     1
   6969   6982     1
   6969   6985     1
   6969   6974     1
   6970   6985     1
   6970   6981     1
   6972   6982     1
   6973   6982     1
   6976   6980     1
   6976   6979     1
   6977   6980     1
   6977   6979     1
   6980   6982     1
   6980   6981     1
   6982   6984     1
   6986   6993     1
   6986   7008     1
   6986   7003     1
   6986   6994     1
   6987   7000     1
   6987   7001     1
   6987   6992     1
   6987   6998     1
   6988   6989     1
   6988   7007     1
   6988   7006     1
   6988   7002     1
   6988   7000     1
   6988   7001     1
   6988   6991     1
   6989   7008     1
   6989   6994     1
   6989   6999     1
   6990   7006     1
   6990   6998     1
   6990   7005     1
   6991   6993     1
   6991   6999     1
   6992   6996     1
   6992   6993     1
   6992   6995     1
   6992   7004     1
   6992   6994     1
   6992   6999     1
   6993   7007     1
   6993   7006     1
   6993   7009     1
   6993   6998     1
   6994   7009     1
   6994   7005     1
   6996   7006     1
   6997   7006     1
   7000   7004     1
   7000   7003     1
   7001   7004     1
   7001   7003     1
   7004   7006     1
   7004   7005     1
   7006   7008     1
   7010   7016     1
   7010   7017     1
   7011   7014     1
   7011   7013     1
   7011   7015     1
   7013   7018     1
   7013   7016     1
   7013   7017     1
   7014   7028     1
   7014   7029     1
   7014   7021     1
   7014   7023     1
   7015   7018     1
   7015   7016     1
   7015   7017     1
   7016   7019     1
   7016   7020     1
   7017   7019     1
   7017   7020     1
   7018   7031     1
   7018   7032     1
   7018   7024     1
   7018   7025     1
   7019   7021     1
   7019   7023     1
   7020   7028     1
   7020   7029     1
   7021   7026     1
   7021   7024     1
   7021   7025     1
   7022   7048     1
   7023   7026     1
   7023   7024     1
   7023   7025     1
   7024   7027     1
   7024   7058     1
   7025   7027     1
   7025   7058     1
   7026   7041     1
   7027   7048     1
   7028   7033     1
   7028   7031     1
   7028   7032     1
   7029   7033     1
   7029   7031     1
   7029   7032     1
   7030   7072     1
   7031   7034     1
   7031   7082     1
   7032   7034     1
   7032   7082     1
   7033   7065     1
   7034   7072     1
   7035   7042     1
   7035   7057     1
   7035   7052     1
   7035   7043     1
   7036   7041     1
   7036   7047     1
   7036   7049     1
   7036   7050     1
   7037   7038     1
   7037   7056     1
   7037   7055     1
   7037   7051     1
   7037   7049     1
   7037   7050     1
   7037   7040     1
   7038   7043     1
   7038   7048     1
   7038   7057     1
   7039   7054     1
   7039   7047     1
   7039   7055     1
   7040   7048     1
   7040   7042     1
   7041   7044     1
   7041   7053     1
   7041   7043     1
   7041   7048     1
   7041   7045     1
   7041   7042     1
   7042   7058     1
   7042   7047     1
   7042   7056     1
   7042   7055     1
   7043   7054     1
   7043   7058     1
   7045   7055     1
   7046   7055     1
   7049   7052     1
   7049   7053     1
   7050   7052     1
   7050   7053     1
   7053   7054     1
   7053   7055     1
   7055   7057     1
   7059   7066     1
   7059   7081     1
   7059   7076     1
   7059   7067     1
   7060   7065     1
   7060   7071     1
   7060   7073     1
   7060   7074     1
   7061   7062     1
   7061   7080     1
   7061   7079     1
   7061   7075     1
   7061   7073     1
   7061   7074     1
   7061   7064     1
   7062   7067     1
   7062   7072     1
   7062   7081     1
   7063   7078     1
   7063   7071     1
   7063   7079     1
   7064   7072     1
   7064   7066     1
   7065   7068     1
   7065   7077     1
   7065   7067     1
   7065   7072     1
   7065   7069     1
   7065   7066     1
   7066   7082     1
   7066   7071     1
   7066   7080     1
   7066   7079     1
   7067   7078     1
   7067   7082     1
   7069   7079     1
   7070   7079     1
   7073   7076     1
   7073   7077     1
   7074   7076     1
   7074   7077     1
   7077   7078     1
   7077   7079     1
   7079   7081     1
   7083   7089     1
   7083   7090     1
   7084   7087     1
   7084   7086     1
   7084   7088     1
   7086   7091     1
   7086   7089     1
   7086   7090     1
   7087   7101     1
   7087   7102     1
   7087   7094     1
   7087   7096     1
   7088   7091     1
   7088   7089     1
   7088   7090     1
   7089   7092     1
   7089   7093     1
   7090   7092     1
   7090   7093     1
   7091   7104     1
   7091   7105     1
   7091   7097     1
   7091   7098     1
   7092   7094     1
   7092   7096     1
   7093   7101     1
   7093   7102     1
   7094   7099     1
   7094   7097     1
   7094   7098     1
   7095   7121     1
   7096   7099     1
   7096   7097     1
   7096   7098     1
   7097   7100     1
   7097   7131     1
   7098   7100     1
   7098   7131     1
   7099   7114     1
   7100   7121     1
   7101   7106     1
   7101   7104     1
   7101   7105     1
   7102   7106     1
   7102   7104     1
   7102   7105     1
   7103   7145     1
   7104   7107     1
   7104   7155     1
   7105   7107     1
   7105   7155     1
   7106   7138     1
   7107   7145     1
   7108   7115     1
   7108   7130     1
   7108   7125     1
   7108   7116     1
   7109   7122     1
   7109   7123     1
   7109   7114     1
   7109   7120     1
   7110   7111     1
   7110   7129     1
   7110   7128     1
   7110   7124     1
   7110   7122     1
   7110   7123     1
   7110   7113     1
   7111   7130     1
   7111   7116     1
   7111   7121     1
   7112   7128     1
   7112   7120     1
   7112   7127     1
   7113   7115     1
   7113   7121     1
   7114   7118     1
   7114   7115     1
   7114   7117     1
   7114   7126     1
   7114   7116     1
   7114   7121     1
   7115   7129     1
   7115   7128     1
   7115   7131     1
   7115   7120     1
   7116   7131     1
   7116   7127     1
   7118   7128     1
   7119   7128     1
   7122   7126     1
   7122   7125     1
   7123   7126     1
   7123   7125     1
   7126   7128     1
   7126   7127     1
   7128   7130     1
   7132   7139     1
   7132   7154     1
   7132   7149     1
   7132   7140     1
   7133   7146     1
   7133   7147     1
   7133   7138     1
   7133   7144     1
   7134   7135     1
   7134   7153     1
   7134   7152     1
   7134   7148     1
   7134   7146     1
   7134   7147     1
   7134   7137     1
   7135   7154     1
   7135   7140     1
   7135   7145     1
   7136   7152     1
   7136   7144     1
   7136   7151     1
   7137   7139     1
   7137   7145     1
   7138   7142     1
   7138   7139     1
   7138   7141     1
   7138   7150     1
   7138   7140     1
   7138   7145     1
   7139   7153     1
   7139   7152     1
   7139   7155     1
   7139   7144     1
   7140   7155     1
   7140   7151     1
   7142   7152     1
   7143   7152     1
   7146   7150     1
   7146   7149     1
   7147   7150     1
   7147   7149     1
   7150   7152     1
   7150   7151     1
   7152   7154     1
   7156   7162     1
   7156   7163     1
   7157   7160     1
   7157   7159     1
   7157   7161     1
   7159   7164     1
   7159   7162     1
   7159   7163     1
   7160   7174     1
   7160   7175     1
   7160   7167     1
   7160   7169     1
   7161   7164     1
   7161   7162     1
   7161   7163     1
   7162   7165     1
   7162   7166     1
   7163   7165     1
   7163   7166     1
   7164   7177     1
   7164   7178     1
   7164   7170     1
   7164   7171     1
   7165   7167     1
   7165   7169     1
   7166   7174     1
   7166   7175     1
   7167   7172     1
   7167   7170     1
   7167   7171     1
   7168   7194     1
   7169   7172     1
   7169   7170     1
   7169   7171     1
   7170   7173     1
   7170   7204     1
   7171   7173     1
   7171   7204     1
   7172   7187     1
   7173   7194     1
   7174   7179     1
   7174   7177     1
   7174   7178     1
   7175   7179     1
   7175   7177     1
   7175   7178     1
   7176   7218     1
   7177   7180     1
   7177   7228     1
   7178   7180     1
   7178   7228     1
   7179   7211     1
   7180   7218     1
   7181   7188     1
   7181   7203     1
   7181   7198     1
   7181   7189     1
   7182   7187     1
   7182   7193     1
   7182   7195     1
   7182   7196     1
   7183   7184     1
   7183   7202     1
   7183   7201     1
   7183   7197     1
   7183   7195     1
   7183   7196     1
   7183   7186     1
   7184   7189     1
   7184   7194     1
   7184   7203     1
   7185   7200     1
   7185   7193     1
   7185   7201     1
   7186   7194     1
   7186   7188     1
   7187   7190     1
   7187   7199     1
   7187   7189     1
   7187   7194     1
   7187   7191     1
   7187   7188     1
   7188   7204     1
   7188   7193     1
   7188   7202     1
   7188   7201     1
   7189   7200     1
   7189   7204     1
   7191   7201     1
   7192   7201     1
   7195   7198     1
   7195   7199     1
   7196   7198     1
   7196   7199     1
   7199   7200     1
   7199   7201     1
   7201   7203     1
   7205   7212     1
   7205   7227     1
   7205   7222     1
   7205   7213     1
   7206   7211     1
   7206   7217     1
   7206   7219     1
   7206   7220     1
   7207   7208     1
   7207   7226     1
   7207   7225     1
   7207   7221     1
   7207   7219     1
   7207   7220     1
   7207   7210     1
   7208   7213     1
   7208   7218     1
   7208   7227     1
   7209   7224     1
   7209   7217     1
   7209   7225     1
   7210   7218     1
   7210   7212     1
   7211   7214     1
   7211   7223     1
   7211   7213     1
   7211   7218     1
   7211   7215     1
   7211   7212     1
   7212   7228     1
   7212   7217     1
   7212   7226     1
   7212   7225     1
   7213   7224     1
   7213   7228     1
   7215   7225     1
   7216   7225     1
   7219   7222     1
   7219   7223     1
   7220   7222     1
   7220   7223     1
   7223   7224     1
   7223   7225     1
   7225   7227     1
   7229   7235     1
   7229   7236     1
   7230   7233     1
   7230   7232     1
   7230   7234     1
   7232   7237     1
   7232   7235     1
   7232   7236     1
   7233   7247     1
   7233   7248     1
   7233   7240     1
   7233   7242     1
   7234   7237     1
   7234   7235     1
   7234   7236     1
   7235   7238     1
   7235   7239     1
   7236   7238     1
   7236   7239     1
   7237   7250     1
   7237   7251     1
   7237   7243     1
   7237   7244     1
   7238   7240     1
   7238   7242     1
   7239   7247     1
   7239   7248     1
   7240   7245     1
   7240   7243     1
   7240   7244     1
   7241   7267     1
   7242   7245     1
   7242   7243     1
   7242   7244     1
   7243   7246     1
   7243   7277     1
   7244   7246     1
   7244   7277     1
   7245   7260     1
   7246   7267     1
   7247   7252     1
   7247   7250     1
   7247   7251     1
   7248   7252     1
   7248   7250     1
   7248   7251     1
   7249   7291     1
   7250   7253     1
   7250   7301     1
   7251   7253     1
   7251   7301     1
   7252   7284     1
   7253   7291     1
   7254   7261     1
   7254   7276     1
   7254   7271     1
   7254   7262     1
   7255   7268     1
   7255   7269     1
   7255   7260     1
   7255   7266     1
   7256   7257     1
   7256   7275     1
   7256   7274     1
   7256   7270     1
   7256   7268     1
   7256   7269     1
   7256   7259     1
   7257   7276     1
   7257   7262     1
   7257   7267     1
   7258   7274     1
   7258   7266     1
   7258   7273     1
   7259   7261     1
   7259   7267     1
   7260   7264     1
   7260   7261     1
   7260   7263     1
   7260   7272     1
   7260   7262     1
   7260   7267     1
   7261   7275     1
   7261   7274     1
   7261   7277     1
   7261   7266     1
   7262   7277     1
   7262   7273     1
   7264   7274     1
   7265   7274     1
   7268   7272     1
   7268   7271     1
   7269   7272     1
   7269   7271     1
   7272   7274     1
   7272   7273     1
   7274   7276     1
   7278   7285     1
   7278   7300     1
   7278   7295     1
   7278   7286     1
   7279   7292     1
   7279   7293     1
   7279   7284     1
   7279   7290     1
   7280   7281     1
   7280   7299     1
   7280   7298     1
   7280   7294     1
   7280   7292     1
   7280   7293     1
   7280   7283     1
   7281   7300     1
   7281   7286     1
   7281   7291     1
   7282   7298     1
   7282   7290     1
   7282   7297     1
   7283   7285     1
   7283   7291     1
   7284   7288     1
   7284   7285     1
   7284   7287     1
   7284   7296     1
   7284   7286     1
   7284   7291     1
   7285   7299     1
   7285   7298     1
   7285   7301     1
   7285   7290     1
   7286   7301     1
   7286   7297     1
   7288   7298     1
   7289   7298     1
   7292   7296     1
   7292   7295     1
   7293   7296     1
   7293   7295     1
   7296   7298     1
   7296   7297     1
   7298   7300     1
   7302   7308     1
   7302   7309     1
   7303   7306     1
   7303   7305     1
   7303   7307     1
   7305   7310     1
   7305   7308     1
   7305   7309     1
   7306   7320     1
   7306   7321     1
   7306   7313     1
   7306   7315     1
   7307   7310     1
   7307   7308     1
   7307   7309     1
   7308   7311     1
   7308   7312     1
   7309   7311     1
   7309   7312     1
   7310   7323     1
   7310   7324     1
   7310   7316     1
   7310   7317     1
   7311   7313     1
   7311   7315     1
   7312   7320     1
   7312   7321     1
   7313   7318     1
   7313   7316     1
   7313   7317     1
   7314   7340     1
   7315   7318     1
   7315   7316     1
   7315   7317     1
   7316   7319     1
   7316   7350     1
   7317   7319     1
   7317   7350     1
   7318   7333     1
   7319   7340     1
   7320   7325     1
   7320   7323     1
   7320   7324     1
   7321   7325     1
   7321   7323     1
   7321   7324     1
   7322   7364     1
   7323   7326     1
   7323   7374     1
   7324   7326     1
   7324   7374     1
   7325   7357     1
   7326   7364     1
   7327   7334     1
   7327   7349     1
   7327   7344     1
   7327   7335     1
   7328   7333     1
   7328   7339     1
   7328   7341     1
   7328   7342     1
   7329   7330     1
   7329   7348     1
   7329   7347     1
   7329   7343     1
   7329   7341     1
   7329   7342     1
   7329   7332     1
   7330   7335     1
   7330   7340     1
   7330   7349     1
   7331   7346     1
   7331   7339     1
   7331   7347     1
   7332   7340     1
   7332   7334     1
   7333   7336     1
   7333   7345     1
   7333   7335     1
   7333   7340     1
   7333   7337     1
   7333   7334     1
   7334   7350     1
   7334   7339     1
   7334   7348     1
   7334   7347     1
   7335   7346     1
   7335   7350     1
   7337   7347     1
   7338   7347     1
   7341   7344     1
   7341   7345     1
   7342   7344     1
   7342   7345     1
   7345   7346     1
   7345   7347     1
   7347   7349     1
   7351   7358     1
   7351   7373     1
   7351   7368     1
   7351   7359     1
   7352   7357     1
   7352   7363     1
   7352   7365     1
   7352   7366     1
   7353   7354     1
   7353   7372     1
   7353   7371     1
   7353   7367     1
   7353   7365     1
   7353   7366     1
   7353   7356     1
   7354   7359     1
   7354   7364     1
   7354   7373     1
   7355   7370     1
   7355   7363     1
   7355   7371     1
   7356   7364     1
   7356   7358     1
   7357   7360     1
   7357   7369     1
   7357   7359     1
   7357   7364     1
   7357   7361     1
   7357   7358     1
   7358   7374     1
   7358   7363     1
   7358   7372     1
   7358   7371     1
   7359   7370     1
   7359   7374     1
   7361   7371     1
   7362   7371     1
   7365   7368     1
   7365   7369     1
   7366   7368     1
   7366   7369     1
   7369   7370     1
   7369   7371     1
   7371   7373     1
   7375   7381     1
   7375   7382     1
   7376   7379     1
   7376   7378     1
   7376   7380     1
   7378   7383     1
   7378   7381     1
   7378   7382     1
   7379   7393     1
   7379   7394     1
   7379   7386     1
   7379   7388     1
   7380   7383     1
   7380   7381     1
   7380   7382     1
   7381   7384     1
   7381   7385     1
   7382   7384     1
   7382   7385     1
   7383   7396     1
   7383   7397     1
   7383   7389     1
   7383   7390     1
   7384   7386     1
   7384   7388     1
   7385   7393     1
   7385   7394     1
   7386   7391     1
   7386   7389     1
   7386   7390     1
   7387   7413     1
   7388   7391     1
   7388   7389     1
   7388   7390     1
   7389   7392     1
   7389   7423     1
   7390   7392     1
   7390   7423     1
   7391   7406     1
   7392   7413     1
   7393   7398     1
   7393   7396     1
   7393   7397     1
   7394   7398     1
   7394   7396     1
   7394   7397     1
   7395   7437     1
   7396   7399     1
   7396   7447     1
   7397   7399     1
   7397   7447     1
   7398   7430     1
   7399   7437     1
   7400   7407     1
   7400   7422     1
   7400   7417     1
   7400   7408     1
   7401   7414     1
   7401   7415     1
   7401   7406     1
   7401   7412     1
   7402   7403     1
   7402   7421     1
   7402   7420     1
   7402   7416     1
   7402   7414     1
   7402   7415     1
   7402   7405     1
   7403   7422     1
   7403   7408     1
   7403   7413     1
   7404   7420     1
   7404   7412     1
   7404   7419     1
   7405   7407     1
   7405   7413     1
   7406   7410     1
   7406   7407     1
   7406   7409     1
   7406   7418     1
   7406   7408     1
   7406   7413     1
   7407   7421     1
   7407   7420     1
   7407   7423     1
   7407   7412     1
   7408   7423     1
   7408   7419     1
   7410   7420     1
   7411   7420     1
   7414   7418     1
   7414   7417     1
   7415   7418     1
   7415   7417     1
   7418   7420     1
   7418   7419     1
   7420   7422     1
   7424   7431     1
   7424   7446     1
   7424   7441     1
   7424   7432     1
   7425   7438     1
   7425   7439     1
   7425   7430     1
   7425   7436     1
   7426   7427     1
   7426   7445     1
   7426   7444     1
   7426   7440     1
   7426   7438     1
   7426   7439     1
   7426   7429     1
   7427   7446     1
   7427   7432     1
   7427   7437     1
   7428   7444     1
   7428   7436     1
   7428   7443     1
   7429   7431     1
   7429   7437     1
   7430   7434     1
   7430   7431     1
   7430   7433     1
   7430   7442     1
   7430   7432     1
   7430   7437     1
   7431   7445     1
   7431   7444     1
   7431   7447     1
   7431   7436     1
   7432   7447     1
   7432   7443     1
   7434   7444     1
   7435   7444     1
   7438   7442     1
   7438   7441     1
   7439   7442     1
   7439   7441     1
   7442   7444     1
   7442   7443     1
   7444   7446     1
   7448   7454     1
   7448   7455     1
   7449   7452     1
   7449   7451     1
   7449   7453     1
   7451   7456     1
   7451   7454     1
   7451   7455     1
   7452   7466     1
   7452   7467     1
   7452   7459     1
   7452   7461     1
   7453   7456     1
   7453   7454     1
   7453   7455     1
   7454   7457     1
   7454   7458     1
   7455   7457     1
   7455   7458     1
   7456   7469     1
   7456   7470     1
   7456   7462     1
   7456   7463     1
   7457   7459     1
   7457   7461     1
   7458   7466     1
   7458   7467     1
   7459   7464     1
   7459   7462     1
   7459   7463     1
   7460   7486     1
   7461   7464     1
   7461   7462     1
   7461   7463     1
   7462   7465     1
   7462   7496     1
   7463   7465     1
   7463   7496     1
   7464   7479     1
   7465   7486     1
   7466   7471     1
   7466   7469     1
   7466   7470     1
   7467   7471     1
   7467   7469     1
   7467   7470     1
   7468   7510     1
   7469   7472     1
   7469   7520     1
   7470   7472     1
   7470   7520     1
   7471   7503     1
   7472   7510     1
   7473   7480     1
   7473   7495     1
   7473   7490     1
   7473   7481     1
   7474   7479     1
   7474   7485     1
   7474   7487     1
   7474   7488     1
   7475   7476     1
   7475   7494     1
   7475   7493     1
   7475   7489     1
   7475   7487     1
   7475   7488     1
   7475   7478     1
   7476   7481     1
   7476   7486     1
   7476   7495     1
   7477   7492     1
   7477   7485     1
   7477   7493     1
   7478   7486     1
   7478   7480     1
   7479   7482     1
   7479   7491     1
   7479   7481     1
   7479   7486     1
   7479   7483     1
   7479   7480     1
   7480   7496     1
   7480   7485     1
   7480   7494     1
   7480   7493     1
   7481   7492     1
   7481   7496     1
   7483   7493     1
   7484   7493     1
   7487   7490     1
   7487   7491     1
   7488   7490     1
   7488   7491     1
   7491   7492     1
   7491   7493     1
   7493   7495     1
   7497   7504     1
   7497   7519     1
   7497   7514     1
   7497   7505     1
   7498   7503     1
   7498   7509     1
   7498   7511     1
   7498   7512     1
   7499   7500     1
   7499   7518     1
   7499   7517     1
   7499   7513     1
   7499   7511     1
   7499   7512     1
   7499   7502     1
   7500   7505     1
   7500   7510     1
   7500   7519     1
   7501   7516     1
   7501   7509     1
   7501   7517     1
   7502   7510     1
   7502   7504     1
   7503   7506     1
   7503   7515     1
   7503   7505     1
   7503   7510     1
   7503   7507     1
   7503   7504     1
   7504   7520     1
   7504   7509     1
   7504   7518     1
   7504   7517     1
   7505   7516     1
   7505   7520     1
   7507   7517     1
   7508   7517     1
   7511   7514     1
   7511   7515     1
   7512   7514     1
   7512   7515     1
   7515   7516     1
   7515   7517     1
   7517   7519     1
   7521   7527     1
   7521   7528     1
   7522   7525     1
   7522   7524     1
   7522   7526     1
   7524   7529     1
   7524   7527     1
   7524   7528     1
   7525   7539     1
   7525   7540     1
   7525   7532     1
   7525   7534     1
   7526   7529     1
   7526   7527     1
   7526   7528     1
   7527   7530     1
   7527   7531     1
   7528   7530     1
   7528   7531     1
   7529   7542     1
   7529   7543     1
   7529   7535     1
   7529   7536     1
   7530   7532     1
   7530   7534     1
   7531   7539     1
   7531   7540     1
   7532   7537     1
   7532   7535     1
   7532   7536     1
   7533   7559     1
   7534   7537     1
   7534   7535     1
   7534   7536     1
   7535   7538     1
   7535   7569     1
   7536   7538     1
   7536   7569     1
   7537   7552     1
   7538   7559     1
   7539   7544     1
   7539   7542     1
   7539   7543     1
   7540   7544     1
   7540   7542     1
   7540   7543     1
   7541   7583     1
   7542   7545     1
   7542   7593     1
   7543   7545     1
   7543   7593     1
   7544   7576     1
   7545   7583     1
   7546   7553     1
   7546   7568     1
   7546   7563     1
   7546   7554     1
   7547   7560     1
   7547   7561     1
   7547   7552     1
   7547   7558     1
   7548   7549     1
   7548   7567     1
   7548   7566     1
   7548   7562     1
   7548   7560     1
   7548   7561     1
   7548   7551     1
   7549   7568     1
   7549   7554     1
   7549   7559     1
   7550   7566     1
   7550   7558     1
   7550   7565     1
   7551   7553     1
   7551   7559     1
   7552   7556     1
   7552   7553     1
   7552   7555     1
   7552   7564     1
   7552   7554     1
   7552   7559     1
   7553   7567     1
   7553   7566     1
   7553   7569     1
   7553   7558     1
   7554   7569     1
   7554   7565     1
   7556   7566     1
   7557   7566     1
   7560   7564     1
   7560   7563     1
   7561   7564     1
   7561   7563     1
   7564   7566     1
   7564   7565     1
   7566   7568     1
   7570   7577     1
   7570   7592     1
   7570   7587     1
   7570   7578     1
   7571   7584     1
   7571   7585     1
   7571   7576     1
   7571   7582     1
   7572   7573     1
   7572   7591     1
   7572   7590     1
   7572   7586     1
   7572   7584     1
   7572   7585     1
   7572   7575     1
   7573   7592     1
   7573   7578     1
   7573   7583     1
   7574   7590     1
   7574   7582     1
   7574   7589     1
   7575   7577     1
   7575   7583     1
   7576   7580     1
   7576   7577     1
   7576   7579     1
   7576   7588     1
   7576   7578     1
   7576   7583     1
   7577   7591     1
   7577   7590     1
   7577   7593     1
   7577   7582     1
   7578   7593     1
   7578   7589     1
   7580   7590     1
   7581   7590     1
   7584   7588     1
   7584   7587     1
   7585   7588     1
   7585   7587     1
   7588   7590     1
   7588   7589     1
   7590   7592     1
   7594   7600     1
   7594   7601     1
   7595   7598     1
   7595   7597     1
   7595   7599     1
   7597   7602     1
   7597   7600     1
   7597   7601     1
   7598   7612     1
   7598   7613     1
   7598   7605     1
   7598   7607     1
   7599   7602     1
   7599   7600     1
   7599   7601     1
   7600   7603     1
   7600   7604     1
   7601   7603     1
   7601   7604     1
   7602   7615     1
   7602   7616     1
   7602   7608     1
   7602   7609     1
   7603   7605     1
   7603   7607     1
   7604   7612     1
   7604   7613     1
   7605   7610     1
   7605   7608     1
   7605   7609     1
   7606   7632     1
   7607   7610     1
   7607   7608     1
   7607   7609     1
   7608   7611     1
   7608   7642     1
   7609   7611     1
   7609   7642     1
   7610   7625     1
   7611   7632     1
   7612   7617     1
   7612   7615     1
   7612   7616     1
   7613   7617     1
   7613   7615     1
   7613   7616     1
   7614   7656     1
   7615   7618     1
   7615   7666     1
   7616   7618     1
   7616   7666     1
   7617   7649     1
   7618   7656     1
   7619   7626     1
   7619   7641     1
   7619   7636     1
   7619   7627     1
   7620   7625     1
   7620   7631     1
   7620   7633     1
   7620   7634     1
   7621   7622     1
   7621   7640     1
   7621   7639     1
   7621   7635     1
   7621   7633     1
   7621   7634     1
   7621   7624     1
   7622   7627     1
   7622   7632     1
   7622   7641     1
   7623   7638     1
   7623   7631     1
   7623   7639     1
   7624   7632     1
   7624   7626     1
   7625   7628     1
   7625   7637     1
   7625   7627     1
   7625   7632     1
   7625   7629     1
   7625   7626     1
   7626   7642     1
   7626   7631     1
   7626   7640     1
   7626   7639     1
   7627   7638     1
   7627   7642     1
   7629   7639     1
   7630   7639     1
   7633   7636     1
   7633   7637     1
   7634   7636     1
   7634   7637     1
   7637   7638     1
   7637   7639     1
   7639   7641     1
   7643   7650     1
   7643   7665     1
   7643   7660     1
   7643   7651     1
   7644   7649     1
   7644   7655     1
   7644   7657     1
   7644   7658     1
   7645   7646     1
   7645   7664     1
   7645   7663     1
   7645   7659     1
   7645   7657     1
   7645   7658     1
   7645   7648     1
   7646   7651     1
   7646   7656     1
   7646   7665     1
   7647   7662     1
   7647   7655     1
   7647   7663     1
   7648   7656     1
   7648   7650     1
   7649   7652     1
   7649   7661     1
   7649   7651     1
   7649   7656     1
   7649   7653     1
   7649   7650     1
   7650   7666     1
   7650   7655     1
   7650   7664     1
   7650   7663     1
   7651   7662     1
   7651   7666     1
   7653   7663     1
   7654   7663     1
   7657   7660     1
   7657   7661     1
   7658   7660     1
   7658   7661     1
   7661   7662     1
   7661   7663     1
   7663   7665     1
   7667   7673     1
   7667   7674     1
   7668   7671     1
   7668   7670     1
   7668   7672     1
   7670   7675     1
   7670   7673     1
   7670   7674     1
   7671   7685     1
   7671   7686     1
   7671   7678     1
   7671   7680     1
   7672   7675     1
   7672   7673     1
   7672   7674     1
   7673   7676     1
   7673   7677     1
   7674   7676     1
   7674   7677     1
   7675   7688     1
   7675   7689     1
   7675   7681     1
   7675   7682     1
   7676   7678     1
   7676   7680     1
   7677   7685     1
   7677   7686     1
   7678   7683     1
   7678   7681     1
   7678   7682     1
   7679   7705     1
   7680   7683     1
   7680   7681     1
   7680   7682     1
   7681   7684     1
   7681   7715     1
   7682   7684     1
   7682   7715     1
   7683   7698     1
   7684   7705     1
   7685   7690     1
   7685   7688     1
   7685   7689     1
   7686   7690     1
   7686   7688     1
   7686   7689     1
   7687   7729     1
   7688   7691     1
   7688   7739     1
   7689   7691     1
   7689   7739     1
   7690   7722     1
   7691   7729     1
   7692   7699     1
   7692   7714     1
   7692   7709     1
   7692   7700     1
   7693   7706     1
   7693   7707     1
   7693   7698     1
   7693   7704     1
   7694   7695     1
   7694   7713     1
   7694   7712     1
   7694   7708     1
   7694   7706     1
   7694   7707     1
   7694   7697     1
   7695   7714     1
   7695   7700     1
   7695   7705     1
   7696   7712     1
   7696   7704     1
   7696   7711     1
   7697   7699     1
   7697   7705     1
   7698   7702     1
   7698   7699     1
   7698   7701     1
   7698   7710     1
   7698   7700     1
   7698   7705     1
   7699   7713     1
   7699   7712     1
   7699   7715     1
   7699   7704     1
   7700   7715     1
   7700   7711     1
   7702   7712     1
   7703   7712     1
   7706   7710     1
   7706   7709     1
   7707   7710     1
   7707   7709     1
   7710   7712     1
   7710   7711     1
   7712   7714     1
   7716   7723     1
   7716   7738     1
   7716   7733     1
   7716   7724     1
   7717   7730     1
   7717   7731     1
   7717   7722     1
   7717   7728     1
   7718   7719     1
   7718   7737     1
   7718   7736     1
   7718   7732     1
   7718   7730     1
   7718   7731     1
   7718   7721     1
   7719   7738     1
   7719   7724     1
   7719   7729     1
   7720   7736     1
   7720   7728     1
   7720   7735     1
   7721   7723     1
   7721   7729     1
   7722   7726     1
   7722   7723     1
   7722   7725     1
   7722   7734     1
   7722   7724     1
   7722   7729     1
   7723   7737     1
   7723   7736     1
   7723   7739     1
   7723   7728     1
   7724   7739     1
   7724   7735     1
   7726   7736     1
   7727   7736     1
   7730   7734     1
   7730   7733     1
   7731   7734     1
   7731   7733     1
   7734   7736     1
   7734   7735     1
   7736   7738     1
   7740   7746     1
   7740   7747     1
   7741   7744     1
   7741   7743     1
   7741   7745     1
   7743   7748     1
   7743   7746     1
   7743   7747     1
   7744   7758     1
   7744   7759     1
   7744   7751     1
   7744   7753     1
   7745   7748     1
   7745   7746     1
   7745   7747     1
   7746   7749     1
   7746   7750     1
   7747   7749     1
   7747   7750     1
   7748   7761     1
   7748   7762     1
   7748   7754     1
   7748   7755     1
   7749   7751     1
   7749   7753     1
   7750   7758     1
   7750   7759     1
   7751   7756     1
   7751   7754     1
   7751   7755     1
   7752   7778     1
   7753   7756     1
   7753   7754     1
   7753   7755     1
   7754   7757     1
   7754   7788     1
   7755   7757     1
   7755   7788     1
   7756   7771     1
   7757   7778     1
   7758   7763     1
   7758   7761     1
   7758   7762     1
   7759   7763     1
   7759   7761     1
   7759   7762     1
   7760   7802     1
   7761   7764     1
   7761   7812     1
   7762   7764     1
   7762   7812     1
   7763   7795     1
   7764   7802     1
   7765   7772     1
   7765   7787     1
   7765   7782     1
   7765   7773     1
   7766   7771     1
   7766   7777     1
   7766   7779     1
   7766   7780     1
   7767   7768     1
   7767   7786     1
   7767   7785     1
   7767   7781     1
   7767   7779     1
   7767   7780     1
   7767   7770     1
   7768   7773     1
   7768   7778     1
   7768   7787     1
   7769   7784     1
   7769   7777     1
   7769   7785     1
   7770   7778     1
   7770   7772     1
   7771   7774     1
   7771   7783     1
   7771   7773     1
   7771   7778     1
   7771   7775     1
   7771   7772     1
   7772   7788     1
   7772   7777     1
   7772   7786     1
   7772   7785     1
   7773   7784     1
   7773   7788     1
   7775   7785     1
   7776   7785     1
   7779   7782     1
   7779   7783     1
   7780   7782     1
   7780   7783     1
   7783   7784     1
   7783   7785     1
   7785   7787     1
   7789   7796     1
   7789   7811     1
   7789   7806     1
   7789   7797     1
   7790   7795     1
   7790   7801     1
   7790   7803     1
   7790   7804     1
   7791   7792     1
   7791   7810     1
   7791   7809     1
   7791   7805     1
   7791   7803     1
   7791   7804     1
   7791   7794     1
   7792   7797     1
   7792   7802     1
   7792   7811     1
   7793   7808     1
   7793   7801     1
   7793   7809     1
   7794   7802     1
   7794   7796     1
   7795   7798     1
   7795   7807     1
   7795   7797     1
   7795   7802     1
   7795   7799     1
   7795   7796     1
   7796   7812     1
   7796   7801     1
   7796   7810     1
   7796   7809     1
   7797   7808     1
   7797   7812     1
   7799   7809     1
   7800   7809     1
   7803   7806     1
   7803   7807     1
   7804   7806     1
   7804   7807     1
   7807   7808     1
   7807   7809     1
   7809   7811     1
   7813   7819     1
   7813   7820     1
   7814   7817     1
   7814   7816     1
   7814   7818     1
   7816   7821     1
   7816   7819     1
   7816   7820     1
   7817   7831     1
   7817   7832     1
   7817   7824     1
   7817   7826     1
   7818   7821     1
   7818   7819     1
   7818   7820     1
   7819   7822     1
   7819   7823     1
   7820   7822     1
   7820   7823     1
   7821   7834     1
   7821   7835     1
   7821   7827     1
   7821   7828     1
   7822   7824     1
   7822   7826     1
   7823   7831     1
   7823   7832     1
   7824   7829     1
   7824   7827     1
   7824   7828     1
   7825   7851     1
   7826   7829     1
   7826   7827     1
   7826   7828     1
   7827   7830     1
   7827   7861     1
   7828   7830     1
   7828   7861     1
   7829   7844     1
   7830   7851     1
   7831   7836     1
   7831   7834     1
   7831   7835     1
   7832   7836     1
   7832   7834     1
   7832   7835     1
   7833   7875     1
   7834   7837     1
   7834   7885     1
   7835   7837     1
   7835   7885     1
   7836   7868     1
   7837   7875     1
   7838   7845     1
   7838   7860     1
   7838   7855     1
   7838   7846     1
   7839   7852     1
   7839   7853     1
   7839   7844     1
   7839   7850     1
   7840   7841     1
   7840   7859     1
   7840   7858     1
   7840   7854     1
   7840   7852     1
   7840   7853     1
   7840   7843     1
   7841   7860     1
   7841   7846     1
   7841   7851     1
   7842   7858     1
   7842   7850     1
   7842   7857     1
   7843   7845     1
   7843   7851     1
   7844   7848     1
   7844   7845     1
   7844   7847     1
   7844   7856     1
   7844   7846     1
   7844   7851     1
   7845   7859     1
   7845   7858     1
   7845   7861     1
   7845   7850     1
   7846   7861     1
   7846   7857     1
   7848   7858     1
   7849   7858     1
   7852   7856     1
   7852   7855     1
   7853   7856     1
   7853   7855     1
   7856   7858     1
   7856   7857     1
   7858   7860     1
   7862   7869     1
   7862   7884     1
   7862   7879     1
   7862   7870     1
   7863   7876     1
   7863   7877     1
   7863   7868     1
   7863   7874     1
   7864   7865     1
   7864   7883     1
   7864   7882     1
   7864   7878     1
   7864   7876     1
   7864   7877     1
   7864   7867     1
   7865   7884     1
   7865   7870     1
   7865   7875     1
   7866   7882     1
   7866   7874     1
   7866   7881     1
   7867   7869     1
   7867   7875     1
   7868   7872     1
   7868   7869     1
   7868   7871     1
   7868   7880     1
   7868   7870     1
   7868   7875     1
   7869   7883     1
   7869   7882     1
   7869   7885     1
   7869   7874     1
   7870   7885     1
   7870   7881     1
   7872   7882     1
   7873   7882     1
   7876   7880     1
   7876   7879     1
   7877   7880     1
   7877   7879     1
   7880   7882     1
   7880   7881     1
   7882   7884     1
   7886   7892     1
   7886   7893     1
   7887   7890     1
   7887   7889     1
   7887   7891     1
   7889   7894     1
   7889   7892     1
   7889   7893     1
   7890   7904     1
   7890   7905     1
   7890   7897     1
   7890   7899     1
   7891   7894     1
   7891   7892     1
   7891   7893     1
   7892   7895     1
   7892   7896     1
   7893   7895     1
   7893   7896     1
   7894   7907     1
   7894   7908     1
   7894   7900     1
   7894   7901     1
   7895   7897     1
   7895   7899     1
   7896   7904     1
   7896   7905     1
   7897   7902     1
   7897   7900     1
   7897   7901     1
   7898   7924     1
   7899   7902     1
   7899   7900     1
   7899   7901     1
   7900   7903     1
   7900   7934     1
   7901   7903     1
   7901   7934     1
   7902   7917     1
   7903   7924     1
   7904   7909     1
   7904   7907     1
   7904   7908     1
   7905   7909     1
   7905   7907     1
   7905   7908     1
   7906   7948     1
   7907   7910     1
   7907   7958     1
   7908   7910     1
   7908   7958     1
   7909   7941     1
   7910   7948     1
   7911   7918     1
   7911   7933     1
   7911   7928     1
   7911   7919     1
   7912   7917     1
   7912   7923     1
   7912   7925     1
   7912   7926     1
   7913   7914     1
   7913   7932     1
   7913   7931     1
   7913   7927     1
   7913   7925     1
   7913   7926     1
   7913   7916     1
   7914   7919     1
   7914   7924     1
   7914   7933     1
   7915   7930     1
   7915   7923     1
   7915   7931     1
   7916   7924     1
   7916   7918     1
   7917   7920     1
   7917   7929     1
   7917   7919     1
   7917   7924     1
   7917   7921     1
   7917   7918     1
   7918   7934     1
   7918   7923     1
   7918   7932     1
   7918   7931     1
   7919   7930     1
   7919   7934     1
   7921   7931     1
   7922   7931     1
   7925   7928     1
   7925   7929     1
   7926   7928     1
   7926   7929     1
   7929   7930     1
   7929   7931     1
   7931   7933     1
   7935   7942     1
   7935   7957     1
   7935   7952     1
   7935   7943     1
   7936   7941     1
   7936   7947     1
   7936   7949     1
   7936   7950     1
   7937   7938     1
   7937   7956     1
   7937   7955     1
   7937   7951     1
   7937   7949     1
   7937   7950     1
   7937   7940     1
   7938   7943     1
   7938   7948     1
   7938   7957     1
   7939   7954     1
   7939   7947     1
   7939   7955     1
   7940   7948     1
   7940   7942     1
   7941   7944     1
   7941   7953     1
   7941   7943     1
   7941   7948     1
   7941   7945     1
   7941   7942     1
   7942   7958     1
   7942   7947     1
   7942   7956     1
   7942   7955     1
   7943   7954     1
   7943   7958     1
   7945   7955     1
   7946   7955     1
   7949   7952     1
   7949   7953     1
   7950   7952     1
   7950   7953     1
   7953   7954     1
   7953   7955     1
   7955   7957     1
   7959   7965     1
   7959   7966     1
   7960   7963     1
   7960   7962     1
   7960   7964     1
   7962   7967     1
   7962   7965     1
   7962   7966     1
   7963   7977     1
   7963   7978     1
   7963   7970     1
   7963   7972     1
   7964   7967     1
   7964   7965     1
   7964   7966     1
   7965   7968     1
   7965   7969     1
   7966   7968     1
   7966   7969     1
   7967   7980     1
   7967   7981     1
   7967   7973     1
   7967   7974     1
   7968   7970     1
   7968   7972     1
   7969   7977     1
   7969   7978     1
   7970   7975     1
   7970   7973     1
   7970   7974     1
   7971   7997     1
   7972   7975     1
   7972   7973     1
   7972   7974     1
   7973   7976     1
   7973   8007     1
   7974   7976     1
   7974   8007     1
   7975   7990     1
   7976   7997     1
   7977   7982     1
   7977   7980     1
   7977   7981     1
   7978   7982     1
   7978   7980     1
   7978   7981     1
   7979   8021     1
   7980   7983     1
   7980   8031     1
   7981   7983     1
   7981   8031     1
   7982   8014     1
   7983   8021     1
   7984   7991     1
   7984   8006     1
   7984   8001     1
   7984   7992     1
   7985   7998     1
   7985   7999     1
   7985   7990     1
   7985   7996     1
   7986   7987     1
   7986   8005     1
   7986   8004     1
   7986   8000     1
   7986   7998     1
   7986   7999     1
   7986   7989     1
   7987   8006     1
   7987   7992     1
   7987   7997     1
   7988   8004     1
   7988   7996     1
   7988   8003     1
   7989   7991     1
   7989   7997     1
   7990   7994     1
   7990   7991     1
   7990   7993     1
   7990   8002     1
   7990   7992     1
   7990   7997     1
   7991   8005     1
   7991   8004     1
   7991   8007     1
   7991   7996     1
   7992   8007     1
   7992   8003     1
   7994   8004     1
   7995   8004     1
   7998   8002     1
   7998   8001     1
   7999   8002     1
   7999   8001     1
   8002   8004     1
   8002   8003     1
   8004   8006     1
   8008   8015     1
   8008   8030     1
   8008   8025     1
   8008   8016     1
   8009   8022     1
   8009   8023     1
   8009   8014     1
   8009   8020     1
   8010   8011     1
   8010   8029     1
   8010   8028     1
   8010   8024     1
   8010   8022     1
   8010   8023     1
   8010   8013     1
   8011   8030     1
   8011   8016     1
   8011   8021     1
   8012   8028     1
   8012   8020     1
   8012   8027     1
   8013   8015     1
   8013   8021     1
   8014   8018     1
   8014   8015     1
   8014   8017     1
   8014   8026     1
   8014   8016     1
   8014   8021     1
   8015   8029     1
   8015   8028     1
   8015   8031     1
   8015   8020     1
   8016   8031     1
   8016   8027     1
   8018   8028     1
   8019   8028     1
   8022   8026     1
   8022   8025     1
   8023   8026     1
   8023   8025     1
   8026   8028     1
   8026   8027     1
   8028   8030     1
   8032   8038     1
   8032   8039     1
   8033   8036     1
   8033   8035     1
   8033   8037     1
   8035   8040     1
   8035   8038     1
   8035   8039     1
   8036   8050     1
   8036   8051     1
   8036   8043     1
   8036   8045     1
   8037   8040     1
   8037   8038     1
   8037   8039     1
   8038   8041     1
   8038   8042     1
   8039   8041     1
   8039   8042     1
   8040   8053     1
   8040   8054     1
   8040   8046     1
   8040   8047     1
   8041   8043     1
   8041   8045     1
   8042   8050     1
   8042   8051     1
   8043   8048     1
   8043   8046     1
   8043   8047     1
   8044   8070     1
   8045   8048     1
   8045   8046     1
   8045   8047     1
   8046   8049     1
   8046   8080     1
   8047   8049     1
   8047   8080     1
   8048   8063     1
   8049   8070     1
   8050   8055     1
   8050   8053     1
   8050   8054     1
   8051   8055     1
   8051   8053     1
   8051   8054     1
   8052   8094     1
   8053   8056     1
   8053   8104     1
   8054   8056     1
   8054   8104     1
   8055   8087     1
   8056   8094     1
   8057   8064     1
   8057   8079     1
   8057   8074     1
   8057   8065     1
   8058   8063     1
   8058   8069     1
   8058   8071     1
   8058   8072     1
   8059   8060     1
   8059   8078     1
   8059   8077     1
   8059   8073     1
   8059   8071     1
   8059   8072     1
   8059   8062     1
   8060   8065     1
   8060   8070     1
   8060   8079     1
   8061   8076     1
   8061   8069     1
   8061   8077     1
   8062   8070     1
   8062   8064     1
   8063   8066     1
   8063   8075     1
   8063   8065     1
   8063   8070     1
   8063   8067     1
   8063   8064     1
   8064   8080     1
   8064   8069     1
   8064   8078     1
   8064   8077     1
   8065   8076     1
   8065   8080     1
   8067   8077     1
   8068   8077     1
   8071   8074     1
   8071   8075     1
   8072   8074     1
   8072   8075     1
   8075   8076     1
   8075   8077     1
   8077   8079     1
   8081   8088     1
   8081   8103     1
   8081   8098     1
   8081   8089     1
   8082   8087     1
   8082   8093     1
   8082   8095     1
   8082   8096     1
   8083   8084     1
   8083   8102     1
   8083   8101     1
   8083   8097     1
   8083   8095     1
   8083   8096     1
   8083   8086     1
   8084   8089     1
   8084   8094     1
   8084   8103     1
   8085   8100     1
   8085   8093     1
   8085   8101     1
   8086   8094     1
   8086   8088     1
   8087   8090     1
   8087   8099     1
   8087   8089     1
   8087   8094     1
   8087   8091     1
   8087   8088     1
   8088   8104     1
   8088   8093     1
   8088   8102     1
   8088   8101     1
   8089   8100     1
   8089   8104     1
   8091   8101     1
   8092   8101     1
   8095   8098     1
   8095   8099     1
   8096   8098     1
   8096   8099     1
   8099   8100     1
   8099   8101     1
   8101   8103     1
   8105   8111     1
   8105   8112     1
   8106   8109     1
   8106   8108     1
   8106   8110     1
   8108   8113     1
   8108   8111     1
   8108   8112     1
   8109   8123     1
   8109   8124     1
   8109   8116     1
   8109   8118     1
   8110   8113     1
   8110   8111     1
   8110   8112     1
   8111   8114     1
   8111   8115     1
   8112   8114     1
   8112   8115     1
   8113   8126     1
   8113   8127     1
   8113   8119     1
   8113   8120     1
   8114   8116     1
   8114   8118     1
   8115   8123     1
   8115   8124     1
   8116   8121     1
   8116   8119     1
   8116   8120     1
   8117   8143     1
   8118   8121     1
   8118   8119     1
   8118   8120     1
   8119   8122     1
   8119   8153     1
   8120   8122     1
   8120   8153     1
   8121   8136     1
   8122   8143     1
   8123   8128     1
   8123   8126     1
   8123   8127     1
   8124   8128     1
   8124   8126     1
   8124   8127     1
   8125   8167     1
   8126   8129     1
   8126   8177     1
   8127   8129     1
   8127   8177     1
   8128   8160     1
   8129   8167     1
   8130   8137     1
   8130   8152     1
   8130   8147     1
   8130   8138     1
   8131   8144     1
   8131   8145     1
   8131   8136     1
   8131   8142     1
   8132   8133     1
   8132   8151     1
   8132   8150     1
   8132   8146     1
   8132   8144     1
   8132   8145     1
   8132   8135     1
   8133   8152     1
   8133   8138     1
   8133   8143     1
   8134   8150     1
   8134   8142     1
   8134   8149     1
   8135   8137     1
   8135   8143     1
   8136   8140     1
   8136   8137     1
   8136   8139     1
   8136   8148     1
   8136   8138     1
   8136   8143     1
   8137   8151     1
   8137   8150     1
   8137   8153     1
   8137   8142     1
   8138   8153     1
   8138   8149     1
   8140   8150     1
   8141   8150     1
   8144   8148     1
   8144   8147     1
   8145   8148     1
   8145   8147     1
   8148   8150     1
   8148   8149     1
   8150   8152     1
   8154   8161     1
   8154   8176     1
   8154   8171     1
   8154   8162     1
   8155   8168     1
   8155   8169     1
   8155   8160     1
   8155   8166     1
   8156   8157     1
   8156   8175     1
   8156   8174     1
   8156   8170     1
   8156   8168     1
   8156   8169     1
   8156   8159     1
   8157   8176     1
   8157   8162     1
   8157   8167     1
   8158   8174     1
   8158   8166     1
   8158   8173     1
   8159   8161     1
   8159   8167     1
   8160   8164     1
   8160   8161     1
   8160   8163     1
   8160   8172     1
   8160   8162     1
   8160   8167     1
   8161   8175     1
   8161   8174     1
   8161   8177     1
   8161   8166     1
   8162   8177     1
   8162   8173     1
   8164   8174     1
   8165   8174     1
   8168   8172     1
   8168   8171     1
   8169   8172     1
   8169   8171     1
   8172   8174     1
   8172   8173     1
   8174   8176     1
   8178   8184     1
   8178   8185     1
   8179   8182     1
   8179   8181     1
   8179   8183     1
   8181   8186     1
   8181   8184     1
   8181   8185     1
   8182   8196     1
   8182   8197     1
   8182   8189     1
   8182   8191     1
   8183   8186     1
   8183   8184     1
   8183   8185     1
   8184   8187     1
   8184   8188     1
   8185   8187     1
   8185   8188     1
   8186   8199     1
   8186   8200     1
   8186   8192     1
   8186   8193     1
   8187   8189     1
   8187   8191     1
   8188   8196     1
   8188   8197     1
   8189   8194     1
   8189   8192     1
   8189   8193     1
   8190   8216     1
   8191   8194     1
   8191   8192     1
   8191   8193     1
   8192   8195     1
   8192   8226     1
   8193   8195     1
   8193   8226     1
   8194   8209     1
   8195   8216     1
   8196   8201     1
   8196   8199     1
   8196   8200     1
   8197   8201     1
   8197   8199     1
   8197   8200     1
   8198   8240     1
   8199   8202     1
   8199   8250     1
   8200   8202     1
   8200   8250     1
   8201   8233     1
   8202   8240     1
   8203   8210     1
   8203   8225     1
   8203   8220     1
   8203   8211     1
   8204   8209     1
   8204   8215     1
   8204   8217     1
   8204   8218     1
   8205   8206     1
   8205   8224     1
   8205   8223     1
   8205   8219     1
   8205   8217     1
   8205   8218     1
   8205   8208     1
   8206   8211     1
   8206   8216     1
   8206   8225     1
   8207   8222     1
   8207   8215     1
   8207   8223     1
   8208   8216     1
   8208   8210     1
   8209   8212     1
   8209   8221     1
   8209   8211     1
   8209   8216     1
   8209   8213     1
   8209   8210     1
   8210   8226     1
   8210   8215     1
   8210   8224     1
   8210   8223     1
   8211   8222     1
   8211   8226     1
   8213   8223     1
   8214   8223     1
   8217   8220     1
   8217   8221     1
   8218   8220     1
   8218   8221     1
   8221   8222     1
   8221   8223     1
   8223   8225     1
   8227   8234     1
   8227   8249     1
   8227   8244     1
   8227   8235     1
   8228   8233     1
   8228   8239     1
   8228   8241     1
   8228   8242     1
   8229   8230     1
   8229   8248     1
   8229   8247     1
   8229   8243     1
   8229   8241     1
   8229   8242     1
   8229   8232     1
   8230   8235     1
   8230   8240     1
   8230   8249     1
   8231   8246     1
   8231   8239     1
   8231   8247     1
   8232   8240     1
   8232   8234     1
   8233   8236     1
   8233   8245     1
   8233   8235     1
   8233   8240     1
   8233   8237     1
   8233   8234     1
   8234   8250     1
   8234   8239     1
   8234   8248     1
   8234   8247     1
   8235   8246     1
   8235   8250     1
   8237   8247     1
   8238   8247     1
   8241   8244     1
   8241   8245     1
   8242   8244     1
   8242   8245     1
   8245   8246     1
   8245   8247     1
   8247   8249     1
   8251   8257     1
   8251   8258     1
   8252   8255     1
   8252   8254     1
   8252   8256     1
   8254   8259     1
   8254   8257     1
   8254   8258     1
   8255   8269     1
   8255   8270     1
   8255   8262     1
   8255   8264     1
   8256   8259     1
   8256   8257     1
   8256   8258     1
   8257   8260     1
   8257   8261     1
   8258   8260     1
   8258   8261     1
   8259   8272     1
   8259   8273     1
   8259   8265     1
   8259   8266     1
   8260   8262     1
   8260   8264     1
   8261   8269     1
   8261   8270     1
   8262   8267     1
   8262   8265     1
   8262   8266     1
   8263   8289     1
   8264   8267     1
   8264   8265     1
   8264   8266     1
   8265   8268     1
   8265   8299     1
   8266   8268     1
   8266   8299     1
   8267   8282     1
   8268   8289     1
   8269   8274     1
   8269   8272     1
   8269   8273     1
   8270   8274     1
   8270   8272     1
   8270   8273     1
   8271   8313     1
   8272   8275     1
   8272   8323     1
   8273   8275     1
   8273   8323     1
   8274   8306     1
   8275   8313     1
   8276   8283     1
   8276   8298     1
   8276   8293     1
   8276   8284     1
   8277   8290     1
   8277   8291     1
   8277   8282     1
   8277   8288     1
   8278   8279     1
   8278   8297     1
   8278   8296     1
   8278   8292     1
   8278   8290     1
   8278   8291     1
   8278   8281     1
   8279   8298     1
   8279   8284     1
   8279   8289     1
   8280   8296     1
   8280   8288     1
   8280   8295     1
   8281   8283     1
   8281   8289     1
   8282   8286     1
   8282   8283     1
   8282   8285     1
   8282   8294     1
   8282   8284     1
   8282   8289     1
   8283   8297     1
   8283   8296     1
   8283   8299     1
   8283   8288     1
   8284   8299     1
   8284   8295     1
   8286   8296     1
   8287   8296     1
   8290   8294     1
   8290   8293     1
   8291   8294     1
   8291   8293     1
   8294   8296     1
   8294   8295     1
   8296   8298     1
   8300   8307     1
   8300   8322     1
   8300   8317     1
   8300   8308     1
   8301   8314     1
   8301   8315     1
   8301   8306     1
   8301   8312     1
   8302   8303     1
   8302   8321     1
   8302   8320     1
   8302   8316     1
   8302   8314     1
   8302   8315     1
   8302   8305     1
   8303   8322     1
   8303   8308     1
   8303   8313     1
   8304   8320     1
   8304   8312     1
   8304   8319     1
   8305   8307     1
   8305   8313     1
   8306   8310     1
   8306   8307     1
   8306   8309     1
   8306   8318     1
   8306   8308     1
   8306   8313     1
   8307   8321     1
   8307   8320     1
   8307   8323     1
   8307   8312     1
   8308   8323     1
   8308   8319     1
   8310   8320     1
   8311   8320     1
   8314   8318     1
   8314   8317     1
   8315   8318     1
   8315   8317     1
   8318   8320     1
   8318   8319     1
   8320   8322     1
   8324   8330     1
   8324   8331     1
   8325   8328     1
   8325   8327     1
   8325   8329     1
   8327   8332     1
   8327   8330     1
   8327   8331     1
   8328   8342     1
   8328   8343     1
   8328   8335     1
   8328   8337     1
   8329   8332     1
   8329   8330     1
   8329   8331     1
   8330   8333     1
   8330   8334     1
   8331   8333     1
   8331   8334     1
   8332   8345     1
   8332   8346     1
   8332   8338     1
   8332   8339     1
   8333   8335     1
   8333   8337     1
   8334   8342     1
   8334   8343     1
   8335   8340     1
   8335   8338     1
   8335   8339     1
   8336   8362     1
   8337   8340     1
   8337   8338     1
   8337   8339     1
   8338   8341     1
   8338   8372     1
   8339   8341     1
   8339   8372     1
   8340   8355     1
   8341   8362     1
   8342   8347     1
   8342   8345     1
   8342   8346     1
   8343   8347     1
   8343   8345     1
   8343   8346     1
   8344   8386     1
   8345   8348     1
   8345   8396     1
   8346   8348     1
   8346   8396     1
   8347   8379     1
   8348   8386     1
   8349   8356     1
   8349   8371     1
   8349   8366     1
   8349   8357     1
   8350   8355     1
   8350   8361     1
   8350   8363     1
   8350   8364     1
   8351   8352     1
   8351   8370     1
   8351   8369     1
   8351   8365     1
   8351   8363     1
   8351   8364     1
   8351   8354     1
   8352   8357     1
   8352   8362     1
   8352   8371     1
   8353   8368     1
   8353   8361     1
   8353   8369     1
   8354   8362     1
   8354   8356     1
   8355   8358     1
   8355   8367     1
   8355   8357     1
   8355   8362     1
   8355   8359     1
   8355   8356     1
   8356   8372     1
   8356   8361     1
   8356   8370     1
   8356   8369     1
   8357   8368     1
   8357   8372     1
   8359   8369     1
   8360   8369     1
   8363   8366     1
   8363   8367     1
   8364   8366     1
   8364   8367     1
   8367   8368     1
   8367   8369     1
   8369   8371     1
   8373   8380     1
   8373   8395     1
   8373   8390     1
   8373   8381     1
   8374   8379     1
   8374   8385     1
   8374   8387     1
   8374   8388     1
   8375   8376     1
   8375   8394     1
   8375   8393     1
   8375   8389     1
   8375   8387     1
   8375   8388     1
   8375   8378     1
   8376   8381     1
   8376   8386     1
   8376   8395     1
   8377   8392     1
   8377   8385     1
   8377   8393     1
   8378   8386     1
   8378   8380     1
   8379   8382     1
   8379   8391     1
   8379   8381     1
   8379   8386     1
   8379   8383     1
   8379   8380     1
   8380   8396     1
   8380   8385     1
   8380   8394     1
   8380   8393     1
   8381   8392     1
   8381   8396     1
   8383   8393     1
   8384   8393     1
   8387   8390     1
   8387   8391     1
   8388   8390     1
   8388   8391     1
   8391   8392     1
   8391   8393     1
   8393   8395     1
   8397   8403     1
   8397   8404     1
   8398   8401     1
   8398   8400     1
   8398   8402     1
   8400   8405     1
   8400   8403     1
   8400   8404     1
   8401   8415     1
   8401   8416     1
   8401   8408     1
   8401   8410     1
   8402   8405     1
   8402   8403     1
   8402   8404     1
   8403   8406     1
   8403   8407     1
   8404   8406     1
   8404   8407     1
   8405   8418     1
   8405   8419     1
   8405   8411     1
   8405   8412     1
   8406   8408     1
   8406   8410     1
   8407   8415     1
   8407   8416     1
   8408   8413     1
   8408   8411     1
   8408   8412     1
   8409   8435     1
   8410   8413     1
   8410   8411     1
   8410   8412     1
   8411   8414     1
   8411   8445     1
   8412   8414     1
   8412   8445     1
   8413   8428     1
   8414   8435     1
   8415   8420     1
   8415   8418     1
   8415   8419     1
   8416   8420     1
   8416   8418     1
   8416   8419     1
   8417   8459     1
   8418   8421     1
   8418   8469     1
   8419   8421     1
   8419   8469     1
   8420   8452     1
   8421   8459     1
   8422   8429     1
   8422   8444     1
   8422   8439     1
   8422   8430     1
   8423   8436     1
   8423   8437     1
   8423   8428     1
   8423   8434     1
   8424   8425     1
   8424   8443     1
   8424   8442     1
   8424   8438     1
   8424   8436     1
   8424   8437     1
   8424   8427     1
   8425   8444     1
   8425   8430     1
   8425   8435     1
   8426   8442     1
   8426   8434     1
   8426   8441     1
   8427   8429     1
   8427   8435     1
   8428   8432     1
   8428   8429     1
   8428   8431     1
   8428   8440     1
   8428   8430     1
   8428   8435     1
   8429   8443     1
   8429   8442     1
   8429   8445     1
   8429   8434     1
   8430   8445     1
   8430   8441     1
   8432   8442     1
   8433   8442     1
   8436   8440     1
   8436   8439     1
   8437   8440     1
   8437   8439     1
   8440   8442     1
   8440   8441     1
   8442   8444     1
   8446   8453     1
   8446   8468     1
   8446   8463     1
   8446   8454     1
   8447   8460     1
   8447   8461     1
   8447   8452     1
   8447   8458     1
   8448   8449     1
   8448   8467     1
   8448   8466     1
   8448   8462     1
   8448   8460     1
   8448   8461     1
   8448   8451     1
   8449   8468     1
   8449   8454     1
   8449   8459     1
   8450   8466     1
   8450   8458     1
   8450   8465     1
   8451   8453     1
   8451   8459     1
   8452   8456     1
   8452   8453     1
   8452   8455     1
   8452   8464     1
   8452   8454     1
   8452   8459     1
   8453   8467     1
   8453   8466     1
   8453   8469     1
   8453   8458     1
   8454   8469     1
   8454   8465     1
   8456   8466     1
   8457   8466     1
   8460   8464     1
   8460   8463     1
   8461   8464     1
   8461   8463     1
   8464   8466     1
   8464   8465     1
   8466   8468     1
   8470   8476     1
   8470   8477     1
   8471   8474     1
   8471   8473     1
   8471   8475     1
   8473   8478     1
   8473   8476     1
   8473   8477     1
   8474   8488     1
   8474   8489     1
   8474   8481     1
   8474   8483     1
   8475   8478     1
   8475   8476     1
   8475   8477     1
   8476   8479     1
   8476   8480     1
   8477   8479     1
   8477   8480     1
   8478   8491     1
   8478   8492     1
   8478   8484     1
   8478   8485     1
   8479   8481     1
   8479   8483     1
   8480   8488     1
   8480   8489     1
   8481   8486     1
   8481   8484     1
   8481   8485     1
   8482   8508     1
   8483   8486     1
   8483   8484     1
   8483   8485     1
   8484   8487     1
   8484   8518     1
   8485   8487     1
   8485   8518     1
   8486   8501     1
   8487   8508     1
   8488   8493     1
   8488   8491     1
   8488   8492     1
   8489   8493     1
   8489   8491     1
   8489   8492     1
   8490   8532     1
   8491   8494     1
   8491   8542     1
   8492   8494     1
   8492   8542     1
   8493   8525     1
   8494   8532     1
   8495   8502     1
   8495   8517     1
   8495   8512     1
   8495   8503     1
   8496   8501     1
   8496   8507     1
   8496   8509     1
   8496   8510     1
   8497   8498     1
   8497   8516     1
   8497   8515     1
   8497   8511     1
   8497   8509     1
   8497   8510     1
   8497   8500     1
   8498   8503     1
   8498   8508     1
   8498   8517     1
   8499   8514     1
   8499   8507     1
   8499   8515     1
   8500   8508     1
   8500   8502     1
   8501   8504     1
   8501   8513     1
   8501   8503     1
   8501   8508     1
   8501   8505     1
   8501   8502     1
   8502   8518     1
   8502   8507     1
   8502   8516     1
   8502   8515     1
   8503   8514     1
   8503   8518     1
   8505   8515     1
   8506   8515     1
   8509   8512     1
   8509   8513     1
   8510   8512     1
   8510   8513     1
   8513   8514     1
   8513   8515     1
   8515   8517     1
   8519   8526     1
   8519   8541     1
   8519   8536     1
   8519   8527     1
   8520   8525     1
   8520   8531     1
   8520   8533     1
   8520   8534     1
   8521   8522     1
   8521   8540     1
   8521   8539     1
   8521   8535     1
   8521   8533     1
   8521   8534     1
   8521   8524     1
   8522   8527     1
   8522   8532     1
   8522   8541     1
   8523   8538     1
   8523   8531     1
   8523   8539     1
   8524   8532     1
   8524   8526     1
   8525   8528     1
   8525   8537     1
   8525   8527     1
   8525   8532     1
   8525   8529     1
   8525   8526     1
   8526   8542     1
   8526   8531     1
   8526   8540     1
   8526   8539     1
   8527   8538     1
   8527   8542     1
   8529   8539     1
   8530   8539     1
   8533   8536     1
   8533   8537     1
   8534   8536     1
   8534   8537     1
   8537   8538     1
   8537   8539     1
   8539   8541     1
   8543   8549     1
   8543   8550     1
   8544   8547     1
   8544   8546     1
   8544   8548     1
   8546   8551     1
   8546   8549     1
   8546   8550     1
   8547   8561     1
   8547   8562     1
   8547   8554     1
   8547   8556     1
   8548   8551     1
   8548   8549     1
   8548   8550     1
   8549   8552     1
   8549   8553     1
   8550   8552     1
   8550   8553     1
   8551   8564     1
   8551   8565     1
   8551   8557     1
   8551   8558     1
   8552   8554     1
   8552   8556     1
   8553   8561     1
   8553   8562     1
   8554   8559     1
   8554   8557     1
   8554   8558     1
   8555   8581     1
   8556   8559     1
   8556   8557     1
   8556   8558     1
   8557   8560     1
   8557   8591     1
   8558   8560     1
   8558   8591     1
   8559   8574     1
   8560   8581     1
   8561   8566     1
   8561   8564     1
   8561   8565     1
   8562   8566     1
   8562   8564     1
   8562   8565     1
   8563   8605     1
   8564   8567     1
   8564   8615     1
   8565   8567     1
   8565   8615     1
   8566   8598     1
   8567   8605     1
   8568   8575     1
   8568   8590     1
   8568   8585     1
   8568   8576     1
   8569   8582     1
   8569   8583     1
   8569   8574     1
   8569   8580     1
   8570   8571     1
   8570   8589     1
   8570   8588     1
   8570   8584     1
   8570   8582     1
   8570   8583     1
   8570   8573     1
   8571   8590     1
   8571   8576     1
   8571   8581     1
   8572   8588     1
   8572   8580     1
   8572   8587     1
   8573   8575     1
   8573   8581     1
   8574   8578     1
   8574   8575     1
   8574   8577     1
   8574   8586     1
   8574   8576     1
   8574   8581     1
   8575   8589     1
   8575   8588     1
   8575   8591     1
   8575   8580     1
   8576   8591     1
   8576   8587     1
   8578   8588     1
   8579   8588     1
   8582   8586     1
   8582   8585     1
   8583   8586     1
   8583   8585     1
   8586   8588     1
   8586   8587     1
   8588   8590     1
   8592   8599     1
   8592   8614     1
   8592   8609     1
   8592   8600     1
   8593   8606     1
   8593   8607     1
   8593   8598     1
   8593   8604     1
   8594   8595     1
   8594   8613     1
   8594   8612     1
   8594   8608     1
   8594   8606     1
   8594   8607     1
   8594   8597     1
   8595   8614     1
   8595   8600     1
   8595   8605     1
   8596   8612     1
   8596   8604     1
   8596   8611     1
   8597   8599     1
   8597   8605     1
   8598   8602     1
   8598   8599     1
   8598   8601     1
   8598   8610     1
   8598   8600     1
   8598   8605     1
   8599   8613     1
   8599   8612     1
   8599   8615     1
   8599   8604     1
   8600   8615     1
   8600   8611     1
   8602   8612     1
   8603   8612     1
   8606   8610     1
   8606   8609     1
   8607   8610     1
   8607   8609     1
   8610   8612     1
   8610   8611     1
   8612   8614     1
   8616   8622     1
   8616   8623     1
   8617   8620     1
   8617   8619     1
   8617   8621     1
   8619   8624     1
   8619   8622     1
   8619   8623     1
   8620   8634     1
   8620   8635     1
   8620   8627     1
   8620   8629     1
   8621   8624     1
   8621   8622     1
   8621   8623     1
   8622   8625     1
   8622   8626     1
   8623   8625     1
   8623   8626     1
   8624   8637     1
   8624   8638     1
   8624   8630     1
   8624   8631     1
   8625   8627     1
   8625   8629     1
   8626   8634     1
   8626   8635     1
   8627   8632     1
   8627   8630     1
   8627   8631     1
   8628   8654     1
   8629   8632     1
   8629   8630     1
   8629   8631     1
   8630   8633     1
   8630   8664     1
   8631   8633     1
   8631   8664     1
   8632   8647     1
   8633   8654     1
   8634   8639     1
   8634   8637     1
   8634   8638     1
   8635   8639     1
   8635   8637     1
   8635   8638     1
   8636   8678     1
   8637   8640     1
   8637   8688     1
   8638   8640     1
   8638   8688     1
   8639   8671     1
   8640   8678     1
   8641   8648     1
   8641   8663     1
   8641   8658     1
   8641   8649     1
   8642   8647     1
   8642   8653     1
   8642   8655     1
   8642   8656     1
   8643   8644     1
   8643   8662     1
   8643   8661     1
   8643   8657     1
   8643   8655     1
   8643   8656     1
   8643   8646     1
   8644   8649     1
   8644   8654     1
   8644   8663     1
   8645   8660     1
   8645   8653     1
   8645   8661     1
   8646   8654     1
   8646   8648     1
   8647   8650     1
   8647   8659     1
   8647   8649     1
   8647   8654     1
   8647   8651     1
   8647   8648     1
   8648   8664     1
   8648   8653     1
   8648   8662     1
   8648   8661     1
   8649   8660     1
   8649   8664     1
   8651   8661     1
   8652   8661     1
   8655   8658     1
   8655   8659     1
   8656   8658     1
   8656   8659     1
   8659   8660     1
   8659   8661     1
   8661   8663     1
   8665   8672     1
   8665   8687     1
   8665   8682     1
   8665   8673     1
   8666   8671     1
   8666   8677     1
   8666   8679     1
   8666   8680     1
   8667   8668     1
   8667   8686     1
   8667   8685     1
   8667   8681     1
   8667   8679     1
   8667   8680     1
   8667   8670     1
   8668   8673     1
   8668   8678     1
   8668   8687     1
   8669   8684     1
   8669   8677     1
   8669   8685     1
   8670   8678     1
   8670   8672     1
   8671   8674     1
   8671   8683     1
   8671   8673     1
   8671   8678     1
   8671   8675     1
   8671   8672     1
   8672   8688     1
   8672   8677     1
   8672   8686     1
   8672   8685     1
   8673   8684     1
   8673   8688     1
   8675   8685     1
   8676   8685     1
   8679   8682     1
   8679   8683     1
   8680   8682     1
   8680   8683     1
   8683   8684     1
   8683   8685     1
   8685   8687     1
   8689   8695     1
   8689   8696     1
   8690   8693     1
   8690   8692     1
   8690   8694     1
   8692   8697     1
   8692   8695     1
   8692   8696     1
   8693   8707     1
   8693   8708     1
   8693   8700     1
   8693   8702     1
   8694   8697     1
   8694   8695     1
   8694   8696     1
   8695   8698     1
   8695   8699     1
   8696   8698     1
   8696   8699     1
   8697   8710     1
   8697   8711     1
   8697   8703     1
   8697   8704     1
   8698   8700     1
   8698   8702     1
   8699   8707     1
   8699   8708     1
   8700   8705     1
   8700   8703     1
   8700   8704     1
   8701   8727     1
   8702   8705     1
   8702   8703     1
   8702   8704     1
   8703   8706     1
   8703   8737     1
   8704   8706     1
   8704   8737     1
   8705   8720     1
   8706   8727     1
   8707   8712     1
   8707   8710     1
   8707   8711     1
   8708   8712     1
   8708   8710     1
   8708   8711     1
   8709   8751     1
   8710   8713     1
   8710   8761     1
   8711   8713     1
   8711   8761     1
   8712   8744     1
   8713   8751     1
   8714   8721     1
   8714   8736     1
   8714   8731     1
   8714   8722     1
   8715   8728     1
   8715   8729     1
   8715   8720     1
   8715   8726     1
   8716   8717     1
   8716   8735     1
   8716   8734     1
   8716   8730     1
   8716   8728     1
   8716   8729     1
   8716   8719     1
   8717   8736     1
   8717   8722     1
   8717   8727     1
   8718   8734     1
   8718   8726     1
   8718   8733     1
   8719   8721     1
   8719   8727     1
   8720   8724     1
   8720   8721     1
   8720   8723     1
   8720   8732     1
   8720   8722     1
   8720   8727     1
   8721   8735     1
   8721   8734     1
   8721   8737     1
   8721   8726     1
   8722   8737     1
   8722   8733     1
   8724   8734     1
   8725   8734     1
   8728   8732     1
   8728   8731     1
   8729   8732     1
   8729   8731     1
   8732   8734     1
   8732   8733     1
   8734   8736     1
   8738   8745     1
   8738   8760     1
   8738   8755     1
   8738   8746     1
   8739   8752     1
   8739   8753     1
   8739   8744     1
   8739   8750     1
   8740   8741     1
   8740   8759     1
   8740   8758     1
   8740   8754     1
   8740   8752     1
   8740   8753     1
   8740   8743     1
   8741   8760     1
   8741   8746     1
   8741   8751     1
   8742   8758     1
   8742   8750     1
   8742   8757     1
   8743   8745     1
   8743   8751     1
   8744   8748     1
   8744   8745     1
   8744   8747     1
   8744   8756     1
   8744   8746     1
   8744   8751     1
   8745   8759     1
   8745   8758     1
   8745   8761     1
   8745   8750     1
   8746   8761     1
   8746   8757     1
   8748   8758     1
   8749   8758     1
   8752   8756     1
   8752   8755     1
   8753   8756     1
   8753   8755     1
   8756   8758     1
   8756   8757     1
   8758   8760     1
   8762   8768     1
   8762   8769     1
   8763   8766     1
   8763   8765     1
   8763   8767     1
   8765   8770     1
   8765   8768     1
   8765   8769     1
   8766   8780     1
   8766   8781     1
   8766   8773     1
   8766   8775     1
   8767   8770     1
   8767   8768     1
   8767   8769     1
   8768   8771     1
   8768   8772     1
   8769   8771     1
   8769   8772     1
   8770   8783     1
   8770   8784     1
   8770   8776     1
   8770   8777     1
   8771   8773     1
   8771   8775     1
   8772   8780     1
   8772   8781     1
   8773   8778     1
   8773   8776     1
   8773   8777     1
   8774   8800     1
   8775   8778     1
   8775   8776     1
   8775   8777     1
   8776   8779     1
   8776   8810     1
   8777   8779     1
   8777   8810     1
   8778   8793     1
   8779   8800     1
   8780   8785     1
   8780   8783     1
   8780   8784     1
   8781   8785     1
   8781   8783     1
   8781   8784     1
   8782   8824     1
   8783   8786     1
   8783   8834     1
   8784   8786     1
   8784   8834     1
   8785   8817     1
   8786   8824     1
   8787   8794     1
   8787   8809     1
   8787   8804     1
   8787   8795     1
   8788   8793     1
   8788   8799     1
   8788   8801     1
   8788   8802     1
   8789   8790     1
   8789   8808     1
   8789   8807     1
   8789   8803     1
   8789   8801     1
   8789   8802     1
   8789   8792     1
   8790   8795     1
   8790   8800     1
   8790   8809     1
   8791   8806     1
   8791   8799     1
   8791   8807     1
   8792   8800     1
   8792   8794     1
   8793   8796     1
   8793   8805     1
   8793   8795     1
   8793   8800     1
   8793   8797     1
   8793   8794     1
   8794   8810     1
   8794   8799     1
   8794   8808     1
   8794   8807     1
   8795   8806     1
   8795   8810     1
   8797   8807     1
   8798   8807     1
   8801   8804     1
   8801   8805     1
   8802   8804     1
   8802   8805     1
   8805   8806     1
   8805   8807     1
   8807   8809     1
   8811   8818     1
   8811   8833     1
   8811   8828     1
   8811   8819     1
   8812   8817     1
   8812   8823     1
   8812   8825     1
   8812   8826     1
   8813   8814     1
   8813   8832     1
   8813   8831     1
   8813   8827     1
   8813   8825     1
   8813   8826     1
   8813   8816     1
   8814   8819     1
   8814   8824     1
   8814   8833     1
   8815   8830     1
   8815   8823     1
   8815   8831     1
   8816   8824     1
   8816   8818     1
   8817   8820     1
   8817   8829     1
   8817   8819     1
   8817   8824     1
   8817   8821     1
   8817   8818     1
   8818   8834     1
   8818   8823     1
   8818   8832     1
   8818   8831     1
   8819   8830     1
   8819   8834     1
   8821   8831     1
   8822   8831     1
   8825   8828     1
   8825   8829     1
   8826   8828     1
   8826   8829     1
   8829   8830     1
   8829   8831     1
   8831   8833     1
   8835   8841     1
   8835   8842     1
   8836   8839     1
   8836   8838     1
   8836   8840     1
   8838   8843     1
   8838   8841     1
   8838   8842     1
   8839   8853     1
   8839   8854     1
   8839   8846     1
   8839   8848     1
   8840   8843     1
   8840   8841     1
   8840   8842     1
   8841   8844     1
   8841   8845     1
   8842   8844     1
   8842   8845     1
   8843   8856     1
   8843   8857     1
   8843   8849     1
   8843   8850     1
   8844   8846     1
   8844   8848     1
   8845   8853     1
   8845   8854     1
   8846   8851     1
   8846   8849     1
   8846   8850     1
   8847   8873     1
   8848   8851     1
   8848   8849     1
   8848   8850     1
   8849   8852     1
   8849   8883     1
   8850   8852     1
   8850   8883     1
   8851   8866     1
   8852   8873     1
   8853   8858     1
   8853   8856     1
   8853   8857     1
   8854   8858     1
   8854   8856     1
   8854   8857     1
   8855   8897     1
   8856   8859     1
   8856   8907     1
   8857   8859     1
   8857   8907     1
   8858   8890     1
   8859   8897     1
   8860   8867     1
   8860   8882     1
   8860   8877     1
   8860   8868     1
   8861   8874     1
   8861   8875     1
   8861   8866     1
   8861   8872     1
   8862   8863     1
   8862   8881     1
   8862   8880     1
   8862   8876     1
   8862   8874     1
   8862   8875     1
   8862   8865     1
   8863   8882     1
   8863   8868     1
   8863   8873     1
   8864   8880     1
   8864   8872     1
   8864   8879     1
   8865   8867     1
   8865   8873     1
   8866   8870     1
   8866   8867     1
   8866   8869     1
   8866   8878     1
   8866   8868     1
   8866   8873     1
   8867   8881     1
   8867   8880     1
   8867   8883     1
   8867   8872     1
   8868   8883     1
   8868   8879     1
   8870   8880     1
   8871   8880     1
   8874   8878     1
   8874   8877     1
   8875   8878     1
   8875   8877     1
   8878   8880     1
   8878   8879     1
   8880   8882     1
   8884   8891     1
   8884   8906     1
   8884   8901     1
   8884   8892     1
   8885   8898     1
   8885   8899     1
   8885   8890     1
   8885   8896     1
   8886   8887     1
   8886   8905     1
   8886   8904     1
   8886   8900     1
   8886   8898     1
   8886   8899     1
   8886   8889     1
   8887   8906     1
   8887   8892     1
   8887   8897     1
   8888   8904     1
   8888   8896     1
   8888   8903     1
   8889   8891     1
   8889   8897     1
   8890   8894     1
   8890   8891     1
   8890   8893     1
   8890   8902     1
   8890   8892     1
   8890   8897     1
   8891   8905     1
   8891   8904     1
   8891   8907     1
   8891   8896     1
   8892   8907     1
   8892   8903     1
   8894   8904     1
   8895   8904     1
   8898   8902     1
   8898   8901     1
   8899   8902     1
   8899   8901     1
   8902   8904     1
   8902   8903     1
   8904   8906     1
   8908   8914     1
   8908   8915     1
   8909   8912     1
   8909   8911     1
   8909   8913     1
   8911   8916     1
   8911   8914     1
   8911   8915     1
   8912   8926     1
   8912   8927     1
   8912   8919     1
   8912   8921     1
   8913   8916     1
   8913   8914     1
   8913   8915     1
   8914   8917     1
   8914   8918     1
   8915   8917     1
   8915   8918     1
   8916   8929     1
   8916   8930     1
   8916   8922     1
   8916   8923     1
   8917   8919     1
   8917   8921     1
   8918   8926     1
   8918   8927     1
   8919   8924     1
   8919   8922     1
   8919   8923     1
   8920   8946     1
   8921   8924     1
   8921   8922     1
   8921   8923     1
   8922   8925     1
   8922   8956     1
   8923   8925     1
   8923   8956     1
   8924   8939     1
   8925   8946     1
   8926   8931     1
   8926   8929     1
   8926   8930     1
   8927   8931     1
   8927   8929     1
   8927   8930     1
   8928   8970     1
   8929   8932     1
   8929   8980     1
   8930   8932     1
   8930   8980     1
   8931   8963     1
   8932   8970     1
   8933   8940     1
   8933   8955     1
   8933   8950     1
   8933   8941     1
   8934   8939     1
   8934   8945     1
   8934   8947     1
   8934   8948     1
   8935   8936     1
   8935   8954     1
   8935   8953     1
   8935   8949     1
   8935   8947     1
   8935   8948     1
   8935   8938     1
   8936   8941     1
   8936   8946     1
   8936   8955     1
   8937   8952     1
   8937   8945     1
   8937   8953     1
   8938   8946     1
   8938   8940     1
   8939   8942     1
   8939   8951     1
   8939   8941     1
   8939   8946     1
   8939   8943     1
   8939   8940     1
   8940   8956     1
   8940   8945     1
   8940   8954     1
   8940   8953     1
   8941   8952     1
   8941   8956     1
   8943   8953     1
   8944   8953     1
   8947   8950     1
   8947   8951     1
   8948   8950     1
   8948   8951     1
   8951   8952     1
   8951   8953     1
   8953   8955     1
   8957   8964     1
   8957   8979     1
   8957   8974     1
   8957   8965     1
   8958   8963     1
   8958   8969     1
   8958   8971     1
   8958   8972     1
   8959   8960     1
   8959   8978     1
   8959   8977     1
   8959   8973     1
   8959   8971     1
   8959   8972     1
   8959   8962     1
   8960   8965     1
   8960   8970     1
   8960   8979     1
   8961   8976     1
   8961   8969     1
   8961   8977     1
   8962   8970     1
   8962   8964     1
   8963   8966     1
   8963   8975     1
   8963   8965     1
   8963   8970     1
   8963   8967     1
   8963   8964     1
   8964   8980     1
   8964   8969     1
   8964   8978     1
   8964   8977     1
   8965   8976     1
   8965   8980     1
   8967   8977     1
   8968   8977     1
   8971   8974     1
   8971   8975     1
   8972   8974     1
   8972   8975     1
   8975   8976     1
   8975   8977     1
   8977   8979     1
   8981   8987     1
   8981   8988     1
   8982   8985     1
   8982   8984     1
   8982   8986     1
   8984   8989     1
   8984   8987     1
   8984   8988     1
   8985   8999     1
   8985   9000     1
   8985   8992     1
   8985   8994     1
   8986   8989     1
   8986   8987     1
   8986   8988     1
   8987   8990     1
   8987   8991     1
   8988   8990     1
   8988   8991     1
   8989   9002     1
   8989   9003     1
   8989   8995     1
   8989   8996     1
   8990   8992     1
   8990   8994     1
   8991   8999     1
   8991   9000     1
   8992   8997     1
   8992   8995     1
   8992   8996     1
   8993   9019     1
   8994   8997     1
   8994   8995     1
   8994   8996     1
   8995   8998     1
   8995   9029     1
   8996   8998     1
   8996   9029     1
   8997   9012     1
   8998   9019     1
   8999   9004     1
   8999   9002     1
   8999   9003     1
   9000   9004     1
   9000   9002     1
   9000   9003     1
   9001   9043     1
   9002   9005     1
   9002   9053     1
   9003   9005     1
   9003   9053     1
   9004   9036     1
   9005   9043     1
   9006   9013     1
   9006   9028     1
   9006   9023     1
   9006   9014     1
   9007   9020     1
   9007   9021     1
   9007   9012     1
   9007   9018     1
   9008   9009     1
   9008   9027     1
   9008   9026     1
   9008   9022     1
   9008   9020     1
   9008   9021     1
   9008   9011     1
   9009   9028     1
   9009   9014     1
   9009   9019     1
   9010   9026     1
   9010   9018     1
   9010   9025     1
   9011   9013     1
   9011   9019     1
   9012   9016     1
   9012   9013     1
   9012   9015     1
   9012   9024     1
   9012   9014     1
   9012   9019     1
   9013   9027     1
   9013   9026     1
   9013   9029     1
   9013   9018     1
   9014   9029     1
   9014   9025     1
   9016   9026     1
   9017   9026     1
   9020   9024     1
   9020   9023     1
   9021   9024     1
   9021   9023     1
   9024   9026     1
   9024   9025     1
   9026   9028     1
   9030   9037     1
   9030   9052     1
   9030   9047     1
   9030   9038     1
   9031   9044     1
   9031   9045     1
   9031   9036     1
   9031   9042     1
   9032   9033     1
   9032   9051     1
   9032   9050     1
   9032   9046     1
   9032   9044     1
   9032   9045     1
   9032   9035     1
   9033   9052     1
   9033   9038     1
   9033   9043     1
   9034   9050     1
   9034   9042     1
   9034   9049     1
   9035   9037     1
   9035   9043     1
   9036   9040     1
   9036   9037     1
   9036   9039     1
   9036   9048     1
   9036   9038     1
   9036   9043     1
   9037   9051     1
   9037   9050     1
   9037   9053     1
   9037   9042     1
   9038   9053     1
   9038   9049     1
   9040   9050     1
   9041   9050     1
   9044   9048     1
   9044   9047     1
   9045   9048     1
   9045   9047     1
   9048   9050     1
   9048   9049     1
   9050   9052     1
   9054   9060     1
   9054   9061     1
   9055   9058     1
   9055   9057     1
   9055   9059     1
   9057   9062     1
   9057   9060     1
   9057   9061     1
   9058   9072     1
   9058   9073     1
   9058   9065     1
   9058   9067     1
   9059   9062     1
   9059   9060     1
   9059   9061     1
   9060   9063     1
   9060   9064     1
   9061   9063     1
   9061   9064     1
   9062   9075     1
   9062   9076     1
   9062   9068     1
   9062   9069     1
   9063   9065     1
   9063   9067     1
   9064   9072     1
   9064   9073     1
   9065   9070     1
   9065   9068     1
   9065   9069     1
   9066   9092     1
   9067   9070     1
   9067   9068     1
   9067   9069     1
   9068   9071     1
   9068   9102     1
   9069   9071     1
   9069   9102     1
   9070   9085     1
   9071   9092     1
   9072   9077     1
   9072   9075     1
   9072   9076     1
   9073   9077     1
   9073   9075     1
   9073   9076     1
   9074   9116     1
   9075   9078     1
   9075   9126     1
   9076   9078     1
   9076   9126     1
   9077   9109     1
   9078   9116     1
   9079   9086     1
   9079   9101     1
   9079   9096     1
   9079   9087     1
   9080   9085     1
   9080   9091     1
   9080   9093     1
   9080   9094     1
   9081   9082     1
   9081   9100     1
   9081   9099     1
   9081   9095     1
   9081   9093     1
   9081   9094     1
   9081   9084     1
   9082   9087     1
   9082   9092     1
   9082   9101     1
   9083   9098     1
   9083   9091     1
   9083   9099     1
   9084   9092     1
   9084   9086     1
   9085   9088     1
   9085   9097     1
   9085   9087     1
   9085   9092     1
   9085   9089     1
   9085   9086     1
   9086   9102     1
   9086   9091     1
   9086   9100     1
   9086   9099     1
   9087   9098     1
   9087   9102     1
   9089   9099     1
   9090   9099     1
   9093   9096     1
   9093   9097     1
   9094   9096     1
   9094   9097     1
   9097   9098     1
   9097   9099     1
   9099   9101     1
   9103   9110     1
   9103   9125     1
   9103   9120     1
   9103   9111     1
   9104   9109     1
   9104   9115     1
   9104   9117     1
   9104   9118     1
   9105   9106     1
   9105   9124     1
   9105   9123     1
   9105   9119     1
   9105   9117     1
   9105   9118     1
   9105   9108     1
   9106   9111     1
   9106   9116     1
   9106   9125     1
   9107   9122     1
   9107   9115     1
   9107   9123     1
   9108   9116     1
   9108   9110     1
   9109   9112     1
   9109   9121     1
   9109   9111     1
   9109   9116     1
   9109   9113     1
   9109   9110     1
   9110   9126     1
   9110   9115     1
   9110   9124     1
   9110   9123     1
   9111   9122     1
   9111   9126     1
   9113   9123     1
   9114   9123     1
   9117   9120     1
   9117   9121     1
   9118   9120     1
   9118   9121     1
   9121   9122     1
   9121   9123     1
   9123   9125     1
   9127   9133     1
   9127   9134     1
   9128   9131     1
   9128   9130     1
   9128   9132     1
   9130   9135     1
   9130   9133     1
   9130   9134     1
   9131   9145     1
   9131   9146     1
   9131   9138     1
   9131   9140     1
   9132   9135     1
   9132   9133     1
   9132   9134     1
   9133   9136     1
   9133   9137     1
   9134   9136     1
   9134   9137     1
   9135   9148     1
   9135   9149     1
   9135   9141     1
   9135   9142     1
   9136   9138     1
   9136   9140     1
   9137   9145     1
   9137   9146     1
   9138   9143     1
   9138   9141     1
   9138   9142     1
   9139   9165     1
   9140   9143     1
   9140   9141     1
   9140   9142     1
   9141   9144     1
   9141   9175     1
   9142   9144     1
   9142   9175     1
   9143   9158     1
   9144   9165     1
   9145   9150     1
   9145   9148     1
   9145   9149     1
   9146   9150     1
   9146   9148     1
   9146   9149     1
   9147   9189     1
   9148   9151     1
   9148   9199     1
   9149   9151     1
   9149   9199     1
   9150   9182     1
   9151   9189     1
   9152   9159     1
   9152   9174     1
   9152   9169     1
   9152   9160     1
   9153   9166     1
   9153   9167     1
   9153   9158     1
   9153   9164     1
   9154   9155     1
   9154   9173     1
   9154   9172     1
   9154   9168     1
   9154   9166     1
   9154   9167     1
   9154   9157     1
   9155   9174     1
   9155   9160     1
   9155   9165     1
   9156   9172     1
   9156   9164     1
   9156   9171     1
   9157   9159     1
   9157   9165     1
   9158   9162     1
   9158   9159     1
   9158   9161     1
   9158   9170     1
   9158   9160     1
   9158   9165     1
   9159   9173     1
   9159   9172     1
   9159   9175     1
   9159   9164     1
   9160   9175     1
   9160   9171     1
   9162   9172     1
   9163   9172     1
   9166   9170     1
   9166   9169     1
   9167   9170     1
   9167   9169     1
   9170   9172     1
   9170   9171     1
   9172   9174     1
   9176   9183     1
   9176   9198     1
   9176   9193     1
   9176   9184     1
   9177   9190     1
   9177   9191     1
   9177   9182     1
   9177   9188     1
   9178   9179     1
   9178   9197     1
   9178   9196     1
   9178   9192     1
   9178   9190     1
   9178   9191     1
   9178   9181     1
   9179   9198     1
   9179   9184     1
   9179   9189     1
   9180   9196     1
   9180   9188     1
   9180   9195     1
   9181   9183     1
   9181   9189     1
   9182   9186     1
   9182   9183     1
   9182   9185     1
   9182   9194     1
   9182   9184     1
   9182   9189     1
   9183   9197     1
   9183   9196     1
   9183   9199     1
   9183   9188     1
   9184   9199     1
   9184   9195     1
   9186   9196     1
   9187   9196     1
   9190   9194     1
   9190   9193     1
   9191   9194     1
   9191   9193     1
   9194   9196     1
   9194   9195     1
   9196   9198     1
   9200   9206     1
   9200   9207     1
   9201   9204     1
   9201   9203     1
   9201   9205     1
   9203   9208     1
   9203   9206     1
   9203   9207     1
   9204   9218     1
   9204   9219     1
   9204   9211     1
   9204   9213     1
   9205   9208     1
   9205   9206     1
   9205   9207     1
   9206   9209     1
   9206   9210     1
   9207   9209     1
   9207   9210     1
   9208   9221     1
   9208   9222     1
   9208   9214     1
   9208   9215     1
   9209   9211     1
   9209   9213     1
   9210   9218     1
   9210   9219     1
   9211   9216     1
   9211   9214     1
   9211   9215     1
   9212   9238     1
   9213   9216     1
   9213   9214     1
   9213   9215     1
   9214   9217     1
   9214   9248     1
   9215   9217     1
   9215   9248     1
   9216   9231     1
   9217   9238     1
   9218   9223     1
   9218   9221     1
   9218   9222     1
   9219   9223     1
   9219   9221     1
   9219   9222     1
   9220   9262     1
   9221   9224     1
   9221   9272     1
   9222   9224     1
   9222   9272     1
   9223   9255     1
   9224   9262     1
   9225   9232     1
   9225   9247     1
   9225   9242     1
   9225   9233     1
   9226   9231     1
   9226   9237     1
   9226   9239     1
   9226   9240     1
   9227   9228     1
   9227   9246     1
   9227   9245     1
   9227   9241     1
   9227   9239     1
   9227   9240     1
   9227   9230     1
   9228   9233     1
   9228   9238     1
   9228   9247     1
   9229   9244     1
   9229   9237     1
   9229   9245     1
   9230   9238     1
   9230   9232     1
   9231   9234     1
   9231   9243     1
   9231   9233     1
   9231   9238     1
   9231   9235     1
   9231   9232     1
   9232   9248     1
   9232   9237     1
   9232   9246     1
   9232   9245     1
   9233   9244     1
   9233   9248     1
   9235   9245     1
   9236   9245     1
   9239   9242     1
   9239   9243     1
   9240   9242     1
   9240   9243     1
   9243   9244     1
   9243   9245     1
   9245   9247     1
   9249   9256     1
   9249   9271     1
   9249   9266     1
   9249   9257     1
   9250   9255     1
   9250   9261     1
   9250   9263     1
   9250   9264     1
   9251   9252     1
   9251   9270     1
   9251   9269     1
   9251   9265     1
   9251   9263     1
   9251   9264     1
   9251   9254     1
   9252   9257     1
   9252   9262     1
   9252   9271     1
   9253   9268     1
   9253   9261     1
   9253   9269     1
   9254   9262     1
   9254   9256     1
   9255   9258     1
   9255   9267     1
   9255   9257     1
   9255   9262     1
   9255   9259     1
   9255   9256     1
   9256   9272     1
   9256   9261     1
   9256   9270     1
   9256   9269     1
   9257   9268     1
   9257   9272     1
   9259   9269     1
   9260   9269     1
   9263   9266     1
   9263   9267     1
   9264   9266     1
   9264   9267     1
   9267   9268     1
   9267   9269     1
   9269   9271     1
   9273   9279     1
   9273   9280     1
   9274   9277     1
   9274   9276     1
   9274   9278     1
   9276   9281     1
   9276   9279     1
   9276   9280     1
   9277   9291     1
   9277   9292     1
   9277   9284     1
   9277   9286     1
   9278   9281     1
   9278   9279     1
   9278   9280     1
   9279   9282     1
   9279   9283     1
   9280   9282     1
   9280   9283     1
   9281   9294     1
   9281   9295     1
   9281   9287     1
   9281   9288     1
   9282   9284     1
   9282   9286     1
   9283   9291     1
   9283   9292     1
   9284   9289     1
   9284   9287     1
   9284   9288     1
   9285   9311     1
   9286   9289     1
   9286   9287     1
   9286   9288     1
   9287   9290     1
   9287   9321     1
   9288   9290     1
   9288   9321     1
   9289   9304     1
   9290   9311     1
   9291   9296     1
   9291   9294     1
   9291   9295     1
   9292   9296     1
   9292   9294     1
   9292   9295     1
   9293   9335     1
   9294   9297     1
   9294   9345     1
   9295   9297     1
   9295   9345     1
   9296   9328     1
   9297   9335     1
   9298   9305     1
   9298   9320     1
   9298   9315     1
   9298   9306     1
   9299   9312     1
   9299   9313     1
   9299   9304     1
   9299   9310     1
   9300   9301     1
   9300   9319     1
   9300   9318     1
   9300   9314     1
   9300   9312     1
   9300   9313     1
   9300   9303     1
   9301   9320     1
   9301   9306     1
   9301   9311     1
   9302   9318     1
   9302   9310     1
   9302   9317     1
   9303   9305     1
   9303   9311     1
   9304   9308     1
   9304   9305     1
   9304   9307     1
   9304   9316     1
   9304   9306     1
   9304   9311     1
   9305   9319     1
   9305   9318     1
   9305   9321     1
   9305   9310     1
   9306   9321     1
   9306   9317     1
   9308   9318     1
   9309   9318     1
   9312   9316     1
   9312   9315     1
   9313   9316     1
   9313   9315     1
   9316   9318     1
   9316   9317     1
   9318   9320     1
   9322   9329     1
   9322   9344     1
   9322   9339     1
   9322   9330     1
   9323   9336     1
   9323   9337     1
   9323   9328     1
   9323   9334     1
   9324   9325     1
   9324   9343     1
   9324   9342     1
   9324   9338     1
   9324   9336     1
   9324   9337     1
   9324   9327     1
   9325   9344     1
   9325   9330     1
   9325   9335     1
   9326   9342     1
   9326   9334     1
   9326   9341     1
   9327   9329     1
   9327   9335     1
   9328   9332     1
   9328   9329     1
   9328   9331     1
   9328   9340     1
   9328   9330     1
   9328   9335     1
   9329   9343     1
   9329   9342     1
   9329   9345     1
   9329   9334     1
   9330   9345     1
   9330   9341     1
   9332   9342     1
   9333   9342     1
   9336   9340     1
   9336   9339     1
   9337   9340     1
   9337   9339     1
   9340   9342     1
   9340   9341     1
   9342   9344     1
   9346   9352     1
   9346   9353     1
   9347   9350     1
   9347   9349     1
   9347   9351     1
   9349   9354     1
   9349   9352     1
   9349   9353     1
   9350   9364     1
   9350   9365     1
   9350   9357     1
   9350   9359     1
   9351   9354     1
   9351   9352     1
   9351   9353     1
   9352   9355     1
   9352   9356     1
   9353   9355     1
   9353   9356     1
   9354   9367     1
   9354   9368     1
   9354   9360     1
   9354   9361     1
   9355   9357     1
   9355   9359     1
   9356   9364     1
   9356   9365     1
   9357   9362     1
   9357   9360     1
   9357   9361     1
   9358   9384     1
   9359   9362     1
   9359   9360     1
   9359   9361     1
   9360   9363     1
   9360   9394     1
   9361   9363     1
   9361   9394     1
   9362   9377     1
   9363   9384     1
   9364   9369     1
   9364   9367     1
   9364   9368     1
   9365   9369     1
   9365   9367     1
   9365   9368     1
   9366   9408     1
   9367   9370     1
   9367   9418     1
   9368   9370     1
   9368   9418     1
   9369   9401     1
   9370   9408     1
   9371   9378     1
   9371   9393     1
   9371   9388     1
   9371   9379     1
   9372   9377     1
   9372   9383     1
   9372   9385     1
   9372   9386     1
   9373   9374     1
   9373   9392     1
   9373   9391     1
   9373   9387     1
   9373   9385     1
   9373   9386     1
   9373   9376     1
   9374   9379     1
   9374   9384     1
   9374   9393     1
   9375   9390     1
   9375   9383     1
   9375   9391     1
   9376   9384     1
   9376   9378     1
   9377   9380     1
   9377   9389     1
   9377   9379     1
   9377   9384     1
   9377   9381     1
   9377   9378     1
   9378   9394     1
   9378   9383     1
   9378   9392     1
   9378   9391     1
   9379   9390     1
   9379   9394     1
   9381   9391     1
   9382   9391     1
   9385   9388     1
   9385   9389     1
   9386   9388     1
   9386   9389     1
   9389   9390     1
   9389   9391     1
   9391   9393     1
   9395   9402     1
   9395   9417     1
   9395   9412     1
   9395   9403     1
   9396   9401     1
   9396   9407     1
   9396   9409     1
   9396   9410     1
   9397   9398     1
   9397   9416     1
   9397   9415     1
   9397   9411     1
   9397   9409     1
   9397   9410     1
   9397   9400     1
   9398   9403     1
   9398   9408     1
   9398   9417     1
   9399   9414     1
   9399   9407     1
   9399   9415     1
   9400   9408     1
   9400   9402     1
   9401   9404     1
   9401   9413     1
   9401   9403     1
   9401   9408     1
   9401   9405     1
   9401   9402     1
   9402   9418     1
   9402   9407     1
   9402   9416     1
   9402   9415     1
   9403   9414     1
   9403   9418     1
   9405   9415     1
   9406   9415     1
   9409   9412     1
   9409   9413     1
   9410   9412     1
   9410   9413     1
   9413   9414     1
   9413   9415     1
   9415   9417     1
   9419   9425     1
   9419   9426     1
   9420   9423     1
   9420   9422     1
   9420   9424     1
   9422   9427     1
   9422   9425     1
   9422   9426     1
   9423   9437     1
   9423   9438     1
   9423   9430     1
   9423   9432     1
   9424   9427     1
   9424   9425     1
   9424   9426     1
   9425   9428     1
   9425   9429     1
   9426   9428     1
   9426   9429     1
   9427   9440     1
   9427   9441     1
   9427   9433     1
   9427   9434     1
   9428   9430     1
   9428   9432     1
   9429   9437     1
   9429   9438     1
   9430   9435     1
   9430   9433     1
   9430   9434     1
   9431   9457     1
   9432   9435     1
   9432   9433     1
   9432   9434     1
   9433   9436     1
   9433   9467     1
   9434   9436     1
   9434   9467     1
   9435   9450     1
   9436   9457     1
   9437   9442     1
   9437   9440     1
   9437   9441     1
   9438   9442     1
   9438   9440     1
   9438   9441     1
   9439   9481     1
   9440   9443     1
   9440   9491     1
   9441   9443     1
   9441   9491     1
   9442   9474     1
   9443   9481     1
   9444   9451     1
   9444   9466     1
   9444   9461     1
   9444   9452     1
   9445   9458     1
   9445   9459     1
   9445   9450     1
   9445   9456     1
   9446   9447     1
   9446   9465     1
   9446   9464     1
   9446   9460     1
   9446   9458     1
   9446   9459     1
   9446   9449     1
   9447   9466     1
   9447   9452     1
   9447   9457     1
   9448   9464     1
   9448   9456     1
   9448   9463     1
   9449   9451     1
   9449   9457     1
   9450   9454     1
   9450   9451     1
   9450   9453     1
   9450   9462     1
   9450   9452     1
   9450   9457     1
   9451   9465     1
   9451   9464     1
   9451   9467     1
   9451   9456     1
   9452   9467     1
   9452   9463     1
   9454   9464     1
   9455   9464     1
   9458   9462     1
   9458   9461     1
   9459   9462     1
   9459   9461     1
   9462   9464     1
   9462   9463     1
   9464   9466     1
   9468   9475     1
   9468   9490     1
   9468   9485     1
   9468   9476     1
   9469   9482     1
   9469   9483     1
   9469   9474     1
   9469   9480     1
   9470   9471     1
   9470   9489     1
   9470   9488     1
   9470   9484     1
   9470   9482     1
   9470   9483     1
   9470   9473     1
   9471   9490     1
   9471   9476     1
   9471   9481     1
   9472   9488     1
   9472   9480     1
   9472   9487     1
   9473   9475     1
   9473   9481     1
   9474   9478     1
   9474   9475     1
   9474   9477     1
   9474   9486     1
   9474   9476     1
   9474   9481     1
   9475   9489     1
   9475   9488     1
   9475   9491     1
   9475   9480     1
   9476   9491     1
   9476   9487     1
   9478   9488     1
   9479   9488     1
   9482   9486     1
   9482   9485     1
   9483   9486     1
   9483   9485     1
   9486   9488     1
   9486   9487     1
   9488   9490     1
   9492   9498     1
   9492   9499     1
   9493   9496     1
   9493   9495     1
   9493   9497     1
   9495   9500     1
   9495   9498     1
   9495   9499     1
   9496   9510     1
   9496   9511     1
   9496   9503     1
   9496   9505     1
   9497   9500     1
   9497   9498     1
   9497   9499     1
   9498   9501     1
   9498   9502     1
   9499   9501     1
   9499   9502     1
   9500   9513     1
   9500   9514     1
   9500   9506     1
   9500   9507     1
   9501   9503     1
   9501   9505     1
   9502   9510     1
   9502   9511     1
   9503   9508     1
   9503   9506     1
   9503   9507     1
   9504   9530     1
   9505   9508     1
   9505   9506     1
   9505   9507     1
   9506   9509     1
   9506   9540     1
   9507   9509     1
   9507   9540     1
   9508   9523     1
   9509   9530     1
   9510   9515     1
   9510   9513     1
   9510   9514     1
   9511   9515     1
   9511   9513     1
   9511   9514     1
   9512   9554     1
   9513   9516     1
   9513   9564     1
   9514   9516     1
   9514   9564     1
   9515   9547     1
   9516   9554     1
   9517   9524     1
   9517   9539     1
   9517   9534     1
   9517   9525     1
   9518   9523     1
   9518   9529     1
   9518   9531     1
   9518   9532     1
   9519   9520     1
   9519   9538     1
   9519   9537     1
   9519   9533     1
   9519   9531     1
   9519   9532     1
   9519   9522     1
   9520   9525     1
   9520   9530     1
   9520   9539     1
   9521   9536     1
   9521   9529     1
   9521   9537     1
   9522   9530     1
   9522   9524     1
   9523   9526     1
   9523   9535     1
   9523   9525     1
   9523   9530     1
   9523   9527     1
   9523   9524     1
   9524   9540     1
   9524   9529     1
   9524   9538     1
   9524   9537     1
   9525   9536     1
   9525   9540     1
   9527   9537     1
   9528   9537     1
   9531   9534     1
   9531   9535     1
   9532   9534     1
   9532   9535     1
   9535   9536     1
   9535   9537     1
   9537   9539     1
   9541   9548     1
   9541   9563     1
   9541   9558     1
   9541   9549     1
   9542   9547     1
   9542   9553     1
   9542   9555     1
   9542   9556     1
   9543   9544     1
   9543   9562     1
   9543   9561     1
   9543   9557     1
   9543   9555     1
   9543   9556     1
   9543   9546     1
   9544   9549     1
   9544   9554     1
   9544   9563     1
   9545   9560     1
   9545   9553     1
   9545   9561     1
   9546   9554     1
   9546   9548     1
   9547   9550     1
   9547   9559     1
   9547   9549     1
   9547   9554     1
   9547   9551     1
   9547   9548     1
   9548   9564     1
   9548   9553     1
   9548   9562     1
   9548   9561     1
   9549   9560     1
   9549   9564     1
   9551   9561     1
   9552   9561     1
   9555   9558     1
   9555   9559     1
   9556   9558     1
   9556   9559     1
   9559   9560     1
   9559   9561     1
   9561   9563     1
   9565   9571     1
   9565   9572     1
   9566   9569     1
   9566   9568     1
   9566   9570     1
   9568   9573     1
   9568   9571     1
   9568   9572     1
   9569   9583     1
   9569   9584     1
   9569   9576     1
   9569   9578     1
   9570   9573     1
   9570   9571     1
   9570   9572     1
   9571   9574     1
   9571   9575     1
   9572   9574     1
   9572   9575     1
   9573   9586     1
   9573   9587     1
   9573   9579     1
   9573   9580     1
   9574   9576     1
   9574   9578     1
   9575   9583     1
   9575   9584     1
   9576   9581     1
   9576   9579     1
   9576   9580     1
   9577   9603     1
   9578   9581     1
   9578   9579     1
   9578   9580     1
   9579   9582     1
   9579   9613     1
   9580   9582     1
   9580   9613     1
   9581   9596     1
   9582   9603     1
   9583   9588     1
   9583   9586     1
   9583   9587     1
   9584   9588     1
   9584   9586     1
   9584   9587     1
   9585   9627     1
   9586   9589     1
   9586   9637     1
   9587   9589     1
   9587   9637     1
   9588   9620     1
   9589   9627     1
   9590   9597     1
   9590   9612     1
   9590   9607     1
   9590   9598     1
   9591   9604     1
   9591   9605     1
   9591   9596     1
   9591   9602     1
   9592   9593     1
   9592   9611     1
   9592   9610     1
   9592   9606     1
   9592   9604     1
   9592   9605     1
   9592   9595     1
   9593   9612     1
   9593   9598     1
   9593   9603     1
   9594   9610     1
   9594   9602     1
   9594   9609     1
   9595   9597     1
   9595   9603     1
   9596   9600     1
   9596   9597     1
   9596   9599     1
   9596   9608     1
   9596   9598     1
   9596   9603     1
   9597   9611     1
   9597   9610     1
   9597   9613     1
   9597   9602     1
   9598   9613     1
   9598   9609     1
   9600   9610     1
   9601   9610     1
   9604   9608     1
   9604   9607     1
   9605   9608     1
   9605   9607     1
   9608   9610     1
   9608   9609     1
   9610   9612     1
   9614   9621     1
   9614   9636     1
   9614   9631     1
   9614   9622     1
   9615   9628     1
   9615   9629     1
   9615   9620     1
   9615   9626     1
   9616   9617     1
   9616   9635     1
   9616   9634     1
   9616   9630     1
   9616   9628     1
   9616   9629     1
   9616   9619     1
   9617   9636     1
   9617   9622     1
   9617   9627     1
   9618   9634     1
   9618   9626     1
   9618   9633     1
   9619   9621     1
   9619   9627     1
   9620   9624     1
   9620   9621     1
   9620   9623     1
   9620   9632     1
   9620   9622     1
   9620   9627     1
   9621   9635     1
   9621   9634     1
   9621   9637     1
   9621   9626     1
   9622   9637     1
   9622   9633     1
   9624   9634     1
   9625   9634     1
   9628   9632     1
   9628   9631     1
   9629   9632     1
   9629   9631     1
   9632   9634     1
   9632   9633     1
   9634   9636     1
   9638   9644     1
   9638   9645     1
   9639   9642     1
   9639   9641     1
   9639   9643     1
   9641   9646     1
   9641   9644     1
   9641   9645     1
   9642   9656     1
   9642   9657     1
   9642   9649     1
   9642   9651     1
   9643   9646     1
   9643   9644     1
   9643   9645     1
   9644   9647     1
   9644   9648     1
   9645   9647     1
   9645   9648     1
   9646   9659     1
   9646   9660     1
   9646   9652     1
   9646   9653     1
   9647   9649     1
   9647   9651     1
   9648   9656     1
   9648   9657     1
   9649   9654     1
   9649   9652     1
   9649   9653     1
   9650   9676     1
   9651   9654     1
   9651   9652     1
   9651   9653     1
   9652   9655     1
   9652   9686     1
   9653   9655     1
   9653   9686     1
   9654   9669     1
   9655   9676     1
   9656   9661     1
   9656   9659     1
   9656   9660     1
   9657   9661     1
   9657   9659     1
   9657   9660     1
   9658   9700     1
   9659   9662     1
   9659   9710     1
   9660   9662     1
   9660   9710     1
   9661   9693     1
   9662   9700     1
   9663   9670     1
   9663   9685     1
   9663   9680     1
   9663   9671     1
   9664   9669     1
   9664   9675     1
   9664   9677     1
   9664   9678     1
   9665   9666     1
   9665   9684     1
   9665   9683     1
   9665   9679     1
   9665   9677     1
   9665   9678     1
   9665   9668     1
   9666   9671     1
   9666   9676     1
   9666   9685     1
   9667   9682     1
   9667   9675     1
   9667   9683     1
   9668   9676     1
   9668   9670     1
   9669   9672     1
   9669   9681     1
   9669   9671     1
   9669   9676     1
   9669   9673     1
   9669   9670     1
   9670   9686     1
   9670   9675     1
   9670   9684     1
   9670   9683     1
   9671   9682     1
   9671   9686     1
   9673   9683     1
   9674   9683     1
   9677   9680     1
   9677   9681     1
   9678   9680     1
   9678   9681     1
   9681   9682     1
   9681   9683     1
   9683   9685     1
   9687   9694     1
   9687   9709     1
   9687   9704     1
   9687   9695     1
   9688   9693     1
   9688   9699     1
   9688   9701     1
   9688   9702     1
   9689   9690     1
   9689   9708     1
   9689   9707     1
   9689   9703     1
   9689   9701     1
   9689   9702     1
   9689   9692     1
   9690   9695     1
   9690   9700     1
   9690   9709     1
   9691   9706     1
   9691   9699     1
   9691   9707     1
   9692   9700     1
   9692   9694     1
   9693   9696     1
   9693   9705     1
   9693   9695     1
   9693   9700     1
   9693   9697     1
   9693   9694     1
   9694   9710     1
   9694   9699     1
   9694   9708     1
   9694   9707     1
   9695   9706     1
   9695   9710     1
   9697   9707     1
   9698   9707     1
   9701   9704     1
   9701   9705     1
   9702   9704     1
   9702   9705     1
   9705   9706     1
   9705   9707     1
   9707   9709     1
   9711   9717     1
   9711   9718     1
   9712   9715     1
   9712   9714     1
   9712   9716     1
   9714   9719     1
   9714   9717     1
   9714   9718     1
   9715   9729     1
   9715   9730     1
   9715   9722     1
   9715   9724     1
   9716   9719     1
   9716   9717     1
   9716   9718     1
   9717   9720     1
   9717   9721     1
   9718   9720     1
   9718   9721     1
   9719   9732     1
   9719   9733     1
   9719   9725     1
   9719   9726     1
   9720   9722     1
   9720   9724     1
   9721   9729     1
   9721   9730     1
   9722   9727     1
   9722   9725     1
   9722   9726     1
   9723   9749     1
   9724   9727     1
   9724   9725     1
   9724   9726     1
   9725   9728     1
   9725   9759     1
   9726   9728     1
   9726   9759     1
   9727   9742     1
   9728   9749     1
   9729   9734     1
   9729   9732     1
   9729   9733     1
   9730   9734     1
   9730   9732     1
   9730   9733     1
   9731   9773     1
   9732   9735     1
   9732   9783     1
   9733   9735     1
   9733   9783     1
   9734   9766     1
   9735   9773     1
   9736   9743     1
   9736   9758     1
   9736   9753     1
   9736   9744     1
   9737   9750     1
   9737   9751     1
   9737   9742     1
   9737   9748     1
   9738   9739     1
   9738   9757     1
   9738   9756     1
   9738   9752     1
   9738   9750     1
   9738   9751     1
   9738   9741     1
   9739   9758     1
   9739   9744     1
   9739   9749     1
   9740   9756     1
   9740   9748     1
   9740   9755     1
   9741   9743     1
   9741   9749     1
   9742   9746     1
   9742   9743     1
   9742   9745     1
   9742   9754     1
   9742   9744     1
   9742   9749     1
   9743   9757     1
   9743   9756     1
   9743   9759     1
   9743   9748     1
   9744   9759     1
   9744   9755     1
   9746   9756     1
   9747   9756     1
   9750   9754     1
   9750   9753     1
   9751   9754     1
   9751   9753     1
   9754   9756     1
   9754   9755     1
   9756   9758     1
   9760   9767     1
   9760   9782     1
   9760   9777     1
   9760   9768     1
   9761   9774     1
   9761   9775     1
   9761   9766     1
   9761   9772     1
   9762   9763     1
   9762   9781     1
   9762   9780     1
   9762   9776     1
   9762   9774     1
   9762   9775     1
   9762   9765     1
   9763   9782     1
   9763   9768     1
   9763   9773     1
   9764   9780     1
   9764   9772     1
   9764   9779     1
   9765   9767     1
   9765   9773     1
   9766   9770     1
   9766   9767     1
   9766   9769     1
   9766   9778     1
   9766   9768     1
   9766   9773     1
   9767   9781     1
   9767   9780     1
   9767   9783     1
   9767   9772     1
   9768   9783     1
   9768   9779     1
   9770   9780     1
   9771   9780     1
   9774   9778     1
   9774   9777     1
   9775   9778     1
   9775   9777     1
   9778   9780     1
   9778   9779     1
   9780   9782     1
   9784   9790     1
   9784   9791     1
   9785   9788     1
   9785   9787     1
   9785   9789     1
   9787   9792     1
   9787   9790     1
   9787   9791     1
   9788   9802     1
   9788   9803     1
   9788   9795     1
   9788   9797     1
   9789   9792     1
   9789   9790     1
   9789   9791     1
   9790   9793     1
   9790   9794     1
   9791   9793     1
   9791   9794     1
   9792   9805     1
   9792   9806     1
   9792   9798     1
   9792   9799     1
   9793   9795     1
   9793   9797     1
   9794   9802     1
   9794   9803     1
   9795   9800     1
   9795   9798     1
   9795   9799     1
   9796   9822     1
   9797   9800     1
   9797   9798     1
   9797   9799     1
   9798   9801     1
   9798   9832     1
   9799   9801     1
   9799   9832     1
   9800   9815     1
   9801   9822     1
   9802   9807     1
   9802   9805     1
   9802   9806     1
   9803   9807     1
   9803   9805     1
   9803   9806     1
   9804   9846     1
   9805   9808     1
   9805   9856     1
   9806   9808     1
   9806   9856     1
   9807   9839     1
   9808   9846     1
   9809   9816     1
   9809   9831     1
   9809   9826     1
   9809   9817     1
   9810   9815     1
   9810   9821     1
   9810   9823     1
   9810   9824     1
   9811   9812     1
   9811   9830     1
   9811   9829     1
   9811   9825     1
   9811   9823     1
   9811   9824     1
   9811   9814     1
   9812   9817     1
   9812   9822     1
   9812   9831     1
   9813   9828     1
   9813   9821     1
   9813   9829     1
   9814   9822     1
   9814   9816     1
   9815   9818     1
   9815   9827     1
   9815   9817     1
   9815   9822     1
   9815   9819     1
   9815   9816     1
   9816   9832     1
   9816   9821     1
   9816   9830     1
   9816   9829     1
   9817   9828     1
   9817   9832     1
   9819   9829     1
   9820   9829     1
   9823   9826     1
   9823   9827     1
   9824   9826     1
   9824   9827     1
   9827   9828     1
   9827   9829     1
   9829   9831     1
   9833   9840     1
   9833   9855     1
   9833   9850     1
   9833   9841     1
   9834   9839     1
   9834   9845     1
   9834   9847     1
   9834   9848     1
   9835   9836     1
   9835   9854     1
   9835   9853     1
   9835   9849     1
   9835   9847     1
   9835   9848     1
   9835   9838     1
   9836   9841     1
   9836   9846     1
   9836   9855     1
   9837   9852     1
   9837   9845     1
   9837   9853     1
   9838   9846     1
   9838   9840     1
   9839   9842     1
   9839   9851     1
   9839   9841     1
   9839   9846     1
   9839   9843     1
   9839   9840     1
   9840   9856     1
   9840   9845     1
   9840   9854     1
   9840   9853     1
   9841   9852     1
   9841   9856     1
   9843   9853     1
   9844   9853     1
   9847   9850     1
   9847   9851     1
   9848   9850     1
   9848   9851     1
   9851   9852     1
   9851   9853     1
   9853   9855     1
   9857   9863     1
   9857   9864     1
   9858   9861     1
   9858   9860     1
   9858   9862     1
   9860   9865     1
   9860   9863     1
   9860   9864     1
   9861   9875     1
   9861   9876     1
   9861   9868     1
   9861   9870     1
   9862   9865     1
   9862   9863     1
   9862   9864     1
   9863   9866     1
   9863   9867     1
   9864   9866     1
   9864   9867     1
   9865   9878     1
   9865   9879     1
   9865   9871     1
   9865   9872     1
   9866   9868     1
   9866   9870     1
   9867   9875     1
   9867   9876     1
   9868   9873     1
   9868   9871     1
   9868   9872     1
   9869   9895     1
   9870   9873     1
   9870   9871     1
   9870   9872     1
   9871   9874     1
   9871   9905     1
   9872   9874     1
   9872   9905     1
   9873   9888     1
   9874   9895     1
   9875   9880     1
   9875   9878     1
   9875   9879     1
   9876   9880     1
   9876   9878     1
   9876   9879     1
   9877   9919     1
   9878   9881     1
   9878   9929     1
   9879   9881     1
   9879   9929     1
   9880   9912     1
   9881   9919     1
   9882   9889     1
   9882   9904     1
   9882   9899     1
   9882   9890     1
   9883   9896     1
   9883   9897     1
   9883   9888     1
   9883   9894     1
   9884   9885     1
   9884   9903     1
   9884   9902     1
   9884   9898     1
   9884   9896     1
   9884   9897     1
   9884   9887     1
   9885   9904     1
   9885   9890     1
   9885   9895     1
   9886   9902     1
   9886   9894     1
   9886   9901     1
   9887   9889     1
   9887   9895     1
   9888   9892     1
   9888   9889     1
   9888   9891     1
   9888   9900     1
   9888   9890     1
   9888   9895     1
   9889   9903     1
   9889   9902     1
   9889   9905     1
   9889   9894     1
   9890   9905     1
   9890   9901     1
   9892   9902     1
   9893   9902     1
   9896   9900     1
   9896   9899     1
   9897   9900     1
   9897   9899     1
   9900   9902     1
   9900   9901     1
   9902   9904     1
   9906   9913     1
   9906   9928     1
   9906   9923     1
   9906   9914     1
   9907   9920     1
   9907   9921     1
   9907   9912     1
   9907   9918     1
   9908   9909     1
   9908   9927     1
   9908   9926     1
   9908   9922     1
   9908   9920     1
   9908   9921     1
   9908   9911     1
   9909   9928     1
   9909   9914     1
   9909   9919     1
   9910   9926     1
   9910   9918     1
   9910   9925     1
   9911   9913     1
   9911   9919     1
   9912   9916     1
   9912   9913     1
   9912   9915     1
   9912   9924     1
   9912   9914     1
   9912   9919     1
   9913   9927     1
   9913   9926     1
   9913   9929     1
   9913   9918     1
   9914   9929     1
   9914   9925     1
   9916   9926     1
   9917   9926     1
   9920   9924     1
   9920   9923     1
   9921   9924     1
   9921   9923     1
   9924   9926     1
   9924   9925     1
   9926   9928     1
   9930   9936     1
   9930   9937     1
   9931   9934     1
   9931   9933     1
   9931   9935     1
   9933   9938     1
   9933   9936     1
   9933   9937     1
   9934   9948     1
   9934   9949     1
   9934   9941     1
   9934   9943     1
   9935   9938     1
   9935   9936     1
   9935   9937     1
   9936   9939     1
   9936   9940     1
   9937   9939     1
   9937   9940     1
   9938   9951     1
   9938   9952     1
   9938   9944     1
   9938   9945     1
   9939   9941     1
   9939   9943     1
   9940   9948     1
   9940   9949     1
   9941   9946     1
   9941   9944     1
   9941   9945     1
   9942   9968     1
   9943   9946     1
   9943   9944     1
   9943   9945     1
   9944   9947     1
   9944   9978     1
   9945   9947     1
   9945   9978     1
   9946   9961     1
   9947   9968     1
   9948   9953     1
   9948   9951     1
   9948   9952     1
   9949   9953     1
   9949   9951     1
   9949   9952     1
   9950   9992     1
   9951   9954     1
   9951  10002     1
   9952   9954     1
   9952  10002     1
   9953   9985     1
   9954   9992     1
   9955   9962     1
   9955   9977     1
   9955   9972     1
   9955   9963     1
   9956   9961     1
   9956   9967     1
   9956   9969     1
   9956   9970     1
   9957   9958     1
   9957   9976     1
   9957   9975     1
   9957   9971     1
   9957   9969     1
   9957   9970     1
   9957   9960     1
   9958   9963     1
   9958   9968     1
   9958   9977     1
   9959   9974     1
   9959   9967     1
   9959   9975     1
   9960   9968     1
   9960   9962     1
   9961   9964     1
   9961   9973     1
   9961   9963     1
   9961   9968     1
   9961   9965     1
   9961   9962     1
   9962   9978     1
   9962   9967     1
   9962   9976     1
   9962   9975     1
   9963   9974     1
   9963   9978     1
   9965   9975     1
   9966   9975     1
   9969   9972     1
   9969   9973     1
   9970   9972     1
   9970   9973     1
   9973   9974     1
   9973   9975     1
   9975   9977     1
   9979   9986     1
   9979  10001     1
   9979   9996     1
   9979   9987     1
   9980   9985     1
   9980   9991     1
   9980   9993     1
   9980   9994     1
   9981   9982     1
   9981  10000     1
   9981   9999     1
   9981   9995     1
   9981   9993     1
   9981   9994     1
   9981   9984     1
   9982   9987     1
   9982   9992     1
   9982  10001     1
   9983   9998     1
   9983   9991     1
   9983   9999     1
   9984   9992     1
   9984   9986     1
   9985   9988     1
   9985   9997     1
   9985   9987     1
   9985   9992     1
   9985   9989     1
   9985   9986     1
   9986  10002     1
   9986   9991     1
   9986  10000     1
   9986   9999     1
   9987   9998     1
   9987  10002     1
   9989   9999     1
   9990   9999     1
   9993   9996     1
   9993   9997     1
   9994   9996     1
   9994   9997     1
   9997   9998     1
   9997   9999     1
   9999  10001     1
  10003  10009     1
  10003  10010     1
  10004  10007     1
  10004  10006     1
  10004  10008     1
  10006  10011     1
  10006  10009     1
  10006  10010     1
  10007  10021     1
  10007  10022     1
  10007  10014     1
  10007  10016     1
  10008  10011     1
  10008  10009     1
  10008  10010     1
  10009  10012     1
  10009  10013     1
  10010  10012     1
  10010  10013     1
  10011  10024     1
  10011  10025     1
  10011  10017     1
  10011  10018     1
  10012  10014     1
  10012  10016     1
  10013  10021     1
  10013  10022     1
  10014  10019     1
  10014  10017     1
  10014  10018     1
  10015  10041     1
  10016  10019     1
  10016  10017     1
  10016  10018     1
  10017  10020     1
  10017  10051     1
  10018  10020     1
  10018  10051     1
  10019  10034     1
  10020  10041     1
  10021  10026     1
  10021  10024     1
  10021  10025     1
  10022  10026     1
  10022  10024     1
  10022  10025     1
  10023  10065     1
  10024  10027     1
  10024  10075     1
  10025  10027     1
  10025  10075     1
  10026  10058     1
  10027  10065     1
  10028  10035     1
  10028  10050     1
  10028  10045     1
  10028  10036     1
  10029  10042     1
  10029  10043     1
  10029  10034     1
  10029  10040     1
  10030  10031     1
  10030  10049     1
  10030  10048     1
  10030  10044     1
  10030  10042     1
  10030  10043     1
  10030  10033     1
  10031  10050     1
  10031  10036     1
  10031  10041     1
  10032  10048     1
  10032  10040     1
  10032  10047     1
  10033  10035     1
  10033  10041     1
  10034  10038     1
  10034  10035     1
  10034  10037     1
  10034  10046     1
  10034  10036     1
  10034  10041     1
  10035  10049     1
  10035  10048     1
  10035  10051     1
  10035  10040     1
  10036  10051     1
  10036  10047     1
  10038  10048     1
  10039  10048     1
  10042  10046     1
  10042  10045     1
  10043  10046     1
  10043  10045     1
  10046  10048     1
  10046  10047     1
  10048  10050     1
  10052  10059     1
  10052  10074     1
  10052  10069     1
  10052  10060     1
  10053  10066     1
  10053  10067     1
  10053  10058     1
  10053  10064     1
  10054  10055     1
  10054  10073     1
  10054  10072     1
  10054  10068     1
  10054  10066     1
  10054  10067     1
  10054  10057     1
  10055  10074     1
  10055  10060     1
  10055  10065     1
  10056  10072     1
  10056  10064     1
  10056  10071     1
  10057  10059     1
  10057  10065     1
  10058  10062     1
  10058  10059     1
  10058  10061     1
  10058  10070     1
  10058  10060     1
  10058  10065     1
  10059  10073     1
  10059  10072     1
  10059  10075     1
  10059  10064     1
  10060  10075     1
  10060  10071     1
  10062  10072     1
  10063  10072     1
  10066  10070     1
  10066  10069     1
  10067  10070     1
  10067  10069     1
  10070  10072     1
  10070  10071     1
  10072  10074     1
  10076  10082     1
  10076  10083     1
  10077  10080     1
  10077  10079     1
  10077  10081     1
  10079  10084     1
  10079  10082     1
  10079  10083     1
  10080  10094     1
  10080  10095     1
  10080  10087     1
  10080  10089     1
  10081  10084     1
  10081  10082     1
  10081  10083     1
  10082  10085     1
  10082  10086     1
  10083  10085     1
  10083  10086     1
  10084  10097     1
  10084  10098     1
  10084  10090     1
  10084  10091     1
  10085  10087     1
  10085  10089     1
  10086  10094     1
  10086  10095     1
  10087  10092     1
  10087  10090     1
  10087  10091     1
  10088  10114     1
  10089  10092     1
  10089  10090     1
  10089  10091     1
  10090  10093     1
  10090  10124     1
  10091  10093     1
  10091  10124     1
  10092  10107     1
  10093  10114     1
  10094  10099     1
  10094  10097     1
  10094  10098     1
  10095  10099     1
  10095  10097     1
  10095  10098     1
  10096  10138     1
  10097  10100     1
  10097  10148     1
  10098  10100     1
  10098  10148     1
  10099  10131     1
  10100  10138     1
  10101  10108     1
  10101  10123     1
  10101  10118     1
  10101  10109     1
  10102  10107     1
  10102  10113     1
  10102  10115     1
  10102  10116     1
  10103  10104     1
  10103  10122     1
  10103  10121     1
  10103  10117     1
  10103  10115     1
  10103  10116     1
  10103  10106     1
  10104  10109     1
  10104  10114     1
  10104  10123     1
  10105  10120     1
  10105  10113     1
  10105  10121     1
  10106  10114     1
  10106  10108     1
  10107  10110     1
  10107  10119     1
  10107  10109     1
  10107  10114     1
  10107  10111     1
  10107  10108     1
  10108  10124     1
  10108  10113     1
  10108  10122     1
  10108  10121     1
  10109  10120     1
  10109  10124     1
  10111  10121     1
  10112  10121     1
  10115  10118     1
  10115  10119     1
  10116  10118     1
  10116  10119     1
  10119  10120     1
  10119  10121     1
  10121  10123     1
  10125  10132     1
  10125  10147     1
  10125  10142     1
  10125  10133     1
  10126  10131     1
  10126  10137     1
  10126  10139     1
  10126  10140     1
  10127  10128     1
  10127  10146     1
  10127  10145     1
  10127  10141     1
  10127  10139     1
  10127  10140     1
  10127  10130     1
  10128  10133     1
  10128  10138     1
  10128  10147     1
  10129  10144     1
  10129  10137     1
  10129  10145     1
  10130  10138     1
  10130  10132     1
  10131  10134     1
  10131  10143     1
  10131  10133     1
  10131  10138     1
  10131  10135     1
  10131  10132     1
  10132  10148     1
  10132  10137     1
  10132  10146     1
  10132  10145     1
  10133  10144     1
  10133  10148     1
  10135  10145     1
  10136  10145     1
  10139  10142     1
  10139  10143     1
  10140  10142     1
  10140  10143     1
  10143  10144     1
  10143  10145     1
  10145  10147     1
  10149  10155     1
  10149  10156     1
  10150  10153     1
  10150  10152     1
  10150  10154     1
  10152  10157     1
  10152  10155     1
  10152  10156     1
  10153  10167     1
  10153  10168     1
  10153  10160     1
  10153  10162     1
  10154  10157     1
  10154  10155     1
  10154  10156     1
  10155  10158     1
  10155  10159     1
  10156  10158     1
  10156  10159     1
  10157  10170     1
  10157  10171     1
  10157  10163     1
  10157  10164     1
  10158  10160     1
  10158  10162     1
  10159  10167     1
  10159  10168     1
  10160  10165     1
  10160  10163     1
  10160  10164     1
  10161  10187     1
  10162  10165     1
  10162  10163     1
  10162  10164     1
  10163  10166     1
  10163  10197     1
  10164  10166     1
  10164  10197     1
  10165  10180     1
  10166  10187     1
  10167  10172     1
  10167  10170     1
  10167  10171     1
  10168  10172     1
  10168  10170     1
  10168  10171     1
  10169  10211     1
  10170  10173     1
  10170  10221     1
  10171  10173     1
  10171  10221     1
  10172  10204     1
  10173  10211     1
  10174  10181     1
  10174  10196     1
  10174  10191     1
  10174  10182     1
  10175  10188     1
  10175  10189     1
  10175  10180     1
  10175  10186     1
  10176  10177     1
  10176  10195     1
  10176  10194     1
  10176  10190     1
  10176  10188     1
  10176  10189     1
  10176  10179     1
  10177  10196     1
  10177  10182     1
  10177  10187     1
  10178  10194     1
  10178  10186     1
  10178  10193     1
  10179  10181     1
  10179  10187     1
  10180  10184     1
  10180  10181     1
  10180  10183     1
  10180  10192     1
  10180  10182     1
  10180  10187     1
  10181  10195     1
  10181  10194     1
  10181  10197     1
  10181  10186     1
  10182  10197     1
  10182  10193     1
  10184  10194     1
  10185  10194     1
  10188  10192     1
  10188  10191     1
  10189  10192     1
  10189  10191     1
  10192  10194     1
  10192  10193     1
  10194  10196     1
  10198  10205     1
  10198  10220     1
  10198  10215     1
  10198  10206     1
  10199  10212     1
  10199  10213     1
  10199  10204     1
  10199  10210     1
  10200  10201     1
  10200  10219     1
  10200  10218     1
  10200  10214     1
  10200  10212     1
  10200  10213     1
  10200  10203     1
  10201  10220     1
  10201  10206     1
  10201  10211     1
  10202  10218     1
  10202  10210     1
  10202  10217     1
  10203  10205     1
  10203  10211     1
  10204  10208     1
  10204  10205     1
  10204  10207     1
  10204  10216     1
  10204  10206     1
  10204  10211     1
  10205  10219     1
  10205  10218     1
  10205  10221     1
  10205  10210     1
  10206  10221     1
  10206  10217     1
  10208  10218     1
  10209  10218     1
  10212  10216     1
  10212  10215     1
  10213  10216     1
  10213  10215     1
  10216  10218     1
  10216  10217     1
  10218  10220     1
  10222  10228     1
  10222  10229     1
  10223  10226     1
  10223  10225     1
  10223  10227     1
  10225  10230     1
  10225  10228     1
  10225  10229     1
  10226  10240     1
  10226  10241     1
  10226  10233     1
  10226  10235     1
  10227  10230     1
  10227  10228     1
  10227  10229     1
  10228  10231     1
  10228  10232     1
  10229  10231     1
  10229  10232     1
  10230  10243     1
  10230  10244     1
  10230  10236     1
  10230  10237     1
  10231  10233     1
  10231  10235     1
  10232  10240     1
  10232  10241     1
  10233  10238     1
  10233  10236     1
  10233  10237     1
  10234  10260     1
  10235  10238     1
  10235  10236     1
  10235  10237     1
  10236  10239     1
  10236  10270     1
  10237  10239     1
  10237  10270     1
  10238  10253     1
  10239  10260     1
  10240  10245     1
  10240  10243     1
  10240  10244     1
  10241  10245     1
  10241  10243     1
  10241  10244     1
  10242  10284     1
  10243  10246     1
  10243  10294     1
  10244  10246     1
  10244  10294     1
  10245  10277     1
  10246  10284     1
  10247  10254     1
  10247  10269     1
  10247  10264     1
  10247  10255     1
  10248  10253     1
  10248  10259     1
  10248  10261     1
  10248  10262     1
  10249  10250     1
  10249  10268     1
  10249  10267     1
  10249  10263     1
  10249  10261     1
  10249  10262     1
  10249  10252     1
  10250  10255     1
  10250  10260     1
  10250  10269     1
  10251  10266     1
  10251  10259     1
  10251  10267     1
  10252  10260     1
  10252  10254     1
  10253  10256     1
  10253  10265     1
  10253  10255     1
  10253  10260     1
  10253  10257     1
  10253  10254     1
  10254  10270     1
  10254  10259     1
  10254  10268     1
  10254  10267     1
  10255  10266     1
  10255  10270     1
  10257  10267     1
  10258  10267     1
  10261  10264     1
  10261  10265     1
  10262  10264     1
  10262  10265     1
  10265  10266     1
  10265  10267     1
  10267  10269     1
  10271  10278     1
  10271  10293     1
  10271  10288     1
  10271  10279     1
  10272  10277     1
  10272  10283     1
  10272  10285     1
  10272  10286     1
  10273  10274     1
  10273  10292     1
  10273  10291     1
  10273  10287     1
  10273  10285     1
  10273  10286     1
  10273  10276     1
  10274  10279     1
  10274  10284     1
  10274  10293     1
  10275  10290     1
  10275  10283     1
  10275  10291     1
  10276  10284     1
  10276  10278     1
  10277  10280     1
  10277  10289     1
  10277  10279     1
  10277  10284     1
  10277  10281     1
  10277  10278     1
  10278  10294     1
  10278  10283     1
  10278  10292     1
  10278  10291     1
  10279  10290     1
  10279  10294     1
  10281  10291     1
  10282  10291     1
  10285  10288     1
  10285  10289     1
  10286  10288     1
  10286  10289     1
  10289  10290     1
  10289  10291     1
  10291  10293     1
  10295  10301     1
  10295  10302     1
  10296  10299     1
  10296  10298     1
  10296  10300     1
  10298  10303     1
  10298  10301     1
  10298  10302     1
  10299  10313     1
  10299  10314     1
  10299  10306     1
  10299  10308     1
  10300  10303     1
  10300  10301     1
  10300  10302     1
  10301  10304     1
  10301  10305     1
  10302  10304     1
  10302  10305     1
  10303  10316     1
  10303  10317     1
  10303  10309     1
  10303  10310     1
  10304  10306     1
  10304  10308     1
  10305  10313     1
  10305  10314     1
  10306  10311     1
  10306  10309     1
  10306  10310     1
  10307  10333     1
  10308  10311     1
  10308  10309     1
  10308  10310     1
  10309  10312     1
  10309  10343     1
  10310  10312     1
  10310  10343     1
  10311  10326     1
  10312  10333     1
  10313  10318     1
  10313  10316     1
  10313  10317     1
  10314  10318     1
  10314  10316     1
  10314  10317     1
  10315  10357     1
  10316  10319     1
  10316  10367     1
  10317  10319     1
  10317  10367     1
  10318  10350     1
  10319  10357     1
  10320  10327     1
  10320  10342     1
  10320  10337     1
  10320  10328     1
  10321  10334     1
  10321  10335     1
  10321  10326     1
  10321  10332     1
  10322  10323     1
  10322  10341     1
  10322  10340     1
  10322  10336     1
  10322  10334     1
  10322  10335     1
  10322  10325     1
  10323  10342     1
  10323  10328     1
  10323  10333     1
  10324  10340     1
  10324  10332     1
  10324  10339     1
  10325  10327     1
  10325  10333     1
  10326  10330     1
  10326  10327     1
  10326  10329     1
  10326  10338     1
  10326  10328     1
  10326  10333     1
  10327  10341     1
  10327  10340     1
  10327  10343     1
  10327  10332     1
  10328  10343     1
  10328  10339     1
  10330  10340     1
  10331  10340     1
  10334  10338     1
  10334  10337     1
  10335  10338     1
  10335  10337     1
  10338  10340     1
  10338  10339     1
  10340  10342     1
  10344  10351     1
  10344  10366     1
  10344  10361     1
  10344  10352     1
  10345  10358     1
  10345  10359     1
  10345  10350     1
  10345  10356     1
  10346  10347     1
  10346  10365     1
  10346  10364     1
  10346  10360     1
  10346  10358     1
  10346  10359     1
  10346  10349     1
  10347  10366     1
  10347  10352     1
  10347  10357     1
  10348  10364     1
  10348  10356     1
  10348  10363     1
  10349  10351     1
  10349  10357     1
  10350  10354     1
  10350  10351     1
  10350  10353     1
  10350  10362     1
  10350  10352     1
  10350  10357     1
  10351  10365     1
  10351  10364     1
  10351  10367     1
  10351  10356     1
  10352  10367     1
  10352  10363     1
  10354  10364     1
  10355  10364     1
  10358  10362     1
  10358  10361     1
  10359  10362     1
  10359  10361     1
  10362  10364     1
  10362  10363     1
  10364  10366     1
  10368  10374     1
  10368  10375     1
  10369  10372     1
  10369  10371     1
  10369  10373     1
  10371  10376     1
  10371  10374     1
  10371  10375     1
  10372  10386     1
  10372  10387     1
  10372  10379     1
  10372  10381     1
  10373  10376     1
  10373  10374     1
  10373  10375     1
  10374  10377     1
  10374  10378     1
  10375  10377     1
  10375  10378     1
  10376  10389     1
  10376  10390     1
  10376  10382     1
  10376  10383     1
  10377  10379     1
  10377  10381     1
  10378  10386     1
  10378  10387     1
  10379  10384     1
  10379  10382     1
  10379  10383     1
  10380  10406     1
  10381  10384     1
  10381  10382     1
  10381  10383     1
  10382  10385     1
  10382  10416     1
  10383  10385     1
  10383  10416     1
  10384  10399     1
  10385  10406     1
  10386  10391     1
  10386  10389     1
  10386  10390     1
  10387  10391     1
  10387  10389     1
  10387  10390     1
  10388  10430     1
  10389  10392     1
  10389  10440     1
  10390  10392     1
  10390  10440     1
  10391  10423     1
  10392  10430     1
  10393  10400     1
  10393  10415     1
  10393  10410     1
  10393  10401     1
  10394  10399     1
  10394  10405     1
  10394  10407     1
  10394  10408     1
  10395  10396     1
  10395  10414     1
  10395  10413     1
  10395  10409     1
  10395  10407     1
  10395  10408     1
  10395  10398     1
  10396  10401     1
  10396  10406     1
  10396  10415     1
  10397  10412     1
  10397  10405     1
  10397  10413     1
  10398  10406     1
  10398  10400     1
  10399  10402     1
  10399  10411     1
  10399  10401     1
  10399  10406     1
  10399  10403     1
  10399  10400     1
  10400  10416     1
  10400  10405     1
  10400  10414     1
  10400  10413     1
  10401  10412     1
  10401  10416     1
  10403  10413     1
  10404  10413     1
  10407  10410     1
  10407  10411     1
  10408  10410     1
  10408  10411     1
  10411  10412     1
  10411  10413     1
  10413  10415     1
  10417  10424     1
  10417  10439     1
  10417  10434     1
  10417  10425     1
  10418  10423     1
  10418  10429     1
  10418  10431     1
  10418  10432     1
  10419  10420     1
  10419  10438     1
  10419  10437     1
  10419  10433     1
  10419  10431     1
  10419  10432     1
  10419  10422     1
  10420  10425     1
  10420  10430     1
  10420  10439     1
  10421  10436     1
  10421  10429     1
  10421  10437     1
  10422  10430     1
  10422  10424     1
  10423  10426     1
  10423  10435     1
  10423  10425     1
  10423  10430     1
  10423  10427     1
  10423  10424     1
  10424  10440     1
  10424  10429     1
  10424  10438     1
  10424  10437     1
  10425  10436     1
  10425  10440     1
  10427  10437     1
  10428  10437     1
  10431  10434     1
  10431  10435     1
  10432  10434     1
  10432  10435     1
  10435  10436     1
  10435  10437     1
  10437  10439     1
  10441  10447     1
  10441  10448     1
  10442  10445     1
  10442  10444     1
  10442  10446     1
  10444  10449     1
  10444  10447     1
  10444  10448     1
  10445  10459     1
  10445  10460     1
  10445  10452     1
  10445  10454     1
  10446  10449     1
  10446  10447     1
  10446  10448     1
  10447  10450     1
  10447  10451     1
  10448  10450     1
  10448  10451     1
  10449  10462     1
  10449  10463     1
  10449  10455     1
  10449  10456     1
  10450  10452     1
  10450  10454     1
  10451  10459     1
  10451  10460     1
  10452  10457     1
  10452  10455     1
  10452  10456     1
  10453  10479     1
  10454  10457     1
  10454  10455     1
  10454  10456     1
  10455  10458     1
  10455  10489     1
  10456  10458     1
  10456  10489     1
  10457  10472     1
  10458  10479     1
  10459  10464     1
  10459  10462     1
  10459  10463     1
  10460  10464     1
  10460  10462     1
  10460  10463     1
  10461  10503     1
  10462  10465     1
  10462  10513     1
  10463  10465     1
  10463  10513     1
  10464  10496     1
  10465  10503     1
  10466  10473     1
  10466  10488     1
  10466  10483     1
  10466  10474     1
  10467  10480     1
  10467  10481     1
  10467  10472     1
  10467  10478     1
  10468  10469     1
  10468  10487     1
  10468  10486     1
  10468  10482     1
  10468  10480     1
  10468  10481     1
  10468  10471     1
  10469  10488     1
  10469  10474     1
  10469  10479     1
  10470  10486     1
  10470  10478     1
  10470  10485     1
  10471  10473     1
  10471  10479     1
  10472  10476     1
  10472  10473     1
  10472  10475     1
  10472  10484     1
  10472  10474     1
  10472  10479     1
  10473  10487     1
  10473  10486     1
  10473  10489     1
  10473  10478     1
  10474  10489     1
  10474  10485     1
  10476  10486     1
  10477  10486     1
  10480  10484     1
  10480  10483     1
  10481  10484     1
  10481  10483     1
  10484  10486     1
  10484  10485     1
  10486  10488     1
  10490  10497     1
  10490  10512     1
  10490  10507     1
  10490  10498     1
  10491  10504     1
  10491  10505     1
  10491  10496     1
  10491  10502     1
  10492  10493     1
  10492  10511     1
  10492  10510     1
  10492  10506     1
  10492  10504     1
  10492  10505     1
  10492  10495     1
  10493  10512     1
  10493  10498     1
  10493  10503     1
  10494  10510     1
  10494  10502     1
  10494  10509     1
  10495  10497     1
  10495  10503     1
  10496  10500     1
  10496  10497     1
  10496  10499     1
  10496  10508     1
  10496  10498     1
  10496  10503     1
  10497  10511     1
  10497  10510     1
  10497  10513     1
  10497  10502     1
  10498  10513     1
  10498  10509     1
  10500  10510     1
  10501  10510     1
  10504  10508     1
  10504  10507     1
  10505  10508     1
  10505  10507     1
  10508  10510     1
  10508  10509     1
  10510  10512     1
  10514  10520     1
  10514  10521     1
  10515  10518     1
  10515  10517     1
  10515  10519     1
  10517  10522     1
  10517  10520     1
  10517  10521     1
  10518  10532     1
  10518  10533     1
  10518  10525     1
  10518  10527     1
  10519  10522     1
  10519  10520     1
  10519  10521     1
  10520  10523     1
  10520  10524     1
  10521  10523     1
  10521  10524     1
  10522  10535     1
  10522  10536     1
  10522  10528     1
  10522  10529     1
  10523  10525     1
  10523  10527     1
  10524  10532     1
  10524  10533     1
  10525  10530     1
  10525  10528     1
  10525  10529     1
  10526  10552     1
  10527  10530     1
  10527  10528     1
  10527  10529     1
  10528  10531     1
  10528  10562     1
  10529  10531     1
  10529  10562     1
  10530  10545     1
  10531  10552     1
  10532  10537     1
  10532  10535     1
  10532  10536     1
  10533  10537     1
  10533  10535     1
  10533  10536     1
  10534  10576     1
  10535  10538     1
  10535  10586     1
  10536  10538     1
  10536  10586     1
  10537  10569     1
  10538  10576     1
  10539  10546     1
  10539  10561     1
  10539  10556     1
  10539  10547     1
  10540  10545     1
  10540  10551     1
  10540  10553     1
  10540  10554     1
  10541  10542     1
  10541  10560     1
  10541  10559     1
  10541  10555     1
  10541  10553     1
  10541  10554     1
  10541  10544     1
  10542  10547     1
  10542  10552     1
  10542  10561     1
  10543  10558     1
  10543  10551     1
  10543  10559     1
  10544  10552     1
  10544  10546     1
  10545  10548     1
  10545  10557     1
  10545  10547     1
  10545  10552     1
  10545  10549     1
  10545  10546     1
  10546  10562     1
  10546  10551     1
  10546  10560     1
  10546  10559     1
  10547  10558     1
  10547  10562     1
  10549  10559     1
  10550  10559     1
  10553  10556     1
  10553  10557     1
  10554  10556     1
  10554  10557     1
  10557  10558     1
  10557  10559     1
  10559  10561     1
  10563  10570     1
  10563  10585     1
  10563  10580     1
  10563  10571     1
  10564  10569     1
  10564  10575     1
  10564  10577     1
  10564  10578     1
  10565  10566     1
  10565  10584     1
  10565  10583     1
  10565  10579     1
  10565  10577     1
  10565  10578     1
  10565  10568     1
  10566  10571     1
  10566  10576     1
  10566  10585     1
  10567  10582     1
  10567  10575     1
  10567  10583     1
  10568  10576     1
  10568  10570     1
  10569  10572     1
  10569  10581     1
  10569  10571     1
  10569  10576     1
  10569  10573     1
  10569  10570     1
  10570  10586     1
  10570  10575     1
  10570  10584     1
  10570  10583     1
  10571  10582     1
  10571  10586     1
  10573  10583     1
  10574  10583     1
  10577  10580     1
  10577  10581     1
  10578  10580     1
  10578  10581     1
  10581  10582     1
  10581  10583     1
  10583  10585     1
  10587  10593     1
  10587  10594     1
  10588  10591     1
  10588  10590     1
  10588  10592     1
  10590  10595     1
  10590  10593     1
  10590  10594     1
  10591  10605     1
  10591  10606     1
  10591  10598     1
  10591  10600     1
  10592  10595     1
  10592  10593     1
  10592  10594     1
  10593  10596     1
  10593  10597     1
  10594  10596     1
  10594  10597     1
  10595  10608     1
  10595  10609     1
  10595  10601     1
  10595  10602     1
  10596  10598     1
  10596  10600     1
  10597  10605     1
  10597  10606     1
  10598  10603     1
  10598  10601     1
  10598  10602     1
  10599  10625     1
  10600  10603     1
  10600  10601     1
  10600  10602     1
  10601  10604     1
  10601  10635     1
  10602  10604     1
  10602  10635     1
  10603  10618     1
  10604  10625     1
  10605  10610     1
  10605  10608     1
  10605  10609     1
  10606  10610     1
  10606  10608     1
  10606  10609     1
  10607  10649     1
  10608  10611     1
  10608  10659     1
  10609  10611     1
  10609  10659     1
  10610  10642     1
  10611  10649     1
  10612  10619     1
  10612  10634     1
  10612  10629     1
  10612  10620     1
  10613  10626     1
  10613  10627     1
  10613  10618     1
  10613  10624     1
  10614  10615     1
  10614  10633     1
  10614  10632     1
  10614  10628     1
  10614  10626     1
  10614  10627     1
  10614  10617     1
  10615  10634     1
  10615  10620     1
  10615  10625     1
  10616  10632     1
  10616  10624     1
  10616  10631     1
  10617  10619     1
  10617  10625     1
  10618  10622     1
  10618  10619     1
  10618  10621     1
  10618  10630     1
  10618  10620     1
  10618  10625     1
  10619  10633     1
  10619  10632     1
  10619  10635     1
  10619  10624     1
  10620  10635     1
  10620  10631     1
  10622  10632     1
  10623  10632     1
  10626  10630     1
  10626  10629     1
  10627  10630     1
  10627  10629     1
  10630  10632     1
  10630  10631     1
  10632  10634     1
  10636  10643     1
  10636  10658     1
  10636  10653     1
  10636  10644     1
  10637  10650     1
  10637  10651     1
  10637  10642     1
  10637  10648     1
  10638  10639     1
  10638  10657     1
  10638  10656     1
  10638  10652     1
  10638  10650     1
  10638  10651     1
  10638  10641     1
  10639  10658     1
  10639  10644     1
  10639  10649     1
  10640  10656     1
  10640  10648     1
  10640  10655     1
  10641  10643     1
  10641  10649     1
  10642  10646     1
  10642  10643     1
  10642  10645     1
  10642  10654     1
  10642  10644     1
  10642  10649     1
  10643  10657     1
  10643  10656     1
  10643  10659     1
  10643  10648     1
  10644  10659     1
  10644  10655     1
  10646  10656     1
  10647  10656     1
  10650  10654     1
  10650  10653     1
  10651  10654     1
  10651  10653     1
  10654  10656     1
  10654  10655     1
  10656  10658     1
  10660  10666     1
  10660  10667     1
  10661  10664     1
  10661  10663     1
  10661  10665     1
  10663  10668     1
  10663  10666     1
  10663  10667     1
  10664  10678     1
  10664  10679     1
  10664  10671     1
  10664  10673     1
  10665  10668     1
  10665  10666     1
  10665  10667     1
  10666  10669     1
  10666  10670     1
  10667  10669     1
  10667  10670     1
  10668  10681     1
  10668  10682     1
  10668  10674     1
  10668  10675     1
  10669  10671     1
  10669  10673     1
  10670  10678     1
  10670  10679     1
  10671  10676     1
  10671  10674     1
  10671  10675     1
  10672  10698     1
  10673  10676     1
  10673  10674     1
  10673  10675     1
  10674  10677     1
  10674  10708     1
  10675  10677     1
  10675  10708     1
  10676  10691     1
  10677  10698     1
  10678  10683     1
  10678  10681     1
  10678  10682     1
  10679  10683     1
  10679  10681     1
  10679  10682     1
  10680  10722     1
  10681  10684     1
  10681  10732     1
  10682  10684     1
  10682  10732     1
  10683  10715     1
  10684  10722     1
  10685  10692     1
  10685  10707     1
  10685  10702     1
  10685  10693     1
  10686  10691     1
  10686  10697     1
  10686  10699     1
  10686  10700     1
  10687  10688     1
  10687  10706     1
  10687  10705     1
  10687  10701     1
  10687  10699     1
  10687  10700     1
  10687  10690     1
  10688  10693     1
  10688  10698     1
  10688  10707     1
  10689  10704     1
  10689  10697     1
  10689  10705     1
  10690  10698     1
  10690  10692     1
  10691  10694     1
  10691  10703     1
  10691  10693     1
  10691  10698     1
  10691  10695     1
  10691  10692     1
  10692  10708     1
  10692  10697     1
  10692  10706     1
  10692  10705     1
  10693  10704     1
  10693  10708     1
  10695  10705     1
  10696  10705     1
  10699  10702     1
  10699  10703     1
  10700  10702     1
  10700  10703     1
  10703  10704     1
  10703  10705     1
  10705  10707     1
  10709  10716     1
  10709  10731     1
  10709  10726     1
  10709  10717     1
  10710  10715     1
  10710  10721     1
  10710  10723     1
  10710  10724     1
  10711  10712     1
  10711  10730     1
  10711  10729     1
  10711  10725     1
  10711  10723     1
  10711  10724     1
  10711  10714     1
  10712  10717     1
  10712  10722     1
  10712  10731     1
  10713  10728     1
  10713  10721     1
  10713  10729     1
  10714  10722     1
  10714  10716     1
  10715  10718     1
  10715  10727     1
  10715  10717     1
  10715  10722     1
  10715  10719     1
  10715  10716     1
  10716  10732     1
  10716  10721     1
  10716  10730     1
  10716  10729     1
  10717  10728     1
  10717  10732     1
  10719  10729     1
  10720  10729     1
  10723  10726     1
  10723  10727     1
  10724  10726     1
  10724  10727     1
  10727  10728     1
  10727  10729     1
  10729  10731     1
  10733  10739     1
  10733  10740     1
  10734  10737     1
  10734  10736     1
  10734  10738     1
  10736  10741     1
  10736  10739     1
  10736  10740     1
  10737  10751     1
  10737  10752     1
  10737  10744     1
  10737  10746     1
  10738  10741     1
  10738  10739     1
  10738  10740     1
  10739  10742     1
  10739  10743     1
  10740  10742     1
  10740  10743     1
  10741  10754     1
  10741  10755     1
  10741  10747     1
  10741  10748     1
  10742  10744     1
  10742  10746     1
  10743  10751     1
  10743  10752     1
  10744  10749     1
  10744  10747     1
  10744  10748     1
  10745  10771     1
  10746  10749     1
  10746  10747     1
  10746  10748     1
  10747  10750     1
  10747  10781     1
  10748  10750     1
  10748  10781     1
  10749  10764     1
  10750  10771     1
  10751  10756     1
  10751  10754     1
  10751  10755     1
  10752  10756     1
  10752  10754     1
  10752  10755     1
  10753  10795     1
  10754  10757     1
  10754  10805     1
  10755  10757     1
  10755  10805     1
  10756  10788     1
  10757  10795     1
  10758  10765     1
  10758  10780     1
  10758  10775     1
  10758  10766     1
  10759  10772     1
  10759  10773     1
  10759  10764     1
  10759  10770     1
  10760  10761     1
  10760  10779     1
  10760  10778     1
  10760  10774     1
  10760  10772     1
  10760  10773     1
  10760  10763     1
  10761  10780     1
  10761  10766     1
  10761  10771     1
  10762  10778     1
  10762  10770     1
  10762  10777     1
  10763  10765     1
  10763  10771     1
  10764  10768     1
  10764  10765     1
  10764  10767     1
  10764  10776     1
  10764  10766     1
  10764  10771     1
  10765  10779     1
  10765  10778     1
  10765  10781     1
  10765  10770     1
  10766  10781     1
  10766  10777     1
  10768  10778     1
  10769  10778     1
  10772  10776     1
  10772  10775     1
  10773  10776     1
  10773  10775     1
  10776  10778     1
  10776  10777     1
  10778  10780     1
  10782  10789     1
  10782  10804     1
  10782  10799     1
  10782  10790     1
  10783  10796     1
  10783  10797     1
  10783  10788     1
  10783  10794     1
  10784  10785     1
  10784  10803     1
  10784  10802     1
  10784  10798     1
  10784  10796     1
  10784  10797     1
  10784  10787     1
  10785  10804     1
  10785  10790     1
  10785  10795     1
  10786  10802     1
  10786  10794     1
  10786  10801     1
  10787  10789     1
  10787  10795     1
  10788  10792     1
  10788  10789     1
  10788  10791     1
  10788  10800     1
  10788  10790     1
  10788  10795     1
  10789  10803     1
  10789  10802     1
  10789  10805     1
  10789  10794     1
  10790  10805     1
  10790  10801     1
  10792  10802     1
  10793  10802     1
  10796  10800     1
  10796  10799     1
  10797  10800     1
  10797  10799     1
  10800  10802     1
  10800  10801     1
  10802  10804     1
  10806  10812     1
  10806  10813     1
  10807  10810     1
  10807  10809     1
  10807  10811     1
  10809  10814     1
  10809  10812     1
  10809  10813     1
  10810  10824     1
  10810  10825     1
  10810  10817     1
  10810  10819     1
  10811  10814     1
  10811  10812     1
  10811  10813     1
  10812  10815     1
  10812  10816     1
  10813  10815     1
  10813  10816     1
  10814  10827     1
  10814  10828     1
  10814  10820     1
  10814  10821     1
  10815  10817     1
  10815  10819     1
  10816  10824     1
  10816  10825     1
  10817  10822     1
  10817  10820     1
  10817  10821     1
  10818  10844     1
  10819  10822     1
  10819  10820     1
  10819  10821     1
  10820  10823     1
  10820  10854     1
  10821  10823     1
  10821  10854     1
  10822  10837     1
  10823  10844     1
  10824  10829     1
  10824  10827     1
  10824  10828     1
  10825  10829     1
  10825  10827     1
  10825  10828     1
  10826  10868     1
  10827  10830     1
  10827  10878     1
  10828  10830     1
  10828  10878     1
  10829  10861     1
  10830  10868     1
  10831  10838     1
  10831  10853     1
  10831  10848     1
  10831  10839     1
  10832  10837     1
  10832  10843     1
  10832  10845     1
  10832  10846     1
  10833  10834     1
  10833  10852     1
  10833  10851     1
  10833  10847     1
  10833  10845     1
  10833  10846     1
  10833  10836     1
  10834  10839     1
  10834  10844     1
  10834  10853     1
  10835  10850     1
  10835  10843     1
  10835  10851     1
  10836  10844     1
  10836  10838     1
  10837  10840     1
  10837  10849     1
  10837  10839     1
  10837  10844     1
  10837  10841     1
  10837  10838     1
  10838  10854     1
  10838  10843     1
  10838  10852     1
  10838  10851     1
  10839  10850     1
  10839  10854     1
  10841  10851     1
  10842  10851     1
  10845  10848     1
  10845  10849     1
  10846  10848     1
  10846  10849     1
  10849  10850     1
  10849  10851     1
  10851  10853     1
  10855  10862     1
  10855  10877     1
  10855  10872     1
  10855  10863     1
  10856  10861     1
  10856  10867     1
  10856  10869     1
  10856  10870     1
  10857  10858     1
  10857  10876     1
  10857  10875     1
  10857  10871     1
  10857  10869     1
  10857  10870     1
  10857  10860     1
  10858  10863     1
  10858  10868     1
  10858  10877     1
  10859  10874     1
  10859  10867     1
  10859  10875     1
  10860  10868     1
  10860  10862     1
  10861  10864     1
  10861  10873     1
  10861  10863     1
  10861  10868     1
  10861  10865     1
  10861  10862     1
  10862  10878     1
  10862  10867     1
  10862  10876     1
  10862  10875     1
  10863  10874     1
  10863  10878     1
  10865  10875     1
  10866  10875     1
  10869  10872     1
  10869  10873     1
  10870  10872     1
  10870  10873     1
  10873  10874     1
  10873  10875     1
  10875  10877     1
  10879  10885     1
  10879  10886     1
  10880  10883     1
  10880  10882     1
  10880  10884     1
  10882  10887     1
  10882  10885     1
  10882  10886     1
  10883  10897     1
  10883  10898     1
  10883  10890     1
  10883  10892     1
  10884  10887     1
  10884  10885     1
  10884  10886     1
  10885  10888     1
  10885  10889     1
  10886  10888     1
  10886  10889     1
  10887  10900     1
  10887  10901     1
  10887  10893     1
  10887  10894     1
  10888  10890     1
  10888  10892     1
  10889  10897     1
  10889  10898     1
  10890  10895     1
  10890  10893     1
  10890  10894     1
  10891  10917     1
  10892  10895     1
  10892  10893     1
  10892  10894     1
  10893  10896     1
  10893  10927     1
  10894  10896     1
  10894  10927     1
  10895  10910     1
  10896  10917     1
  10897  10902     1
  10897  10900     1
  10897  10901     1
  10898  10902     1
  10898  10900     1
  10898  10901     1
  10899  10941     1
  10900  10903     1
  10900  10951     1
  10901  10903     1
  10901  10951     1
  10902  10934     1
  10903  10941     1
  10904  10911     1
  10904  10926     1
  10904  10921     1
  10904  10912     1
  10905  10918     1
  10905  10919     1
  10905  10910     1
  10905  10916     1
  10906  10907     1
  10906  10925     1
  10906  10924     1
  10906  10920     1
  10906  10918     1
  10906  10919     1
  10906  10909     1
  10907  10926     1
  10907  10912     1
  10907  10917     1
  10908  10924     1
  10908  10916     1
  10908  10923     1
  10909  10911     1
  10909  10917     1
  10910  10914     1
  10910  10911     1
  10910  10913     1
  10910  10922     1
  10910  10912     1
  10910  10917     1
  10911  10925     1
  10911  10924     1
  10911  10927     1
  10911  10916     1
  10912  10927     1
  10912  10923     1
  10914  10924     1
  10915  10924     1
  10918  10922     1
  10918  10921     1
  10919  10922     1
  10919  10921     1
  10922  10924     1
  10922  10923     1
  10924  10926     1
  10928  10935     1
  10928  10950     1
  10928  10945     1
  10928  10936     1
  10929  10942     1
  10929  10943     1
  10929  10934     1
  10929  10940     1
  10930  10931     1
  10930  10949     1
  10930  10948     1
  10930  10944     1
  10930  10942     1
  10930  10943     1
  10930  10933     1
  10931  10950     1
  10931  10936     1
  10931  10941     1
  10932  10948     1
  10932  10940     1
  10932  10947     1
  10933  10935     1
  10933  10941     1
  10934  10938     1
  10934  10935     1
  10934  10937     1
  10934  10946     1
  10934  10936     1
  10934  10941     1
  10935  10949     1
  10935  10948     1
  10935  10951     1
  10935  10940     1
  10936  10951     1
  10936  10947     1
  10938  10948     1
  10939  10948     1
  10942  10946     1
  10942  10945     1
  10943  10946     1
  10943  10945     1
  10946  10948     1
  10946  10947     1
  10948  10950     1
  10952  10958     1
  10952  10959     1
  10953  10956     1
  10953  10955     1
  10953  10957     1
  10955  10960     1
  10955  10958     1
  10955  10959     1
  10956  10970     1
  10956  10971     1
  10956  10963     1
  10956  10965     1
  10957  10960     1
  10957  10958     1
  10957  10959     1
  10958  10961     1
  10958  10962     1
  10959  10961     1
  10959  10962     1
  10960  10973     1
  10960  10974     1
  10960  10966     1
  10960  10967     1
  10961  10963     1
  10961  10965     1
  10962  10970     1
  10962  10971     1
  10963  10968     1
  10963  10966     1
  10963  10967     1
  10964  10990     1
  10965  10968     1
  10965  10966     1
  10965  10967     1
  10966  10969     1
  10966  11000     1
  10967  10969     1
  10967  11000     1
  10968  10983     1
  10969  10990     1
  10970  10975     1
  10970  10973     1
  10970  10974     1
  10971  10975     1
  10971  10973     1
  10971  10974     1
  10972  11014     1
  10973  10976     1
  10973  11024     1
  10974  10976     1
  10974  11024     1
  10975  11007     1
  10976  11014     1
  10977  10984     1
  10977  10999     1
  10977  10994     1
  10977  10985     1
  10978  10983     1
  10978  10989     1
  10978  10991     1
  10978  10992     1
  10979  10980     1
  10979  10998     1
  10979  10997     1
  10979  10993     1
  10979  10991     1
  10979  10992     1
  10979  10982     1
  10980  10985     1
  10980  10990     1
  10980  10999     1
  10981  10996     1
  10981  10989     1
  10981  10997     1
  10982  10990     1
  10982  10984     1
  10983  10986     1
  10983  10995     1
  10983  10985     1
  10983  10990     1
  10983  10987     1
  10983  10984     1
  10984  11000     1
  10984  10989     1
  10984  10998     1
  10984  10997     1
  10985  10996     1
  10985  11000     1
  10987  10997     1
  10988  10997     1
  10991  10994     1
  10991  10995     1
  10992  10994     1
  10992  10995     1
  10995  10996     1
  10995  10997     1
  10997  10999     1
  11001  11008     1
  11001  11023     1
  11001  11018     1
  11001  11009     1
  11002  11007     1
  11002  11013     1
  11002  11015     1
  11002  11016     1
  11003  11004     1
  11003  11022     1
  11003  11021     1
  11003  11017     1
  11003  11015     1
  11003  11016     1
  11003  11006     1
  11004  11009     1
  11004  11014     1
  11004  11023     1
  11005  11020     1
  11005  11013     1
  11005  11021     1
  11006  11014     1
  11006  11008     1
  11007  11010     1
  11007  11019     1
  11007  11009     1
  11007  11014     1
  11007  11011     1
  11007  11008     1
  11008  11024     1
  11008  11013     1
  11008  11022     1
  11008  11021     1
  11009  11020     1
  11009  11024     1
  11011  11021     1
  11012  11021     1
  11015  11018     1
  11015  11019     1
  11016  11018     1
  11016  11019     1
  11019  11020     1
  11019  11021     1
  11021  11023     1
  11025  11031     1
  11025  11032     1
  11026  11029     1
  11026  11028     1
  11026  11030     1
  11028  11033     1
  11028  11031     1
  11028  11032     1
  11029  11043     1
  11029  11044     1
  11029  11036     1
  11029  11038     1
  11030  11033     1
  11030  11031     1
  11030  11032     1
  11031  11034     1
  11031  11035     1
  11032  11034     1
  11032  11035     1
  11033  11046     1
  11033  11047     1
  11033  11039     1
  11033  11040     1
  11034  11036     1
  11034  11038     1
  11035  11043     1
  11035  11044     1
  11036  11041     1
  11036  11039     1
  11036  11040     1
  11037  11063     1
  11038  11041     1
  11038  11039     1
  11038  11040     1
  11039  11042     1
  11039  11073     1
  11040  11042     1
  11040  11073     1
  11041  11056     1
  11042  11063     1
  11043  11048     1
  11043  11046     1
  11043  11047     1
  11044  11048     1
  11044  11046     1
  11044  11047     1
  11045  11087     1
  11046  11049     1
  11046  11097     1
  11047  11049     1
  11047  11097     1
  11048  11080     1
  11049  11087     1
  11050  11057     1
  11050  11072     1
  11050  11067     1
  11050  11058     1
  11051  11064     1
  11051  11065     1
  11051  11056     1
  11051  11062     1
  11052  11053     1
  11052  11071     1
  11052  11070     1
  11052  11066     1
  11052  11064     1
  11052  11065     1
  11052  11055     1
  11053  11072     1
  11053  11058     1
  11053  11063     1
  11054  11070     1
  11054  11062     1
  11054  11069     1
  11055  11057     1
  11055  11063     1
  11056  11060     1
  11056  11057     1
  11056  11059     1
  11056  11068     1
  11056  11058     1
  11056  11063     1
  11057  11071     1
  11057  11070     1
  11057  11073     1
  11057  11062     1
  11058  11073     1
  11058  11069     1
  11060  11070     1
  11061  11070     1
  11064  11068     1
  11064  11067     1
  11065  11068     1
  11065  11067     1
  11068  11070     1
  11068  11069     1
  11070  11072     1
  11074  11081     1
  11074  11096     1
  11074  11091     1
  11074  11082     1
  11075  11088     1
  11075  11089     1
  11075  11080     1
  11075  11086     1
  11076  11077     1
  11076  11095     1
  11076  11094     1
  11076  11090     1
  11076  11088     1
  11076  11089     1
  11076  11079     1
  11077  11096     1
  11077  11082     1
  11077  11087     1
  11078  11094     1
  11078  11086     1
  11078  11093     1
  11079  11081     1
  11079  11087     1
  11080  11084     1
  11080  11081     1
  11080  11083     1
  11080  11092     1
  11080  11082     1
  11080  11087     1
  11081  11095     1
  11081  11094     1
  11081  11097     1
  11081  11086     1
  11082  11097     1
  11082  11093     1
  11084  11094     1
  11085  11094     1
  11088  11092     1
  11088  11091     1
  11089  11092     1
  11089  11091     1
  11092  11094     1
  11092  11093     1
  11094  11096     1
  11098  11104     1
  11098  11105     1
  11099  11102     1
  11099  11101     1
  11099  11103     1
  11101  11106     1
  11101  11104     1
  11101  11105     1
  11102  11116     1
  11102  11117     1
  11102  11109     1
  11102  11111     1
  11103  11106     1
  11103  11104     1
  11103  11105     1
  11104  11107     1
  11104  11108     1
  11105  11107     1
  11105  11108     1
  11106  11119     1
  11106  11120     1
  11106  11112     1
  11106  11113     1
  11107  11109     1
  11107  11111     1
  11108  11116     1
  11108  11117     1
  11109  11114     1
  11109  11112     1
  11109  11113     1
  11110  11136     1
  11111  11114     1
  11111  11112     1
  11111  11113     1
  11112  11115     1
  11112  11146     1
  11113  11115     1
  11113  11146     1
  11114  11129     1
  11115  11136     1
  11116  11121     1
  11116  11119     1
  11116  11120     1
  11117  11121     1
  11117  11119     1
  11117  11120     1
  11118  11160     1
  11119  11122     1
  11119  11170     1
  11120  11122     1
  11120  11170     1
  11121  11153     1
  11122  11160     1
  11123  11130     1
  11123  11145     1
  11123  11140     1
  11123  11131     1
  11124  11129     1
  11124  11135     1
  11124  11137     1
  11124  11138     1
  11125  11126     1
  11125  11144     1
  11125  11143     1
  11125  11139     1
  11125  11137     1
  11125  11138     1
  11125  11128     1
  11126  11131     1
  11126  11136     1
  11126  11145     1
  11127  11142     1
  11127  11135     1
  11127  11143     1
  11128  11136     1
  11128  11130     1
  11129  11132     1
  11129  11141     1
  11129  11131     1
  11129  11136     1
  11129  11133     1
  11129  11130     1
  11130  11146     1
  11130  11135     1
  11130  11144     1
  11130  11143     1
  11131  11142     1
  11131  11146     1
  11133  11143     1
  11134  11143     1
  11137  11140     1
  11137  11141     1
  11138  11140     1
  11138  11141     1
  11141  11142     1
  11141  11143     1
  11143  11145     1
  11147  11154     1
  11147  11169     1
  11147  11164     1
  11147  11155     1
  11148  11153     1
  11148  11159     1
  11148  11161     1
  11148  11162     1
  11149  11150     1
  11149  11168     1
  11149  11167     1
  11149  11163     1
  11149  11161     1
  11149  11162     1
  11149  11152     1
  11150  11155     1
  11150  11160     1
  11150  11169     1
  11151  11166     1
  11151  11159     1
  11151  11167     1
  11152  11160     1
  11152  11154     1
  11153  11156     1
  11153  11165     1
  11153  11155     1
  11153  11160     1
  11153  11157     1
  11153  11154     1
  11154  11170     1
  11154  11159     1
  11154  11168     1
  11154  11167     1
  11155  11166     1
  11155  11170     1
  11157  11167     1
  11158  11167     1
  11161  11164     1
  11161  11165     1
  11162  11164     1
  11162  11165     1
  11165  11166     1
  11165  11167     1
  11167  11169     1
  11171  11177     1
  11171  11178     1
  11172  11175     1
  11172  11174     1
  11172  11176     1
  11174  11179     1
  11174  11177     1
  11174  11178     1
  11175  11189     1
  11175  11190     1
  11175  11182     1
  11175  11184     1
  11176  11179     1
  11176  11177     1
  11176  11178     1
  11177  11180     1
  11177  11181     1
  11178  11180     1
  11178  11181     1
  11179  11192     1
  11179  11193     1
  11179  11185     1
  11179  11186     1
  11180  11182     1
  11180  11184     1
  11181  11189     1
  11181  11190     1
  11182  11187     1
  11182  11185     1
  11182  11186     1
  11183  11209     1
  11184  11187     1
  11184  11185     1
  11184  11186     1
  11185  11188     1
  11185  11219     1
  11186  11188     1
  11186  11219     1
  11187  11202     1
  11188  11209     1
  11189  11194     1
  11189  11192     1
  11189  11193     1
  11190  11194     1
  11190  11192     1
  11190  11193     1
  11191  11233     1
  11192  11195     1
  11192  11243     1
  11193  11195     1
  11193  11243     1
  11194  11226     1
  11195  11233     1
  11196  11203     1
  11196  11218     1
  11196  11213     1
  11196  11204     1
  11197  11210     1
  11197  11211     1
  11197  11202     1
  11197  11208     1
  11198  11199     1
  11198  11217     1
  11198  11216     1
  11198  11212     1
  11198  11210     1
  11198  11211     1
  11198  11201     1
  11199  11218     1
  11199  11204     1
  11199  11209     1
  11200  11216     1
  11200  11208     1
  11200  11215     1
  11201  11203     1
  11201  11209     1
  11202  11206     1
  11202  11203     1
  11202  11205     1
  11202  11214     1
  11202  11204     1
  11202  11209     1
  11203  11217     1
  11203  11216     1
  11203  11219     1
  11203  11208     1
  11204  11219     1
  11204  11215     1
  11206  11216     1
  11207  11216     1
  11210  11214     1
  11210  11213     1
  11211  11214     1
  11211  11213     1
  11214  11216     1
  11214  11215     1
  11216  11218     1
  11220  11227     1
  11220  11242     1
  11220  11237     1
  11220  11228     1
  11221  11234     1
  11221  11235     1
  11221  11226     1
  11221  11232     1
  11222  11223     1
  11222  11241     1
  11222  11240     1
  11222  11236     1
  11222  11234     1
  11222  11235     1
  11222  11225     1
  11223  11242     1
  11223  11228     1
  11223  11233     1
  11224  11240     1
  11224  11232     1
  11224  11239     1
  11225  11227     1
  11225  11233     1
  11226  11230     1
  11226  11227     1
  11226  11229     1
  11226  11238     1
  11226  11228     1
  11226  11233     1
  11227  11241     1
  11227  11240     1
  11227  11243     1
  11227  11232     1
  11228  11243     1
  11228  11239     1
  11230  11240     1
  11231  11240     1
  11234  11238     1
  11234  11237     1
  11235  11238     1
  11235  11237     1
  11238  11240     1
  11238  11239     1
  11240  11242     1
  11244  11250     1
  11244  11251     1
  11245  11248     1
  11245  11247     1
  11245  11249     1
  11247  11252     1
  11247  11250     1
  11247  11251     1
  11248  11262     1
  11248  11263     1
  11248  11255     1
  11248  11257     1
  11249  11252     1
  11249  11250     1
  11249  11251     1
  11250  11253     1
  11250  11254     1
  11251  11253     1
  11251  11254     1
  11252  11265     1
  11252  11266     1
  11252  11258     1
  11252  11259     1
  11253  11255     1
  11253  11257     1
  11254  11262     1
  11254  11263     1
  11255  11260     1
  11255  11258     1
  11255  11259     1
  11256  11282     1
  11257  11260     1
  11257  11258     1
  11257  11259     1
  11258  11261     1
  11258  11292     1
  11259  11261     1
  11259  11292     1
  11260  11275     1
  11261  11282     1
  11262  11267     1
  11262  11265     1
  11262  11266     1
  11263  11267     1
  11263  11265     1
  11263  11266     1
  11264  11306     1
  11265  11268     1
  11265  11316     1
  11266  11268     1
  11266  11316     1
  11267  11299     1
  11268  11306     1
  11269  11276     1
  11269  11291     1
  11269  11286     1
  11269  11277     1
  11270  11275     1
  11270  11281     1
  11270  11283     1
  11270  11284     1
  11271  11272     1
  11271  11290     1
  11271  11289     1
  11271  11285     1
  11271  11283     1
  11271  11284     1
  11271  11274     1
  11272  11277     1
  11272  11282     1
  11272  11291     1
  11273  11288     1
  11273  11281     1
  11273  11289     1
  11274  11282     1
  11274  11276     1
  11275  11278     1
  11275  11287     1
  11275  11277     1
  11275  11282     1
  11275  11279     1
  11275  11276     1
  11276  11292     1
  11276  11281     1
  11276  11290     1
  11276  11289     1
  11277  11288     1
  11277  11292     1
  11279  11289     1
  11280  11289     1
  11283  11286     1
  11283  11287     1
  11284  11286     1
  11284  11287     1
  11287  11288     1
  11287  11289     1
  11289  11291     1
  11293  11300     1
  11293  11315     1
  11293  11310     1
  11293  11301     1
  11294  11299     1
  11294  11305     1
  11294  11307     1
  11294  11308     1
  11295  11296     1
  11295  11314     1
  11295  11313     1
  11295  11309     1
  11295  11307     1
  11295  11308     1
  11295  11298     1
  11296  11301     1
  11296  11306     1
  11296  11315     1
  11297  11312     1
  11297  11305     1
  11297  11313     1
  11298  11306     1
  11298  11300     1
  11299  11302     1
  11299  11311     1
  11299  11301     1
  11299  11306     1
  11299  11303     1
  11299  11300     1
  11300  11316     1
  11300  11305     1
  11300  11314     1
  11300  11313     1
  11301  11312     1
  11301  11316     1
  11303  11313     1
  11304  11313     1
  11307  11310     1
  11307  11311     1
  11308  11310     1
  11308  11311     1
  11311  11312     1
  11311  11313     1
  11313  11315     1
  11317  11323     1
  11317  11324     1
  11318  11321     1
  11318  11320     1
  11318  11322     1
  11320  11325     1
  11320  11323     1
  11320  11324     1
  11321  11335     1
  11321  11336     1
  11321  11328     1
  11321  11330     1
  11322  11325     1
  11322  11323     1
  11322  11324     1
  11323  11326     1
  11323  11327     1
  11324  11326     1
  11324  11327     1
  11325  11338     1
  11325  11339     1
  11325  11331     1
  11325  11332     1
  11326  11328     1
  11326  11330     1
  11327  11335     1
  11327  11336     1
  11328  11333     1
  11328  11331     1
  11328  11332     1
  11329  11355     1
  11330  11333     1
  11330  11331     1
  11330  11332     1
  11331  11334     1
  11331  11365     1
  11332  11334     1
  11332  11365     1
  11333  11348     1
  11334  11355     1
  11335  11340     1
  11335  11338     1
  11335  11339     1
  11336  11340     1
  11336  11338     1
  11336  11339     1
  11337  11379     1
  11338  11341     1
  11338  11389     1
  11339  11341     1
  11339  11389     1
  11340  11372     1
  11341  11379     1
  11342  11349     1
  11342  11364     1
  11342  11359     1
  11342  11350     1
  11343  11356     1
  11343  11357     1
  11343  11348     1
  11343  11354     1
  11344  11345     1
  11344  11363     1
  11344  11362     1
  11344  11358     1
  11344  11356     1
  11344  11357     1
  11344  11347     1
  11345  11364     1
  11345  11350     1
  11345  11355     1
  11346  11362     1
  11346  11354     1
  11346  11361     1
  11347  11349     1
  11347  11355     1
  11348  11352     1
  11348  11349     1
  11348  11351     1
  11348  11360     1
  11348  11350     1
  11348  11355     1
  11349  11363     1
  11349  11362     1
  11349  11365     1
  11349  11354     1
  11350  11365     1
  11350  11361     1
  11352  11362     1
  11353  11362     1
  11356  11360     1
  11356  11359     1
  11357  11360     1
  11357  11359     1
  11360  11362     1
  11360  11361     1
  11362  11364     1
  11366  11373     1
  11366  11388     1
  11366  11383     1
  11366  11374     1
  11367  11380     1
  11367  11381     1
  11367  11372     1
  11367  11378     1
  11368  11369     1
  11368  11387     1
  11368  11386     1
  11368  11382     1
  11368  11380     1
  11368  11381     1
  11368  11371     1
  11369  11388     1
  11369  11374     1
  11369  11379     1
  11370  11386     1
  11370  11378     1
  11370  11385     1
  11371  11373     1
  11371  11379     1
  11372  11376     1
  11372  11373     1
  11372  11375     1
  11372  11384     1
  11372  11374     1
  11372  11379     1
  11373  11387     1
  11373  11386     1
  11373  11389     1
  11373  11378     1
  11374  11389     1
  11374  11385     1
  11376  11386     1
  11377  11386     1
  11380  11384     1
  11380  11383     1
  11381  11384     1
  11381  11383     1
  11384  11386     1
  11384  11385     1
  11386  11388     1
  11390  11396     1
  11390  11397     1
  11391  11394     1
  11391  11393     1
  11391  11395     1
  11393  11398     1
  11393  11396     1
  11393  11397     1
  11394  11408     1
  11394  11409     1
  11394  11401     1
  11394  11403     1
  11395  11398     1
  11395  11396     1
  11395  11397     1
  11396  11399     1
  11396  11400     1
  11397  11399     1
  11397  11400     1
  11398  11411     1
  11398  11412     1
  11398  11404     1
  11398  11405     1
  11399  11401     1
  11399  11403     1
  11400  11408     1
  11400  11409     1
  11401  11406     1
  11401  11404     1
  11401  11405     1
  11402  11428     1
  11403  11406     1
  11403  11404     1
  11403  11405     1
  11404  11407     1
  11404  11438     1
  11405  11407     1
  11405  11438     1
  11406  11421     1
  11407  11428     1
  11408  11413     1
  11408  11411     1
  11408  11412     1
  11409  11413     1
  11409  11411     1
  11409  11412     1
  11410  11452     1
  11411  11414     1
  11411  11462     1
  11412  11414     1
  11412  11462     1
  11413  11445     1
  11414  11452     1
  11415  11422     1
  11415  11437     1
  11415  11432     1
  11415  11423     1
  11416  11421     1
  11416  11427     1
  11416  11429     1
  11416  11430     1
  11417  11418     1
  11417  11436     1
  11417  11435     1
  11417  11431     1
  11417  11429     1
  11417  11430     1
  11417  11420     1
  11418  11423     1
  11418  11428     1
  11418  11437     1
  11419  11434     1
  11419  11427     1
  11419  11435     1
  11420  11428     1
  11420  11422     1
  11421  11424     1
  11421  11433     1
  11421  11423     1
  11421  11428     1
  11421  11425     1
  11421  11422     1
  11422  11438     1
  11422  11427     1
  11422  11436     1
  11422  11435     1
  11423  11434     1
  11423  11438     1
  11425  11435     1
  11426  11435     1
  11429  11432     1
  11429  11433     1
  11430  11432     1
  11430  11433     1
  11433  11434     1
  11433  11435     1
  11435  11437     1
  11439  11446     1
  11439  11461     1
  11439  11456     1
  11439  11447     1
  11440  11445     1
  11440  11451     1
  11440  11453     1
  11440  11454     1
  11441  11442     1
  11441  11460     1
  11441  11459     1
  11441  11455     1
  11441  11453     1
  11441  11454     1
  11441  11444     1
  11442  11447     1
  11442  11452     1
  11442  11461     1
  11443  11458     1
  11443  11451     1
  11443  11459     1
  11444  11452     1
  11444  11446     1
  11445  11448     1
  11445  11457     1
  11445  11447     1
  11445  11452     1
  11445  11449     1
  11445  11446     1
  11446  11462     1
  11446  11451     1
  11446  11460     1
  11446  11459     1
  11447  11458     1
  11447  11462     1
  11449  11459     1
  11450  11459     1
  11453  11456     1
  11453  11457     1
  11454  11456     1
  11454  11457     1
  11457  11458     1
  11457  11459     1
  11459  11461     1
  11463  11469     1
  11463  11470     1
  11464  11467     1
  11464  11466     1
  11464  11468     1
  11466  11471     1
  11466  11469     1
  11466  11470     1
  11467  11481     1
  11467  11482     1
  11467  11474     1
  11467  11476     1
  11468  11471     1
  11468  11469     1
  11468  11470     1
  11469  11472     1
  11469  11473     1
  11470  11472     1
  11470  11473     1
  11471  11484     1
  11471  11485     1
  11471  11477     1
  11471  11478     1
  11472  11474     1
  11472  11476     1
  11473  11481     1
  11473  11482     1
  11474  11479     1
  11474  11477     1
  11474  11478     1
  11475  11501     1
  11476  11479     1
  11476  11477     1
  11476  11478     1
  11477  11480     1
  11477  11511     1
  11478  11480     1
  11478  11511     1
  11479  11494     1
  11480  11501     1
  11481  11486     1
  11481  11484     1
  11481  11485     1
  11482  11486     1
  11482  11484     1
  11482  11485     1
  11483  11525     1
  11484  11487     1
  11484  11535     1
  11485  11487     1
  11485  11535     1
  11486  11518     1
  11487  11525     1
  11488  11495     1
  11488  11510     1
  11488  11505     1
  11488  11496     1
  11489  11502     1
  11489  11503     1
  11489  11494     1
  11489  11500     1
  11490  11491     1
  11490  11509     1
  11490  11508     1
  11490  11504     1
  11490  11502     1
  11490  11503     1
  11490  11493     1
  11491  11510     1
  11491  11496     1
  11491  11501     1
  11492  11508     1
  11492  11500     1
  11492  11507     1
  11493  11495     1
  11493  11501     1
  11494  11498     1
  11494  11495     1
  11494  11497     1
  11494  11506     1
  11494  11496     1
  11494  11501     1
  11495  11509     1
  11495  11508     1
  11495  11511     1
  11495  11500     1
  11496  11511     1
  11496  11507     1
  11498  11508     1
  11499  11508     1
  11502  11506     1
  11502  11505     1
  11503  11506     1
  11503  11505     1
  11506  11508     1
  11506  11507     1
  11508  11510     1
  11512  11519     1
  11512  11534     1
  11512  11529     1
  11512  11520     1
  11513  11526     1
  11513  11527     1
  11513  11518     1
  11513  11524     1
  11514  11515     1
  11514  11533     1
  11514  11532     1
  11514  11528     1
  11514  11526     1
  11514  11527     1
  11514  11517     1
  11515  11534     1
  11515  11520     1
  11515  11525     1
  11516  11532     1
  11516  11524     1
  11516  11531     1
  11517  11519     1
  11517  11525     1
  11518  11522     1
  11518  11519     1
  11518  11521     1
  11518  11530     1
  11518  11520     1
  11518  11525     1
  11519  11533     1
  11519  11532     1
  11519  11535     1
  11519  11524     1
  11520  11535     1
  11520  11531     1
  11522  11532     1
  11523  11532     1
  11526  11530     1
  11526  11529     1
  11527  11530     1
  11527  11529     1
  11530  11532     1
  11530  11531     1
  11532  11534     1
  11536  11542     1
  11536  11543     1
  11537  11540     1
  11537  11539     1
  11537  11541     1
  11539  11544     1
  11539  11542     1
  11539  11543     1
  11540  11554     1
  11540  11555     1
  11540  11547     1
  11540  11549     1
  11541  11544     1
  11541  11542     1
  11541  11543     1
  11542  11545     1
  11542  11546     1
  11543  11545     1
  11543  11546     1
  11544  11557     1
  11544  11558     1
  11544  11550     1
  11544  11551     1
  11545  11547     1
  11545  11549     1
  11546  11554     1
  11546  11555     1
  11547  11552     1
  11547  11550     1
  11547  11551     1
  11548  11574     1
  11549  11552     1
  11549  11550     1
  11549  11551     1
  11550  11553     1
  11550  11584     1
  11551  11553     1
  11551  11584     1
  11552  11567     1
  11553  11574     1
  11554  11559     1
  11554  11557     1
  11554  11558     1
  11555  11559     1
  11555  11557     1
  11555  11558     1
  11556  11598     1
  11557  11560     1
  11557  11608     1
  11558  11560     1
  11558  11608     1
  11559  11591     1
  11560  11598     1
  11561  11568     1
  11561  11583     1
  11561  11578     1
  11561  11569     1
  11562  11567     1
  11562  11573     1
  11562  11575     1
  11562  11576     1
  11563  11564     1
  11563  11582     1
  11563  11581     1
  11563  11577     1
  11563  11575     1
  11563  11576     1
  11563  11566     1
  11564  11569     1
  11564  11574     1
  11564  11583     1
  11565  11580     1
  11565  11573     1
  11565  11581     1
  11566  11574     1
  11566  11568     1
  11567  11570     1
  11567  11579     1
  11567  11569     1
  11567  11574     1
  11567  11571     1
  11567  11568     1
  11568  11584     1
  11568  11573     1
  11568  11582     1
  11568  11581     1
  11569  11580     1
  11569  11584     1
  11571  11581     1
  11572  11581     1
  11575  11578     1
  11575  11579     1
  11576  11578     1
  11576  11579     1
  11579  11580     1
  11579  11581     1
  11581  11583     1
  11585  11592     1
  11585  11607     1
  11585  11602     1
  11585  11593     1
  11586  11591     1
  11586  11597     1
  11586  11599     1
  11586  11600     1
  11587  11588     1
  11587  11606     1
  11587  11605     1
  11587  11601     1
  11587  11599     1
  11587  11600     1
  11587  11590     1
  11588  11593     1
  11588  11598     1
  11588  11607     1
  11589  11604     1
  11589  11597     1
  11589  11605     1
  11590  11598     1
  11590  11592     1
  11591  11594     1
  11591  11603     1
  11591  11593     1
  11591  11598     1
  11591  11595     1
  11591  11592     1
  11592  11608     1
  11592  11597     1
  11592  11606     1
  11592  11605     1
  11593  11604     1
  11593  11608     1
  11595  11605     1
  11596  11605     1
  11599  11602     1
  11599  11603     1
  11600  11602     1
  11600  11603     1
  11603  11604     1
  11603  11605     1
  11605  11607     1
  11609  11615     1
  11609  11616     1
  11610  11613     1
  11610  11612     1
  11610  11614     1
  11612  11617     1
  11612  11615     1
  11612  11616     1
  11613  11627     1
  11613  11628     1
  11613  11620     1
  11613  11622     1
  11614  11617     1
  11614  11615     1
  11614  11616     1
  11615  11618     1
  11615  11619     1
  11616  11618     1
  11616  11619     1
  11617  11630     1
  11617  11631     1
  11617  11623     1
  11617  11624     1
  11618  11620     1
  11618  11622     1
  11619  11627     1
  11619  11628     1
  11620  11625     1
  11620  11623     1
  11620  11624     1
  11621  11647     1
  11622  11625     1
  11622  11623     1
  11622  11624     1
  11623  11626     1
  11623  11657     1
  11624  11626     1
  11624  11657     1
  11625  11640     1
  11626  11647     1
  11627  11632     1
  11627  11630     1
  11627  11631     1
  11628  11632     1
  11628  11630     1
  11628  11631     1
  11629  11671     1
  11630  11633     1
  11630  11681     1
  11631  11633     1
  11631  11681     1
  11632  11664     1
  11633  11671     1
  11634  11641     1
  11634  11656     1
  11634  11651     1
  11634  11642     1
  11635  11648     1
  11635  11649     1
  11635  11640     1
  11635  11646     1
  11636  11637     1
  11636  11655     1
  11636  11654     1
  11636  11650     1
  11636  11648     1
  11636  11649     1
  11636  11639     1
  11637  11656     1
  11637  11642     1
  11637  11647     1
  11638  11654     1
  11638  11646     1
  11638  11653     1
  11639  11641     1
  11639  11647     1
  11640  11644     1
  11640  11641     1
  11640  11643     1
  11640  11652     1
  11640  11642     1
  11640  11647     1
  11641  11655     1
  11641  11654     1
  11641  11657     1
  11641  11646     1
  11642  11657     1
  11642  11653     1
  11644  11654     1
  11645  11654     1
  11648  11652     1
  11648  11651     1
  11649  11652     1
  11649  11651     1
  11652  11654     1
  11652  11653     1
  11654  11656     1
  11658  11665     1
  11658  11680     1
  11658  11675     1
  11658  11666     1
  11659  11672     1
  11659  11673     1
  11659  11664     1
  11659  11670     1
  11660  11661     1
  11660  11679     1
  11660  11678     1
  11660  11674     1
  11660  11672     1
  11660  11673     1
  11660  11663     1
  11661  11680     1
  11661  11666     1
  11661  11671     1
  11662  11678     1
  11662  11670     1
  11662  11677     1
  11663  11665     1
  11663  11671     1
  11664  11668     1
  11664  11665     1
  11664  11667     1
  11664  11676     1
  11664  11666     1
  11664  11671     1
  11665  11679     1
  11665  11678     1
  11665  11681     1
  11665  11670     1
  11666  11681     1
  11666  11677     1
  11668  11678     1
  11669  11678     1
  11672  11676     1
  11672  11675     1
  11673  11676     1
  11673  11675     1
  11676  11678     1
  11676  11677     1
  11678  11680     1
  11682  11688     1
  11682  11689     1
  11683  11686     1
  11683  11685     1
  11683  11687     1
  11685  11690     1
  11685  11688     1
  11685  11689     1
  11686  11700     1
  11686  11701     1
  11686  11693     1
  11686  11695     1
  11687  11690     1
  11687  11688     1
  11687  11689     1
  11688  11691     1
  11688  11692     1
  11689  11691     1
  11689  11692     1
  11690  11703     1
  11690  11704     1
  11690  11696     1
  11690  11697     1
  11691  11693     1
  11691  11695     1
  11692  11700     1
  11692  11701     1
  11693  11698     1
  11693  11696     1
  11693  11697     1
  11694  11720     1
  11695  11698     1
  11695  11696     1
  11695  11697     1
  11696  11699     1
  11696  11730     1
  11697  11699     1
  11697  11730     1
  11698  11713     1
  11699  11720     1
  11700  11705     1
  11700  11703     1
  11700  11704     1
  11701  11705     1
  11701  11703     1
  11701  11704     1
  11702  11744     1
  11703  11706     1
  11703  11754     1
  11704  11706     1
  11704  11754     1
  11705  11737     1
  11706  11744     1
  11707  11714     1
  11707  11729     1
  11707  11724     1
  11707  11715     1
  11708  11713     1
  11708  11719     1
  11708  11721     1
  11708  11722     1
  11709  11710     1
  11709  11728     1
  11709  11727     1
  11709  11723     1
  11709  11721     1
  11709  11722     1
  11709  11712     1
  11710  11715     1
  11710  11720     1
  11710  11729     1
  11711  11726     1
  11711  11719     1
  11711  11727     1
  11712  11720     1
  11712  11714     1
  11713  11716     1
  11713  11725     1
  11713  11715     1
  11713  11720     1
  11713  11717     1
  11713  11714     1
  11714  11730     1
  11714  11719     1
  11714  11728     1
  11714  11727     1
  11715  11726     1
  11715  11730     1
  11717  11727     1
  11718  11727     1
  11721  11724     1
  11721  11725     1
  11722  11724     1
  11722  11725     1
  11725  11726     1
  11725  11727     1
  11727  11729     1
  11731  11738     1
  11731  11753     1
  11731  11748     1
  11731  11739     1
  11732  11737     1
  11732  11743     1
  11732  11745     1
  11732  11746     1
  11733  11734     1
  11733  11752     1
  11733  11751     1
  11733  11747     1
  11733  11745     1
  11733  11746     1
  11733  11736     1
  11734  11739     1
  11734  11744     1
  11734  11753     1
  11735  11750     1
  11735  11743     1
  11735  11751     1
  11736  11744     1
  11736  11738     1
  11737  11740     1
  11737  11749     1
  11737  11739     1
  11737  11744     1
  11737  11741     1
  11737  11738     1
  11738  11754     1
  11738  11743     1
  11738  11752     1
  11738  11751     1
  11739  11750     1
  11739  11754     1
  11741  11751     1
  11742  11751     1
  11745  11748     1
  11745  11749     1
  11746  11748     1
  11746  11749     1
  11749  11750     1
  11749  11751     1
  11751  11753     1
  11755  11761     1
  11755  11762     1
  11756  11759     1
  11756  11758     1
  11756  11760     1
  11758  11763     1
  11758  11761     1
  11758  11762     1
  11759  11773     1
  11759  11774     1
  11759  11766     1
  11759  11768     1
  11760  11763     1
  11760  11761     1
  11760  11762     1
  11761  11764     1
  11761  11765     1
  11762  11764     1
  11762  11765     1
  11763  11776     1
  11763  11777     1
  11763  11769     1
  11763  11770     1
  11764  11766     1
  11764  11768     1
  11765  11773     1
  11765  11774     1
  11766  11771     1
  11766  11769     1
  11766  11770     1
  11767  11793     1
  11768  11771     1
  11768  11769     1
  11768  11770     1
  11769  11772     1
  11769  11803     1
  11770  11772     1
  11770  11803     1
  11771  11786     1
  11772  11793     1
  11773  11778     1
  11773  11776     1
  11773  11777     1
  11774  11778     1
  11774  11776     1
  11774  11777     1
  11775  11817     1
  11776  11779     1
  11776  11827     1
  11777  11779     1
  11777  11827     1
  11778  11810     1
  11779  11817     1
  11780  11787     1
  11780  11802     1
  11780  11797     1
  11780  11788     1
  11781  11794     1
  11781  11795     1
  11781  11786     1
  11781  11792     1
  11782  11783     1
  11782  11801     1
  11782  11800     1
  11782  11796     1
  11782  11794     1
  11782  11795     1
  11782  11785     1
  11783  11802     1
  11783  11788     1
  11783  11793     1
  11784  11800     1
  11784  11792     1
  11784  11799     1
  11785  11787     1
  11785  11793     1
  11786  11790     1
  11786  11787     1
  11786  11789     1
  11786  11798     1
  11786  11788     1
  11786  11793     1
  11787  11801     1
  11787  11800     1
  11787  11803     1
  11787  11792     1
  11788  11803     1
  11788  11799     1
  11790  11800     1
  11791  11800     1
  11794  11798     1
  11794  11797     1
  11795  11798     1
  11795  11797     1
  11798  11800     1
  11798  11799     1
  11800  11802     1
  11804  11811     1
  11804  11826     1
  11804  11821     1
  11804  11812     1
  11805  11818     1
  11805  11819     1
  11805  11810     1
  11805  11816     1
  11806  11807     1
  11806  11825     1
  11806  11824     1
  11806  11820     1
  11806  11818     1
  11806  11819     1
  11806  11809     1
  11807  11826     1
  11807  11812     1
  11807  11817     1
  11808  11824     1
  11808  11816     1
  11808  11823     1
  11809  11811     1
  11809  11817     1
  11810  11814     1
  11810  11811     1
  11810  11813     1
  11810  11822     1
  11810  11812     1
  11810  11817     1
  11811  11825     1
  11811  11824     1
  11811  11827     1
  11811  11816     1
  11812  11827     1
  11812  11823     1
  11814  11824     1
  11815  11824     1
  11818  11822     1
  11818  11821     1
  11819  11822     1
  11819  11821     1
  11822  11824     1
  11822  11823     1
  11824  11826     1
  11828  11834     1
  11828  11835     1
  11829  11832     1
  11829  11831     1
  11829  11833     1
  11831  11836     1
  11831  11834     1
  11831  11835     1
  11832  11846     1
  11832  11847     1
  11832  11839     1
  11832  11841     1
  11833  11836     1
  11833  11834     1
  11833  11835     1
  11834  11837     1
  11834  11838     1
  11835  11837     1
  11835  11838     1
  11836  11849     1
  11836  11850     1
  11836  11842     1
  11836  11843     1
  11837  11839     1
  11837  11841     1
  11838  11846     1
  11838  11847     1
  11839  11844     1
  11839  11842     1
  11839  11843     1
  11840  11866     1
  11841  11844     1
  11841  11842     1
  11841  11843     1
  11842  11845     1
  11842  11876     1
  11843  11845     1
  11843  11876     1
  11844  11859     1
  11845  11866     1
  11846  11851     1
  11846  11849     1
  11846  11850     1
  11847  11851     1
  11847  11849     1
  11847  11850     1
  11848  11890     1
  11849  11852     1
  11849  11900     1
  11850  11852     1
  11850  11900     1
  11851  11883     1
  11852  11890     1
  11853  11860     1
  11853  11875     1
  11853  11870     1
  11853  11861     1
  11854  11859     1
  11854  11865     1
  11854  11867     1
  11854  11868     1
  11855  11856     1
  11855  11874     1
  11855  11873     1
  11855  11869     1
  11855  11867     1
  11855  11868     1
  11855  11858     1
  11856  11861     1
  11856  11866     1
  11856  11875     1
  11857  11872     1
  11857  11865     1
  11857  11873     1
  11858  11866     1
  11858  11860     1
  11859  11862     1
  11859  11871     1
  11859  11861     1
  11859  11866     1
  11859  11863     1
  11859  11860     1
  11860  11876     1
  11860  11865     1
  11860  11874     1
  11860  11873     1
  11861  11872     1
  11861  11876     1
  11863  11873     1
  11864  11873     1
  11867  11870     1
  11867  11871     1
  11868  11870     1
  11868  11871     1
  11871  11872     1
  11871  11873     1
  11873  11875     1
  11877  11884     1
  11877  11899     1
  11877  11894     1
  11877  11885     1
  11878  11883     1
  11878  11889     1
  11878  11891     1
  11878  11892     1
  11879  11880     1
  11879  11898     1
  11879  11897     1
  11879  11893     1
  11879  11891     1
  11879  11892     1
  11879  11882     1
  11880  11885     1
  11880  11890     1
  11880  11899     1
  11881  11896     1
  11881  11889     1
  11881  11897     1
  11882  11890     1
  11882  11884     1
  11883  11886     1
  11883  11895     1
  11883  11885     1
  11883  11890     1
  11883  11887     1
  11883  11884     1
  11884  11900     1
  11884  11889     1
  11884  11898     1
  11884  11897     1
  11885  11896     1
  11885  11900     1
  11887  11897     1
  11888  11897     1
  11891  11894     1
  11891  11895     1
  11892  11894     1
  11892  11895     1
  11895  11896     1
  11895  11897     1
  11897  11899     1
  11901  11907     1
  11901  11908     1
  11902  11905     1
  11902  11904     1
  11902  11906     1
  11904  11909     1
  11904  11907     1
  11904  11908     1
  11905  11919     1
  11905  11920     1
  11905  11912     1
  11905  11914     1
  11906  11909     1
  11906  11907     1
  11906  11908     1
  11907  11910     1
  11907  11911     1
  11908  11910     1
  11908  11911     1
  11909  11922     1
  11909  11923     1
  11909  11915     1
  11909  11916     1
  11910  11912     1
  11910  11914     1
  11911  11919     1
  11911  11920     1
  11912  11917     1
  11912  11915     1
  11912  11916     1
  11913  11939     1
  11914  11917     1
  11914  11915     1
  11914  11916     1
  11915  11918     1
  11915  11949     1
  11916  11918     1
  11916  11949     1
  11917  11932     1
  11918  11939     1
  11919  11924     1
  11919  11922     1
  11919  11923     1
  11920  11924     1
  11920  11922     1
  11920  11923     1
  11921  11963     1
  11922  11925     1
  11922  11973     1
  11923  11925     1
  11923  11973     1
  11924  11956     1
  11925  11963     1
  11926  11933     1
  11926  11948     1
  11926  11943     1
  11926  11934     1
  11927  11940     1
  11927  11941     1
  11927  11932     1
  11927  11938     1
  11928  11929     1
  11928  11947     1
  11928  11946     1
  11928  11942     1
  11928  11940     1
  11928  11941     1
  11928  11931     1
  11929  11948     1
  11929  11934     1
  11929  11939     1
  11930  11946     1
  11930  11938     1
  11930  11945     1
  11931  11933     1
  11931  11939     1
  11932  11936     1
  11932  11933     1
  11932  11935     1
  11932  11944     1
  11932  11934     1
  11932  11939     1
  11933  11947     1
  11933  11946     1
  11933  11949     1
  11933  11938     1
  11934  11949     1
  11934  11945     1
  11936  11946     1
  11937  11946     1
  11940  11944     1
  11940  11943     1
  11941  11944     1
  11941  11943     1
  11944  11946     1
  11944  11945     1
  11946  11948     1
  11950  11957     1
  11950  11972     1
  11950  11967     1
  11950  11958     1
  11951  11964     1
  11951  11965     1
  11951  11956     1
  11951  11962     1
  11952  11953     1
  11952  11971     1
  11952  11970     1
  11952  11966     1
  11952  11964     1
  11952  11965     1
  11952  11955     1
  11953  11972     1
  11953  11958     1
  11953  11963     1
  11954  11970     1
  11954  11962     1
  11954  11969     1
  11955  11957     1
  11955  11963     1
  11956  11960     1
  11956  11957     1
  11956  11959     1
  11956  11968     1
  11956  11958     1
  11956  11963     1
  11957  11971     1
  11957  11970     1
  11957  11973     1
  11957  11962     1
  11958  11973     1
  11958  11969     1
  11960  11970     1
  11961  11970     1
  11964  11968     1
  11964  11967     1
  11965  11968     1
  11965  11967     1
  11968  11970     1
  11968  11969     1
  11970  11972     1
  11974  11980     1
  11974  11981     1
  11975  11978     1
  11975  11977     1
  11975  11979     1
  11977  11982     1
  11977  11980     1
  11977  11981     1
  11978  11992     1
  11978  11993     1
  11978  11985     1
  11978  11987     1
  11979  11982     1
  11979  11980     1
  11979  11981     1
  11980  11983     1
  11980  11984     1
  11981  11983     1
  11981  11984     1
  11982  11995     1
  11982  11996     1
  11982  11988     1
  11982  11989     1
  11983  11985     1
  11983  11987     1
  11984  11992     1
  11984  11993     1
  11985  11990     1
  11985  11988     1
  11985  11989     1
  11986  12012     1
  11987  11990     1
  11987  11988     1
  11987  11989     1
  11988  11991     1
  11988  12022     1
  11989  11991     1
  11989  12022     1
  11990  12005     1
  11991  12012     1
  11992  11997     1
  11992  11995     1
  11992  11996     1
  11993  11997     1
  11993  11995     1
  11993  11996     1
  11994  12036     1
  11995  11998     1
  11995  12046     1
  11996  11998     1
  11996  12046     1
  11997  12029     1
  11998  12036     1
  11999  12006     1
  11999  12021     1
  11999  12016     1
  11999  12007     1
  12000  12005     1
  12000  12011     1
  12000  12013     1
  12000  12014     1
  12001  12002     1
  12001  12020     1
  12001  12019     1
  12001  12015     1
  12001  12013     1
  12001  12014     1
  12001  12004     1
  12002  12007     1
  12002  12012     1
  12002  12021     1
  12003  12018     1
  12003  12011     1
  12003  12019     1
  12004  12012     1
  12004  12006     1
  12005  12008     1
  12005  12017     1
  12005  12007     1
  12005  12012     1
  12005  12009     1
  12005  12006     1
  12006  12022     1
  12006  12011     1
  12006  12020     1
  12006  12019     1
  12007  12018     1
  12007  12022     1
  12009  12019     1
  12010  12019     1
  12013  12016     1
  12013  12017     1
  12014  12016     1
  12014  12017     1
  12017  12018     1
  12017  12019     1
  12019  12021     1
  12023  12030     1
  12023  12045     1
  12023  12040     1
  12023  12031     1
  12024  12029     1
  12024  12035     1
  12024  12037     1
  12024  12038     1
  12025  12026     1
  12025  12044     1
  12025  12043     1
  12025  12039     1
  12025  12037     1
  12025  12038     1
  12025  12028     1
  12026  12031     1
  12026  12036     1
  12026  12045     1
  12027  12042     1
  12027  12035     1
  12027  12043     1
  12028  12036     1
  12028  12030     1
  12029  12032     1
  12029  12041     1
  12029  12031     1
  12029  12036     1
  12029  12033     1
  12029  12030     1
  12030  12046     1
  12030  12035     1
  12030  12044     1
  12030  12043     1
  12031  12042     1
  12031  12046     1
  12033  12043     1
  12034  12043     1
  12037  12040     1
  12037  12041     1
  12038  12040     1
  12038  12041     1
  12041  12042     1
  12041  12043     1
  12043  12045     1
  12047  12053     1
  12047  12054     1
  12048  12051     1
  12048  12050     1
  12048  12052     1
  12050  12055     1
  12050  12053     1
  12050  12054     1
  12051  12065     1
  12051  12066     1
  12051  12058     1
  12051  12060     1
  12052  12055     1
  12052  12053     1
  12052  12054     1
  12053  12056     1
  12053  12057     1
  12054  12056     1
  12054  12057     1
  12055  12068     1
  12055  12069     1
  12055  12061     1
  12055  12062     1
  12056  12058     1
  12056  12060     1
  12057  12065     1
  12057  12066     1
  12058  12063     1
  12058  12061     1
  12058  12062     1
  12059  12085     1
  12060  12063     1
  12060  12061     1
  12060  12062     1
  12061  12064     1
  12061  12095     1
  12062  12064     1
  12062  12095     1
  12063  12078     1
  12064  12085     1
  12065  12070     1
  12065  12068     1
  12065  12069     1
  12066  12070     1
  12066  12068     1
  12066  12069     1
  12067  12109     1
  12068  12071     1
  12068  12119     1
  12069  12071     1
  12069  12119     1
  12070  12102     1
  12071  12109     1
  12072  12079     1
  12072  12094     1
  12072  12089     1
  12072  12080     1
  12073  12086     1
  12073  12087     1
  12073  12078     1
  12073  12084     1
  12074  12075     1
  12074  12093     1
  12074  12092     1
  12074  12088     1
  12074  12086     1
  12074  12087     1
  12074  12077     1
  12075  12094     1
  12075  12080     1
  12075  12085     1
  12076  12092     1
  12076  12084     1
  12076  12091     1
  12077  12079     1
  12077  12085     1
  12078  12082     1
  12078  12079     1
  12078  12081     1
  12078  12090     1
  12078  12080     1
  12078  12085     1
  12079  12093     1
  12079  12092     1
  12079  12095     1
  12079  12084     1
  12080  12095     1
  12080  12091     1
  12082  12092     1
  12083  12092     1
  12086  12090     1
  12086  12089     1
  12087  12090     1
  12087  12089     1
  12090  12092     1
  12090  12091     1
  12092  12094     1
  12096  12103     1
  12096  12118     1
  12096  12113     1
  12096  12104     1
  12097  12110     1
  12097  12111     1
  12097  12102     1
  12097  12108     1
  12098  12099     1
  12098  12117     1
  12098  12116     1
  12098  12112     1
  12098  12110     1
  12098  12111     1
  12098  12101     1
  12099  12118     1
  12099  12104     1
  12099  12109     1
  12100  12116     1
  12100  12108     1
  12100  12115     1
  12101  12103     1
  12101  12109     1
  12102  12106     1
  12102  12103     1
  12102  12105     1
  12102  12114     1
  12102  12104     1
  12102  12109     1
  12103  12117     1
  12103  12116     1
  12103  12119     1
  12103  12108     1
  12104  12119     1
  12104  12115     1
  12106  12116     1
  12107  12116     1
  12110  12114     1
  12110  12113     1
  12111  12114     1
  12111  12113     1
  12114  12116     1
  12114  12115     1
  12116  12118     1
  12120  12126     1
  12120  12127     1
  12121  12124     1
  12121  12123     1
  12121  12125     1
  12123  12128     1
  12123  12126     1
  12123  12127     1
  12124  12138     1
  12124  12139     1
  12124  12131     1
  12124  12133     1
  12125  12128     1
  12125  12126     1
  12125  12127     1
  12126  12129     1
  12126  12130     1
  12127  12129     1
  12127  12130     1
  12128  12141     1
  12128  12142     1
  12128  12134     1
  12128  12135     1
  12129  12131     1
  12129  12133     1
  12130  12138     1
  12130  12139     1
  12131  12136     1
  12131  12134     1
  12131  12135     1
  12132  12158     1
  12133  12136     1
  12133  12134     1
  12133  12135     1
  12134  12137     1
  12134  12168     1
  12135  12137     1
  12135  12168     1
  12136  12151     1
  12137  12158     1
  12138  12143     1
  12138  12141     1
  12138  12142     1
  12139  12143     1
  12139  12141     1
  12139  12142     1
  12140  12182     1
  12141  12144     1
  12141  12192     1
  12142  12144     1
  12142  12192     1
  12143  12175     1
  12144  12182     1
  12145  12152     1
  12145  12167     1
  12145  12162     1
  12145  12153     1
  12146  12151     1
  12146  12157     1
  12146  12159     1
  12146  12160     1
  12147  12148     1
  12147  12166     1
  12147  12165     1
  12147  12161     1
  12147  12159     1
  12147  12160     1
  12147  12150     1
  12148  12153     1
  12148  12158     1
  12148  12167     1
  12149  12164     1
  12149  12157     1
  12149  12165     1
  12150  12158     1
  12150  12152     1
  12151  12154     1
  12151  12163     1
  12151  12153     1
  12151  12158     1
  12151  12155     1
  12151  12152     1
  12152  12168     1
  12152  12157     1
  12152  12166     1
  12152  12165     1
  12153  12164     1
  12153  12168     1
  12155  12165     1
  12156  12165     1
  12159  12162     1
  12159  12163     1
  12160  12162     1
  12160  12163     1
  12163  12164     1
  12163  12165     1
  12165  12167     1
  12169  12176     1
  12169  12191     1
  12169  12186     1
  12169  12177     1
  12170  12175     1
  12170  12181     1
  12170  12183     1
  12170  12184     1
  12171  12172     1
  12171  12190     1
  12171  12189     1
  12171  12185     1
  12171  12183     1
  12171  12184     1
  12171  12174     1
  12172  12177     1
  12172  12182     1
  12172  12191     1
  12173  12188     1
  12173  12181     1
  12173  12189     1
  12174  12182     1
  12174  12176     1
  12175  12178     1
  12175  12187     1
  12175  12177     1
  12175  12182     1
  12175  12179     1
  12175  12176     1
  12176  12192     1
  12176  12181     1
  12176  12190     1
  12176  12189     1
  12177  12188     1
  12177  12192     1
  12179  12189     1
  12180  12189     1
  12183  12186     1
  12183  12187     1
  12184  12186     1
  12184  12187     1
  12187  12188     1
  12187  12189     1
  12189  12191     1
  12193  12199     1
  12193  12200     1
  12194  12197     1
  12194  12196     1
  12194  12198     1
  12196  12201     1
  12196  12199     1
  12196  12200     1
  12197  12211     1
  12197  12212     1
  12197  12204     1
  12197  12206     1
  12198  12201     1
  12198  12199     1
  12198  12200     1
  12199  12202     1
  12199  12203     1
  12200  12202     1
  12200  12203     1
  12201  12214     1
  12201  12215     1
  12201  12207     1
  12201  12208     1
  12202  12204     1
  12202  12206     1
  12203  12211     1
  12203  12212     1
  12204  12209     1
  12204  12207     1
  12204  12208     1
  12205  12231     1
  12206  12209     1
  12206  12207     1
  12206  12208     1
  12207  12210     1
  12207  12241     1
  12208  12210     1
  12208  12241     1
  12209  12224     1
  12210  12231     1
  12211  12216     1
  12211  12214     1
  12211  12215     1
  12212  12216     1
  12212  12214     1
  12212  12215     1
  12213  12255     1
  12214  12217     1
  12214  12265     1
  12215  12217     1
  12215  12265     1
  12216  12248     1
  12217  12255     1
  12218  12225     1
  12218  12240     1
  12218  12235     1
  12218  12226     1
  12219  12232     1
  12219  12233     1
  12219  12224     1
  12219  12230     1
  12220  12221     1
  12220  12239     1
  12220  12238     1
  12220  12234     1
  12220  12232     1
  12220  12233     1
  12220  12223     1
  12221  12240     1
  12221  12226     1
  12221  12231     1
  12222  12238     1
  12222  12230     1
  12222  12237     1
  12223  12225     1
  12223  12231     1
  12224  12228     1
  12224  12225     1
  12224  12227     1
  12224  12236     1
  12224  12226     1
  12224  12231     1
  12225  12239     1
  12225  12238     1
  12225  12241     1
  12225  12230     1
  12226  12241     1
  12226  12237     1
  12228  12238     1
  12229  12238     1
  12232  12236     1
  12232  12235     1
  12233  12236     1
  12233  12235     1
  12236  12238     1
  12236  12237     1
  12238  12240     1
  12242  12249     1
  12242  12264     1
  12242  12259     1
  12242  12250     1
  12243  12256     1
  12243  12257     1
  12243  12248     1
  12243  12254     1
  12244  12245     1
  12244  12263     1
  12244  12262     1
  12244  12258     1
  12244  12256     1
  12244  12257     1
  12244  12247     1
  12245  12264     1
  12245  12250     1
  12245  12255     1
  12246  12262     1
  12246  12254     1
  12246  12261     1
  12247  12249     1
  12247  12255     1
  12248  12252     1
  12248  12249     1
  12248  12251     1
  12248  12260     1
  12248  12250     1
  12248  12255     1
  12249  12263     1
  12249  12262     1
  12249  12265     1
  12249  12254     1
  12250  12265     1
  12250  12261     1
  12252  12262     1
  12253  12262     1
  12256  12260     1
  12256  12259     1
  12257  12260     1
  12257  12259     1
  12260  12262     1
  12260  12261     1
  12262  12264     1
  12266  12272     1
  12266  12273     1
  12267  12270     1
  12267  12269     1
  12267  12271     1
  12269  12274     1
  12269  12272     1
  12269  12273     1
  12270  12284     1
  12270  12285     1
  12270  12277     1
  12270  12279     1
  12271  12274     1
  12271  12272     1
  12271  12273     1
  12272  12275     1
  12272  12276     1
  12273  12275     1
  12273  12276     1
  12274  12287     1
  12274  12288     1
  12274  12280     1
  12274  12281     1
  12275  12277     1
  12275  12279     1
  12276  12284     1
  12276  12285     1
  12277  12282     1
  12277  12280     1
  12277  12281     1
  12278  12304     1
  12279  12282     1
  12279  12280     1
  12279  12281     1
  12280  12283     1
  12280  12314     1
  12281  12283     1
  12281  12314     1
  12282  12297     1
  12283  12304     1
  12284  12289     1
  12284  12287     1
  12284  12288     1
  12285  12289     1
  12285  12287     1
  12285  12288     1
  12286  12328     1
  12287  12290     1
  12287  12338     1
  12288  12290     1
  12288  12338     1
  12289  12321     1
  12290  12328     1
  12291  12298     1
  12291  12313     1
  12291  12308     1
  12291  12299     1
  12292  12297     1
  12292  12303     1
  12292  12305     1
  12292  12306     1
  12293  12294     1
  12293  12312     1
  12293  12311     1
  12293  12307     1
  12293  12305     1
  12293  12306     1
  12293  12296     1
  12294  12299     1
  12294  12304     1
  12294  12313     1
  12295  12310     1
  12295  12303     1
  12295  12311     1
  12296  12304     1
  12296  12298     1
  12297  12300     1
  12297  12309     1
  12297  12299     1
  12297  12304     1
  12297  12301     1
  12297  12298     1
  12298  12314     1
  12298  12303     1
  12298  12312     1
  12298  12311     1
  12299  12310     1
  12299  12314     1
  12301  12311     1
  12302  12311     1
  12305  12308     1
  12305  12309     1
  12306  12308     1
  12306  12309     1
  12309  12310     1
  12309  12311     1
  12311  12313     1
  12315  12322     1
  12315  12337     1
  12315  12332     1
  12315  12323     1
  12316  12321     1
  12316  12327     1
  12316  12329     1
  12316  12330     1
  12317  12318     1
  12317  12336     1
  12317  12335     1
  12317  12331     1
  12317  12329     1
  12317  12330     1
  12317  12320     1
  12318  12323     1
  12318  12328     1
  12318  12337     1
  12319  12334     1
  12319  12327     1
  12319  12335     1
  12320  12328     1
  12320  12322     1
  12321  12324     1
  12321  12333     1
  12321  12323     1
  12321  12328     1
  12321  12325     1
  12321  12322     1
  12322  12338     1
  12322  12327     1
  12322  12336     1
  12322  12335     1
  12323  12334     1
  12323  12338     1
  12325  12335     1
  12326  12335     1
  12329  12332     1
  12329  12333     1
  12330  12332     1
  12330  12333     1
  12333  12334     1
  12333  12335     1
  12335  12337     1
  12339  12345     1
  12339  12346     1
  12340  12343     1
  12340  12342     1
  12340  12344     1
  12342  12347     1
  12342  12345     1
  12342  12346     1
  12343  12357     1
  12343  12358     1
  12343  12350     1
  12343  12352     1
  12344  12347     1
  12344  12345     1
  12344  12346     1
  12345  12348     1
  12345  12349     1
  12346  12348     1
  12346  12349     1
  12347  12360     1
  12347  12361     1
  12347  12353     1
  12347  12354     1
  12348  12350     1
  12348  12352     1
  12349  12357     1
  12349  12358     1
  12350  12355     1
  12350  12353     1
  12350  12354     1
  12351  12377     1
  12352  12355     1
  12352  12353     1
  12352  12354     1
  12353  12356     1
  12353  12387     1
  12354  12356     1
  12354  12387     1
  12355  12370     1
  12356  12377     1
  12357  12362     1
  12357  12360     1
  12357  12361     1
  12358  12362     1
  12358  12360     1
  12358  12361     1
  12359  12401     1
  12360  12363     1
  12360  12411     1
  12361  12363     1
  12361  12411     1
  12362  12394     1
  12363  12401     1
  12364  12371     1
  12364  12386     1
  12364  12381     1
  12364  12372     1
  12365  12378     1
  12365  12379     1
  12365  12370     1
  12365  12376     1
  12366  12367     1
  12366  12385     1
  12366  12384     1
  12366  12380     1
  12366  12378     1
  12366  12379     1
  12366  12369     1
  12367  12386     1
  12367  12372     1
  12367  12377     1
  12368  12384     1
  12368  12376     1
  12368  12383     1
  12369  12371     1
  12369  12377     1
  12370  12374     1
  12370  12371     1
  12370  12373     1
  12370  12382     1
  12370  12372     1
  12370  12377     1
  12371  12385     1
  12371  12384     1
  12371  12387     1
  12371  12376     1
  12372  12387     1
  12372  12383     1
  12374  12384     1
  12375  12384     1
  12378  12382     1
  12378  12381     1
  12379  12382     1
  12379  12381     1
  12382  12384     1
  12382  12383     1
  12384  12386     1
  12388  12395     1
  12388  12410     1
  12388  12405     1
  12388  12396     1
  12389  12402     1
  12389  12403     1
  12389  12394     1
  12389  12400     1
  12390  12391     1
  12390  12409     1
  12390  12408     1
  12390  12404     1
  12390  12402     1
  12390  12403     1
  12390  12393     1
  12391  12410     1
  12391  12396     1
  12391  12401     1
  12392  12408     1
  12392  12400     1
  12392  12407     1
  12393  12395     1
  12393  12401     1
  12394  12398     1
  12394  12395     1
  12394  12397     1
  12394  12406     1
  12394  12396     1
  12394  12401     1
  12395  12409     1
  12395  12408     1
  12395  12411     1
  12395  12400     1
  12396  12411     1
  12396  12407     1
  12398  12408     1
  12399  12408     1
  12402  12406     1
  12402  12405     1
  12403  12406     1
  12403  12405     1
  12406  12408     1
  12406  12407     1
  12408  12410     1
  12412  12418     1
  12412  12419     1
  12413  12416     1
  12413  12415     1
  12413  12417     1
  12415  12420     1
  12415  12418     1
  12415  12419     1
  12416  12430     1
  12416  12431     1
  12416  12423     1
  12416  12425     1
  12417  12420     1
  12417  12418     1
  12417  12419     1
  12418  12421     1
  12418  12422     1
  12419  12421     1
  12419  12422     1
  12420  12433     1
  12420  12434     1
  12420  12426     1
  12420  12427     1
  12421  12423     1
  12421  12425     1
  12422  12430     1
  12422  12431     1
  12423  12428     1
  12423  12426     1
  12423  12427     1
  12424  12450     1
  12425  12428     1
  12425  12426     1
  12425  12427     1
  12426  12429     1
  12426  12460     1
  12427  12429     1
  12427  12460     1
  12428  12443     1
  12429  12450     1
  12430  12435     1
  12430  12433     1
  12430  12434     1
  12431  12435     1
  12431  12433     1
  12431  12434     1
  12432  12474     1
  12433  12436     1
  12433  12484     1
  12434  12436     1
  12434  12484     1
  12435  12467     1
  12436  12474     1
  12437  12444     1
  12437  12459     1
  12437  12454     1
  12437  12445     1
  12438  12443     1
  12438  12449     1
  12438  12451     1
  12438  12452     1
  12439  12440     1
  12439  12458     1
  12439  12457     1
  12439  12453     1
  12439  12451     1
  12439  12452     1
  12439  12442     1
  12440  12445     1
  12440  12450     1
  12440  12459     1
  12441  12456     1
  12441  12449     1
  12441  12457     1
  12442  12450     1
  12442  12444     1
  12443  12446     1
  12443  12455     1
  12443  12445     1
  12443  12450     1
  12443  12447     1
  12443  12444     1
  12444  12460     1
  12444  12449     1
  12444  12458     1
  12444  12457     1
  12445  12456     1
  12445  12460     1
  12447  12457     1
  12448  12457     1
  12451  12454     1
  12451  12455     1
  12452  12454     1
  12452  12455     1
  12455  12456     1
  12455  12457     1
  12457  12459     1
  12461  12468     1
  12461  12483     1
  12461  12478     1
  12461  12469     1
  12462  12467     1
  12462  12473     1
  12462  12475     1
  12462  12476     1
  12463  12464     1
  12463  12482     1
  12463  12481     1
  12463  12477     1
  12463  12475     1
  12463  12476     1
  12463  12466     1
  12464  12469     1
  12464  12474     1
  12464  12483     1
  12465  12480     1
  12465  12473     1
  12465  12481     1
  12466  12474     1
  12466  12468     1
  12467  12470     1
  12467  12479     1
  12467  12469     1
  12467  12474     1
  12467  12471     1
  12467  12468     1
  12468  12484     1
  12468  12473     1
  12468  12482     1
  12468  12481     1
  12469  12480     1
  12469  12484     1
  12471  12481     1
  12472  12481     1
  12475  12478     1
  12475  12479     1
  12476  12478     1
  12476  12479     1
  12479  12480     1
  12479  12481     1
  12481  12483     1

[ angles ]
;    ai     aj     ak funct         c0         c1         c2         c3
      1      4      7     1   111.0400475 552.288000
      1      8      9     1   112.3500484 533.878400
      1      8     12     1   112.3500484 533.878400
      4      1      8     1   111.0400475 552.288000
      4      7     15     1   112.3500484 533.878400
      4      7     18     1   112.3500484 533.878400
      7     15     21     1   111.0400475 552.288000
      7     18     24     1   111.0400475 552.288000
      8      9     30     1   111.0400475 552.288000
      8     12     27     1   111.0400475 552.288000
      9      8     12     1   112.3500484 533.878400
      9     30     34     1   111.0400475 529.694400
     12     27     33     1   111.0400475 529.694400
     15      7     18     1   112.3500484 533.878400
     15     21     35     1   111.0400475 529.694400
     18     24     36     1   111.0400475 529.694400
     21     35     38     1   123.2000528 564.003200
     21     35    114     1   115.1800491 558.982400
     24     36     39     1   123.2000528 564.003200
     24     36    139     1   115.1800491 558.982400
     27     33     37     1   123.2000528 564.003200
     27     33     64     1   115.1800491 558.982400
     30     34     40     1   123.2000528 564.003200
     30     34     89     1   115.1800491 558.982400
     33     64     44     1   120.6900519 530.531200
     34     89     69     1   120.6900519 530.531200
     35    114     94     1   120.6900519 530.531200
     36    139    119     1   120.6900519 530.531200
     37     33     64     1   123.0500530 620.905600
     38     35    114     1   123.0500530 620.905600
     39     36    139     1   123.0500530 620.905600
     40     34     89     1   123.0500530 620.905600
     41     44     64     1   111.6100477 551.451200
     41     47     48     1   112.3500484 533.878400
     41     47     51     1   112.3500484 533.878400
     44     41     47     1   111.0400475 552.288000
     47     48     57     1   111.0400475 552.288000
     47     51     54     1   111.0400475 552.288000
     48     47     51     1   112.3500484 533.878400
     48     57     61     1   111.0400475 529.694400
     51     54     60     1   111.0400475 529.694400
     54     60     62     1   123.2000528 564.003200
     54     60    164     1   115.1800491 558.982400
     57     61     63     1   123.2000528 564.003200
     57     61    189     1   115.1800491 558.982400
     60    164    144     1   120.6900519 530.531200
     61    189    169     1   120.6900519 530.531200
     62     60    164     1   123.0500530 620.905600
     63     61    189     1   123.0500530 620.905600
     66     69     89     1   111.6100477 551.451200
     66     72     73     1   112.3500484 533.878400
     66     72     76     1   112.3500484 533.878400
     69     66     72     1   111.0400475 552.288000
     72     73     82     1   111.0400475 552.288000
     72     76     79     1   111.0400475 552.288000
     73     72     76     1   112.3500484 533.878400
     73     82     86     1   111.0400475 529.694400
     76     79     85     1   111.0400475 529.694400
     79     85     87     1   123.2000528 564.003200
     79     85    214     1   115.1800491 558.982400
     82     86     88     1   123.2000528 564.003200
     82     86    239     1   115.1800491 558.982400
     85    214    194     1   120.6900519 530.531200
     86    239    219     1   120.6900519 530.531200
     87     85    214     1   123.0500530 620.905600
     88     86    239     1   123.0500530 620.905600
     91     94    114     1   111.6100477 551.451200
     91     97     98     1   112.3500484 533.878400
     91     97    101     1   112.3500484 533.878400
     94     91     97     1   111.0400475 552.288000
     97     98    107     1   111.0400475 552.288000
     97    101    104     1   111.0400475 552.288000
     98     97    101     1   112.3500484 533.878400
     98    107    111     1   111.0400475 529.694400
    101    104    110     1   111.0400475 529.694400
    104    110    112     1   123.2000528 564.003200
    104    110    264     1   115.1800491 558.982400
    107    111    113     1   123.2000528 564.003200
    107    111    289     1   115.1800491 558.982400
    110    264    244     1   120.6900519 530.531200
    111    289    269     1   120.6900519 530.531200
    112    110    264     1   123.0500530 620.905600
    113    111    289     1   123.0500530 620.905600
    116    119    139     1   111.6100477 551.451200
    116    122    123     1   112.3500484 533.878400
    116    122    126     1   112.3500484 533.878400
    119    116    122     1   111.0400475 552.288000
    122    123    132     1   111.0400475 552.288000
    122    126    129     1   111.0400475 552.288000
    123    122    126     1   112.3500484 533.878400
    123    132    136     1   111.0400475 529.694400
    126    129    135     1   111.0400475 529.694400
    129    135    137     1   123.2000528 564.003200
    129    135    314     1   115.1800491 558.982400
    132    136    138     1   123.2000528 564.003200
    132    136    339     1   115.1800491 558.982400
    135    314    294     1   120.6900519 530.531200
    136    339    319     1   120.6900519 530.531200
    137    135    314     1   123.0500530 620.905600
    138    136    339     1   123.0500530 620.905600
    141    144    164     1   111.6100477 551.451200
    141    147    148     1   112.3500484 533.878400
    141    147    151     1   112.3500484 533.878400
    144    141    147     1   111.0400475 552.288000
    147    148    157     1   111.0400475 552.288000
    147    151    154     1   111.0400475 552.288000
    148    147    151     1   112.3500484 533.878400
    148    157    161     1   111.0400475 529.694400
    151    154    160     1   111.0400475 529.694400
    154    160    162     1   123.2000528 564.003200
    154    160    364     1   115.1800491 558.982400
    157    161    163     1   123.2000528 564.003200
    157    161    389     1   115.1800491 558.982400
    160    364    344     1   120.6900519 530.531200
    161    389    369     1   120.6900519 530.531200
    162    160    364     1   123.0500530 620.905600
    163    161    389     1   123.0500530 620.905600
    166    169    189     1   111.6100477 551.451200
    166    172    173     1   112.3500484 533.878400
    166    172    176     1   112.3500484 533.878400
    169    166    172     1   111.0400475 552.288000
    172    173    182     1   111.0400475 552.288000
    172    176    179     1   111.0400475 552.288000
    173    172    176     1   112.3500484 533.878400
    173    182    186     1   111.0400475 529.694400
    176    179    185     1   111.0400475 529.694400
    179    185    187     1   123.2000528 564.003200
    179    185    414     1   115.1800491 558.982400
    182    186    188     1   123.2000528 564.003200
    182    186    439     1   115.1800491 558.982400
    185    414    394     1   120.6900519 530.531200
    186    439    419     1   120.6900519 530.531200
    187    185    414     1   123.0500530 620.905600
    188    186    439     1   123.0500530 620.905600
    191    194    214     1   111.6100477 551.451200
    191    197    198     1   112.3500484 533.878400
    191    197    201     1   112.3500484 533.878400
    194    191    197     1   111.0400475 552.288000
    197    198    207     1   111.0400475 552.288000
    197    201    204     1   111.0400475 552.288000
    198    197    201     1   112.3500484 533.878400
    198    207    211     1   111.0400475 529.694400
    201    204    210     1   111.0400475 529.694400
    204    210    212     1   123.2000528 564.003200
    204    210    464     1   115.1800491 558.982400
    207    211    213     1   123.2000528 564.003200
    207    211    489     1   115.1800491 558.982400
    210    464    444     1   120.6900519 530.531200
    211    489    469     1   120.6900519 530.531200
    212    210    464     1   123.0500530 620.905600
    213    211    489     1   123.0500530 620.905600
    216    219    239     1   111.6100477 551.451200
    216    222    223     1   112.3500484 533.878400
    216    222    226     1   112.3500484 533.878400
    219    216    222     1   111.0400475 552.288000
    222    223    232     1   111.0400475 552.288000
    222    226    229     1   111.0400475 552.288000
    223    222    226     1   112.3500484 533.878400
    223    232    236     1   111.0400475 529.694400
    226    229    235     1   111.0400475 529.694400
    229    235    237     1   123.2000528 564.003200
    229    235    514     1   115.1800491 558.982400
    232    236    238     1   123.2000528 564.003200
    232    236    539     1   115.1800491 558.982400
    235    514    494     1   120.6900519 530.531200
    236    539    519     1   120.6900519 530.531200
    237    235    514     1   123.0500530 620.905600
    238    236    539     1   123.0500530 620.905600
    241    244    264     1   111.6100477 551.451200
    241    247    248     1   112.3500484 533.878400
    241    247    251     1   112.3500484 533.878400
    244    241    247     1   111.0400475 552.288000
    247    248    257     1   111.0400475 552.288000
    247    251    254     1   111.0400475 552.288000
    248    247    251     1   112.3500484 533.878400
    248    257    261     1   111.0400475 529.694400
    251    254    260     1   111.0400475 529.694400
    254    260    262     1   123.2000528 564.003200
    254    260    564     1   115.1800491 558.982400
    257    261    263     1   123.2000528 564.003200
    257    261    589     1   115.1800491 558.982400
    260    564    544     1   120.6900519 530.531200
    261    589    569     1   120.6900519 530.531200
    262    260    564     1   123.0500530 620.905600
    263    261    589     1   123.0500530 620.905600
    266    269    289     1   111.6100477 551.451200
    266    272    273     1   112.3500484 533.878400
    266    272    276     1   112.3500484 533.878400
    269    266    272     1   111.0400475 552.288000
    272    273    282     1   111.0400475 552.288000
    272    276    279     1   111.0400475 552.288000
    273    272    276     1   112.3500484 533.878400
    273    282    286     1   111.0400475 529.694400
    276    279    285     1   111.0400475 529.694400
    279    285    287     1   123.2000528 564.003200
    279    285    614     1   115.1800491 558.982400
    282    286    288     1   123.2000528 564.003200
    282    286    639     1   115.1800491 558.982400
    285    614    594     1   120.6900519 530.531200
    286    639    619     1   120.6900519 530.531200
    287    285    614     1   123.0500530 620.905600
    288    286    639     1   123.0500530 620.905600
    291    294    314     1   111.6100477 551.451200
    291    297    298     1   112.3500484 533.878400
    291    297    301     1   112.3500484 533.878400
    294    291    297     1   111.0400475 552.288000
    297    298    307     1   111.0400475 552.288000
    297    301    304     1   111.0400475 552.288000
    298    297    301     1   112.3500484 533.878400
    298    307    311     1   111.0400475 529.694400
    301    304    310     1   111.0400475 529.694400
    304    310    312     1   123.2000528 564.003200
    304    310    664     1   115.1800491 558.982400
    307    311    313     1   123.2000528 564.003200
    307    311    689     1   115.1800491 558.982400
    310    664    644     1   120.6900519 530.531200
    311    689    669     1   120.6900519 530.531200
    312    310    664     1   123.0500530 620.905600
    313    311    689     1   123.0500530 620.905600
    316    319    339     1   111.6100477 551.451200
    316    322    323     1   112.3500484 533.878400
    316    322    326     1   112.3500484 533.878400
    319    316    322     1   111.0400475 552.288000
    322    323    332     1   111.0400475 552.288000
    322    326    329     1   111.0400475 552.288000
    323    322    326     1   112.3500484 533.878400
    323    332    336     1   111.0400475 529.694400
    326    329    335     1   111.0400475 529.694400
    329    335    337     1   123.2000528 564.003200
    329    335    714     1   115.1800491 558.982400
    332    336    338     1   123.2000528 564.003200
    332    336    739     1   115.1800491 558.982400
    335    714    694     1   120.6900519 530.531200
    336    739    719     1   120.6900519 530.531200
    337    335    714     1   123.0500530 620.905600
    338    336    739     1   123.0500530 620.905600
    341    344    364     1   111.6100477 551.451200
    341    347    348     1   112.3500484 533.878400
    341    347    351     1   112.3500484 533.878400
    344    341    347     1   111.0400475 552.288000
    347    348    357     1   111.0400475 552.288000
    347    351    354     1   111.0400475 552.288000
    348    347    351     1   112.3500484 533.878400
    348    357    361     1   111.0400475 529.694400
    351    354    360     1   111.0400475 529.694400
    354    360    362     1   123.2000528 564.003200
    354    360    764     1   115.1800491 558.982400
    357    361    363     1   123.2000528 564.003200
    357    361    789     1   115.1800491 558.982400
    360    764    744     1   120.6900519 530.531200
    361    789    769     1   120.6900519 530.531200
    362    360    764     1   123.0500530 620.905600
    363    361    789     1   123.0500530 620.905600
    366    369    389     1   111.6100477 551.451200
    366    372    373     1   112.3500484 533.878400
    366    372    376     1   112.3500484 533.878400
    369    366    372     1   111.0400475 552.288000
    372    373    382     1   111.0400475 552.288000
    372    376    379     1   111.0400475 552.288000
    373    372    376     1   112.3500484 533.878400
    373    382    386     1   111.0400475 529.694400
    376    379    385     1   111.0400475 529.694400
    379    385    387     1   123.2000528 564.003200
    379    385    814     1   115.1800491 558.982400
    382    386    388     1   123.2000528 564.003200
    382    386    839     1   115.1800491 558.982400
    385    814    794     1   120.6900519 530.531200
    386    839    819     1   120.6900519 530.531200
    387    385    814     1   123.0500530 620.905600
    388    386    839     1   123.0500530 620.905600
    391    394    414     1   111.6100477 551.451200
    391    397    398     1   112.3500484 533.878400
    391    397    401     1   112.3500484 533.878400
    394    391    397     1   111.0400475 552.288000
    397    398    407     1   111.0400475 552.288000
    397    401    404     1   111.0400475 552.288000
    398    397    401     1   112.3500484 533.878400
    398    407    411     1   111.0400475 529.694400
    401    404    410     1   111.0400475 529.694400
    404    410    412     1   123.2000528 564.003200
    404    410    864     1   115.1800491 558.982400
    407    411    413     1   123.2000528 564.003200
    407    411    889     1   115.1800491 558.982400
    410    864    844     1   120.6900519 530.531200
    411    889    869     1   120.6900519 530.531200
    412    410    864     1   123.0500530 620.905600
    413    411    889     1   123.0500530 620.905600
    416    419    439     1   111.6100477 551.451200
    416    422    423     1   112.3500484 533.878400
    416    422    426     1   112.3500484 533.878400
    419    416    422     1   111.0400475 552.288000
    422    423    432     1   111.0400475 552.288000
    422    426    429     1   111.0400475 552.288000
    423    422    426     1   112.3500484 533.878400
    423    432    436     1   111.0400475 529.694400
    426    429    435     1   111.0400475 529.694400
    429    435    437     1   123.2000528 564.003200
    429    435    914     1   115.1800491 558.982400
    432    436    438     1   123.2000528 564.003200
    432    436    939     1   115.1800491 558.982400
    435    914    894     1   120.6900519 530.531200
    436    939    919     1   120.6900519 530.531200
    437    435    914     1   123.0500530 620.905600
    438    436    939     1   123.0500530 620.905600
    441    444    464     1   111.6100477 551.451200
    441    447    448     1   112.3500484 533.878400
    441    447    451     1   112.3500484 533.878400
    444    441    447     1   111.0400475 552.288000
    447    448    457     1   111.0400475 552.288000
    447    451    454     1   111.0400475 552.288000
    448    447    451     1   112.3500484 533.878400
    448    457    461     1   111.0400475 529.694400
    451    454    460     1   111.0400475 529.694400
    454    460    462     1   123.2000528 564.003200
    454    460    964     1   115.1800491 558.982400
    457    461    463     1   123.2000528 564.003200
    457    461    989     1   115.1800491 558.982400
    460    964    944     1   120.6900519 530.531200
    461    989    969     1   120.6900519 530.531200
    462    460    964     1   123.0500530 620.905600
    463    461    989     1   123.0500530 620.905600
    466    469    489     1   111.6100477 551.451200
    466    472    473     1   112.3500484 533.878400
    466    472    476     1   112.3500484 533.878400
    469    466    472     1   111.0400475 552.288000
    472    473    482     1   111.0400475 552.288000
    472    476    479     1   111.0400475 552.288000
    473    472    476     1   112.3500484 533.878400
    473    482    486     1   111.0400475 529.694400
    476    479    485     1   111.0400475 529.694400
    479    485    487     1   123.2000528 564.003200
    479    485   1014     1   115.1800491 558.982400
    482    486    488     1   123.2000528 564.003200
    482    486   1039     1   115.1800491 558.982400
    485   1014    994     1   120.6900519 530.531200
    486   1039   1019     1   120.6900519 530.531200
    487    485   1014     1   123.0500530 620.905600
    488    486   1039     1   123.0500530 620.905600
    491    494    514     1   111.6100477 551.451200
    491    497    498     1   112.3500484 533.878400
    491    497    501     1   112.3500484 533.878400
    494    491    497     1   111.0400475 552.288000
    497    498    507     1   111.0400475 552.288000
    497    501    504     1   111.0400475 552.288000
    498    497    501     1   112.3500484 533.878400
    498    507    511     1   111.0400475 529.694400
    501    504    510     1   111.0400475 529.694400
    504    510    512     1   123.2000528 564.003200
    504    510   1064     1   115.1800491 558.982400
    507    511    513     1   123.2000528 564.003200
    507    511   1089     1   115.1800491 558.982400
    510   1064   1044     1   120.6900519 530.531200
    511   1089   1069     1   120.6900519 530.531200
    512    510   1064     1   123.0500530 620.905600
    513    511   1089     1   123.0500530 620.905600
    516    519    539     1   111.6100477 551.451200
    516    522    523     1   112.3500484 533.878400
    516    522    526     1   112.3500484 533.878400
    519    516    522     1   111.0400475 552.288000
    522    523    532     1   111.0400475 552.288000
    522    526    529     1   111.0400475 552.288000
    523    522    526     1   112.3500484 533.878400
    523    532    536     1   111.0400475 529.694400
    526    529    535     1   111.0400475 529.694400
    529    535    537     1   123.2000528 564.003200
    529    535   1114     1   115.1800491 558.982400
    532    536    538     1   123.2000528 564.003200
    532    536   1139     1   115.1800491 558.982400
    535   1114   1094     1   120.6900519 530.531200
    536   1139   1119     1   120.6900519 530.531200
    537    535   1114     1   123.0500530 620.905600
    538    536   1139     1   123.0500530 620.905600
    541    544    564     1   111.6100477 551.451200
    541    547    548     1   112.3500484 533.878400
    541    547    551     1   112.3500484 533.878400
    544    541    547     1   111.0400475 552.288000
    547    548    557     1   111.0400475 552.288000
    547    551    554     1   111.0400475 552.288000
    548    547    551     1   112.3500484 533.878400
    548    557    561     1   111.0400475 529.694400
    551    554    560     1   111.0400475 529.694400
    554    560    562     1   123.2000528 564.003200
    554    560   1164     1   115.1800491 558.982400
    557    561    563     1   123.2000528 564.003200
    557    561   1189     1   115.1800491 558.982400
    560   1164   1144     1   120.6900519 530.531200
    561   1189   1169     1   120.6900519 530.531200
    562    560   1164     1   123.0500530 620.905600
    563    561   1189     1   123.0500530 620.905600
    566    569    589     1   111.6100477 551.451200
    566    572    573     1   112.3500484 533.878400
    566    572    576     1   112.3500484 533.878400
    569    566    572     1   111.0400475 552.288000
    572    573    582     1   111.0400475 552.288000
    572    576    579     1   111.0400475 552.288000
    573    572    576     1   112.3500484 533.878400
    573    582    586     1   111.0400475 529.694400
    576    579    585     1   111.0400475 529.694400
    579    585    587     1   123.2000528 564.003200
    579    585   1214     1   115.1800491 558.982400
    582    586    588     1   123.2000528 564.003200
    582    586   1239     1   115.1800491 558.982400
    585   1214   1194     1   120.6900519 530.531200
    586   1239   1219     1   120.6900519 530.531200
    587    585   1214     1   123.0500530 620.905600
    588    586   1239     1   123.0500530 620.905600
    591    594    614     1   111.6100477 551.451200
    591    597    598     1   112.3500484 533.878400
    591    597    601     1   112.3500484 533.878400
    594    591    597     1   111.0400475 552.288000
    597    598    607     1   111.0400475 552.288000
    597    601    604     1   111.0400475 552.288000
    598    597    601     1   112.3500484 533.878400
    598    607    611     1   111.0400475 529.694400
    601    604    610     1   111.0400475 529.694400
    604    610    612     1   123.2000528 564.003200
    604    610   1264     1   115.1800491 558.982400
    607    611    613     1   123.2000528 564.003200
    607    611   1289     1   115.1800491 558.982400
    610   1264   1244     1   120.6900519 530.531200
    611   1289   1269     1   120.6900519 530.531200
    612    610   1264     1   123.0500530 620.905600
    613    611   1289     1   123.0500530 620.905600
    616    619    639     1   111.6100477 551.451200
    616    622    623     1   112.3500484 533.878400
    616    622    626     1   112.3500484 533.878400
    619    616    622     1   111.0400475 552.288000
    622    623    632     1   111.0400475 552.288000
    622    626    629     1   111.0400475 552.288000
    623    622    626     1   112.3500484 533.878400
    623    632    636     1   111.0400475 529.694400
    626    629    635     1   111.0400475 529.694400
    629    635    637     1   123.2000528 564.003200
    629    635   1314     1   115.1800491 558.982400
    632    636    638     1   123.2000528 564.003200
    632    636   1339     1   115.1800491 558.982400
    635   1314   1294     1   120.6900519 530.531200
    636   1339   1319     1   120.6900519 530.531200
    637    635   1314     1   123.0500530 620.905600
    638    636   1339     1   123.0500530 620.905600
    641    644    664     1   111.6100477 551.451200
    641    647    648     1   112.3500484 533.878400
    641    647    651     1   112.3500484 533.878400
    644    641    647     1   111.0400475 552.288000
    647    648    657     1   111.0400475 552.288000
    647    651    654     1   111.0400475 552.288000
    648    647    651     1   112.3500484 533.878400
    648    657    661     1   111.0400475 529.694400
    651    654    660     1   111.0400475 529.694400
    654    660    662     1   123.2000528 564.003200
    654    660   1364     1   115.1800491 558.982400
    657    661    663     1   123.2000528 564.003200
    657    661   1389     1   115.1800491 558.982400
    660   1364   1344     1   120.6900519 530.531200
    661   1389   1369     1   120.6900519 530.531200
    662    660   1364     1   123.0500530 620.905600
    663    661   1389     1   123.0500530 620.905600
    666    669    689     1   111.6100477 551.451200
    666    672    673     1   112.3500484 533.878400
    666    672    676     1   112.3500484 533.878400
    669    666    672     1   111.0400475 552.288000
    672    673    682     1   111.0400475 552.288000
    672    676    679     1   111.0400475 552.288000
    673    672    676     1   112.3500484 533.878400
    673    682    686     1   111.0400475 529.694400
    676    679    685     1   111.0400475 529.694400
    679    685    687     1   123.2000528 564.003200
    679    685   1414     1   115.1800491 558.982400
    682    686    688     1   123.2000528 564.003200
    682    686   1439     1   115.1800491 558.982400
    685   1414   1394     1   120.6900519 530.531200
    686   1439   1419     1   120.6900519 530.531200
    687    685   1414     1   123.0500530 620.905600
    688    686   1439     1   123.0500530 620.905600
    691    694    714     1   111.6100477 551.451200
    691    697    698     1   112.3500484 533.878400
    691    697    701     1   112.3500484 533.878400
    694    691    697     1   111.0400475 552.288000
    697    698    707     1   111.0400475 552.288000
    697    701    704     1   111.0400475 552.288000
    698    697    701     1   112.3500484 533.878400
    698    707    711     1   111.0400475 529.694400
    701    704    710     1   111.0400475 529.694400
    704    710    712     1   123.2000528 564.003200
    704    710   1464     1   115.1800491 558.982400
    707    711    713     1   123.2000528 564.003200
    707    711   1489     1   115.1800491 558.982400
    710   1464   1444     1   120.6900519 530.531200
    711   1489   1469     1   120.6900519 530.531200
    712    710   1464     1   123.0500530 620.905600
    713    711   1489     1   123.0500530 620.905600
    716    719    739     1   111.6100477 551.451200
    716    722    723     1   112.3500484 533.878400
    716    722    726     1   112.3500484 533.878400
    719    716    722     1   111.0400475 552.288000
    722    723    732     1   111.0400475 552.288000
    722    726    729     1   111.0400475 552.288000
    723    722    726     1   112.3500484 533.878400
    723    732    736     1   111.0400475 529.694400
    726    729    735     1   111.0400475 529.694400
    729    735    737     1   123.2000528 564.003200
    729    735   1514     1   115.1800491 558.982400
    732    736    738     1   123.2000528 564.003200
    732    736   1539     1   115.1800491 558.982400
    735   1514   1494     1   120.6900519 530.531200
    736   1539   1519     1   120.6900519 530.531200
    737    735   1514     1   123.0500530 620.905600
    738    736   1539     1   123.0500530 620.905600
    741    744    764     1   111.6100477 551.451200
    741    747    748     1   112.3500484 533.878400
    741    747    751     1   112.3500484 533.878400
    744    741    747     1   111.0400475 552.288000
    747    748    757     1   111.0400475 552.288000
    747    751    754     1   111.0400475 552.288000
    748    747    751     1   112.3500484 533.878400
    748    757    761     1   111.0400475 529.694400
    751    754    760     1   111.0400475 529.694400
    754    760    762     1   123.2000528 564.003200
    754    760   1564     1   115.1800491 558.982400
    757    761    763     1   123.2000528 564.003200
    757    761   1589     1   115.1800491 558.982400
    760   1564   1544     1   120.6900519 530.531200
    761   1589   1569     1   120.6900519 530.531200
    762    760   1564     1   123.0500530 620.905600
    763    761   1589     1   123.0500530 620.905600
    766    769    789     1   111.6100477 551.451200
    766    772    773     1   112.3500484 533.878400
    766    772    776     1   112.3500484 533.878400
    769    766    772     1   111.0400475 552.288000
    772    773    782     1   111.0400475 552.288000
    772    776    779     1   111.0400475 552.288000
    773    772    776     1   112.3500484 533.878400
    773    782    786     1   111.0400475 529.694400
    776    779    785     1   111.0400475 529.694400
    779    785    787     1   123.2000528 564.003200
    779    785   1614     1   115.1800491 558.982400
    782    786    788     1   123.2000528 564.003200
    782    786   1639     1   115.1800491 558.982400
    785   1614   1594     1   120.6900519 530.531200
    786   1639   1619     1   120.6900519 530.531200
    787    785   1614     1   123.0500530 620.905600
    788    786   1639     1   123.0500530 620.905600
    791    794    814     1   111.6100477 551.451200
    791    797    798     1   112.3500484 533.878400
    791    797    801     1   112.3500484 533.878400
    794    791    797     1   111.0400475 552.288000
    797    798    807     1   111.0400475 552.288000
    797    801    804     1   111.0400475 552.288000
    798    797    801     1   112.3500484 533.878400
    798    807    811     1   111.0400475 529.694400
    801    804    810     1   111.0400475 529.694400
    804    810    812     1   123.2000528 564.003200
    804    810   1664     1   115.1800491 558.982400
    807    811    813     1   123.2000528 564.003200
    807    811   1689     1   115.1800491 558.982400
    810   1664   1644     1   120.6900519 530.531200
    811   1689   1669     1   120.6900519 530.531200
    812    810   1664     1   123.0500530 620.905600
    813    811   1689     1   123.0500530 620.905600
    816    819    839     1   111.6100477 551.451200
    816    822    823     1   112.3500484 533.878400
    816    822    826     1   112.3500484 533.878400
    819    816    822     1   111.0400475 552.288000
    822    823    832     1   111.0400475 552.288000
    822    826    829     1   111.0400475 552.288000
    823    822    826     1   112.3500484 533.878400
    823    832    836     1   111.0400475 529.694400
    826    829    835     1   111.0400475 529.694400
    829    835    837     1   123.2000528 564.003200
    829    835   1714     1   115.1800491 558.982400
    832    836    838     1   123.2000528 564.003200
    832    836   1739     1   115.1800491 558.982400
    835   1714   1694     1   120.6900519 530.531200
    836   1739   1719     1   120.6900519 530.531200
    837    835   1714     1   123.0500530 620.905600
    838    836   1739     1   123.0500530 620.905600
    841    844    864     1   111.6100477 551.451200
    841    847    848     1   112.3500484 533.878400
    841    847    851     1   112.3500484 533.878400
    844    841    847     1   111.0400475 552.288000
    847    848    857     1   111.0400475 552.288000
    847    851    854     1   111.0400475 552.288000
    848    847    851     1   112.3500484 533.878400
    848    857    861     1   111.0400475 529.694400
    851    854    860     1   111.0400475 529.694400
    854    860    862     1   123.2000528 564.003200
    854    860   1764     1   115.1800491 558.982400
    857    861    863     1   123.2000528 564.003200
    857    861   1789     1   115.1800491 558.982400
    860   1764   1744     1   120.6900519 530.531200
    861   1789   1769     1   120.6900519 530.531200
    862    860   1764     1   123.0500530 620.905600
    863    861   1789     1   123.0500530 620.905600
    866    869    889     1   111.6100477 551.451200
    866    872    873     1   112.3500484 533.878400
    866    872    876     1   112.3500484 533.878400
    869    866    872     1   111.0400475 552.288000
    872    873    882     1   111.0400475 552.288000
    872    876    879     1   111.0400475 552.288000
    873    872    876     1   112.3500484 533.878400
    873    882    886     1   111.0400475 529.694400
    876    879    885     1   111.0400475 529.694400
    879    885    887     1   123.2000528 564.003200
    879    885   1814     1   115.1800491 558.982400
    882    886    888     1   123.2000528 564.003200
    882    886   1839     1   115.1800491 558.982400
    885   1814   1794     1   120.6900519 530.531200
    886   1839   1819     1   120.6900519 530.531200
    887    885   1814     1   123.0500530 620.905600
    888    886   1839     1   123.0500530 620.905600
    891    894    914     1   111.6100477 551.451200
    891    897    898     1   112.3500484 533.878400
    891    897    901     1   112.3500484 533.878400
    894    891    897     1   111.0400475 552.288000
    897    898    907     1   111.0400475 552.288000
    897    901    904     1   111.0400475 552.288000
    898    897    901     1   112.3500484 533.878400
    898    907    911     1   111.0400475 529.694400
    901    904    910     1   111.0400475 529.694400
    904    910    912     1   123.2000528 564.003200
    904    910   1864     1   115.1800491 558.982400
    907    911    913     1   123.2000528 564.003200
    907    911   1889     1   115.1800491 558.982400
    910   1864   1844     1   120.6900519 530.531200
    911   1889   1869     1   120.6900519 530.531200
    912    910   1864     1   123.0500530 620.905600
    913    911   1889     1   123.0500530 620.905600
    916    919    939     1   111.6100477 551.451200
    916    922    923     1   112.3500484 533.878400
    916    922    926     1   112.3500484 533.878400
    919    916    922     1   111.0400475 552.288000
    922    923    932     1   111.0400475 552.288000
    922    926    929     1   111.0400475 552.288000
    923    922    926     1   112.3500484 533.878400
    923    932    936     1   111.0400475 529.694400
    926    929    935     1   111.0400475 529.694400
    929    935    937     1   123.2000528 564.003200
    929    935   1914     1   115.1800491 558.982400
    932    936    938     1   123.2000528 564.003200
    932    936   1939     1   115.1800491 558.982400
    935   1914   1894     1   120.6900519 530.531200
    936   1939   1919     1   120.6900519 530.531200
    937    935   1914     1   123.0500530 620.905600
    938    936   1939     1   123.0500530 620.905600
    941    944    964     1   111.6100477 551.451200
    941    947    948     1   112.3500484 533.878400
    941    947    951     1   112.3500484 533.878400
    944    941    947     1   111.0400475 552.288000
    947    948    957     1   111.0400475 552.288000
    947    951    954     1   111.0400475 552.288000
    948    947    951     1   112.3500484 533.878400
    948    957    961     1   111.0400475 529.694400
    951    954    960     1   111.0400475 529.694400
    954    960    962     1   123.2000528 564.003200
    954    960   1964     1   115.1800491 558.982400
    957    961    963     1   123.2000528 564.003200
    957    961   1989     1   115.1800491 558.982400
    960   1964   1944     1   120.6900519 530.531200
    961   1989   1969     1   120.6900519 530.531200
    962    960   1964     1   123.0500530 620.905600
    963    961   1989     1   123.0500530 620.905600
    966    969    989     1   111.6100477 551.451200
    966    972    973     1   112.3500484 533.878400
    966    972    976     1   112.3500484 533.878400
    969    966    972     1   111.0400475 552.288000
    972    973    982     1   111.0400475 552.288000
    972    976    979     1   111.0400475 552.288000
    973    972    976     1   112.3500484 533.878400
    973    982    986     1   111.0400475 529.694400
    976    979    985     1   111.0400475 529.694400
    979    985    987     1   123.2000528 564.003200
    979    985   2014     1   115.1800491 558.982400
    982    986    988     1   123.2000528 564.003200
    982    986   2039     1   115.1800491 558.982400
    985   2014   1994     1   120.6900519 530.531200
    986   2039   2019     1   120.6900519 530.531200
    987    985   2014     1   123.0500530 620.905600
    988    986   2039     1   123.0500530 620.905600
    991    994   1014     1   111.6100477 551.451200
    991    997    998     1   112.3500484 533.878400
    991    997   1001     1   112.3500484 533.878400
    994    991    997     1   111.0400475 552.288000
    997    998   1007     1   111.0400475 552.288000
    997   1001   1004     1   111.0400475 552.288000
    998    997   1001     1   112.3500484 533.878400
    998   1007   1011     1   111.0400475 529.694400
   1001   1004   1010     1   111.0400475 529.694400
   1004   1010   1012     1   123.2000528 564.003200
   1004   1010   2064     1   115.1800491 558.982400
   1007   1011   1013     1   123.2000528 564.003200
   1007   1011   2089     1   115.1800491 558.982400
   1010   2064   2044     1   120.6900519 530.531200
   1011   2089   2069     1   120.6900519 530.531200
   1012   1010   2064     1   123.0500530 620.905600
   1013   1011   2089     1   123.0500530 620.905600
   1016   1019   1039     1   111.6100477 551.451200
   1016   1022   1023     1   112.3500484 533.878400
   1016   1022   1026     1   112.3500484 533.878400
   1019   1016   1022     1   111.0400475 552.288000
   1022   1023   1032     1   111.0400475 552.288000
   1022   1026   1029     1   111.0400475 552.288000
   1023   1022   1026     1   112.3500484 533.878400
   1023   1032   1036     1   111.0400475 529.694400
   1026   1029   1035     1   111.0400475 529.694400
   1029   1035   1037     1   123.2000528 564.003200
   1029   1035   2114     1   115.1800491 558.982400
   1032   1036   1038     1   123.2000528 564.003200
   1032   1036   2139     1   115.1800491 558.982400
   1035   2114   2094     1   120.6900519 530.531200
   1036   2139   2119     1   120.6900519 530.531200
   1037   1035   2114     1   123.0500530 620.905600
   1038   1036   2139     1   123.0500530 620.905600
   1041   1044   1064     1   111.6100477 551.451200
   1041   1047   1048     1   112.3500484 533.878400
   1041   1047   1051     1   112.3500484 533.878400
   1044   1041   1047     1   111.0400475 552.288000
   1047   1048   1057     1   111.0400475 552.288000
   1047   1051   1054     1   111.0400475 552.288000
   1048   1047   1051     1   112.3500484 533.878400
   1048   1057   1061     1   111.0400475 529.694400
   1051   1054   1060     1   111.0400475 529.694400
   1054   1060   1062     1   123.2000528 564.003200
   1054   1060   2164     1   115.1800491 558.982400
   1057   1061   1063     1   123.2000528 564.003200
   1057   1061   2189     1   115.1800491 558.982400
   1060   2164   2144     1   120.6900519 530.531200
   1061   2189   2169     1   120.6900519 530.531200
   1062   1060   2164     1   123.0500530 620.905600
   1063   1061   2189     1   123.0500530 620.905600
   1066   1069   1089     1   111.6100477 551.451200
   1066   1072   1073     1   112.3500484 533.878400
   1066   1072   1076     1   112.3500484 533.878400
   1069   1066   1072     1   111.0400475 552.288000
   1072   1073   1082     1   111.0400475 552.288000
   1072   1076   1079     1   111.0400475 552.288000
   1073   1072   1076     1   112.3500484 533.878400
   1073   1082   1086     1   111.0400475 529.694400
   1076   1079   1085     1   111.0400475 529.694400
   1079   1085   1087     1   123.2000528 564.003200
   1079   1085   2214     1   115.1800491 558.982400
   1082   1086   1088     1   123.2000528 564.003200
   1082   1086   2239     1   115.1800491 558.982400
   1085   2214   2194     1   120.6900519 530.531200
   1086   2239   2219     1   120.6900519 530.531200
   1087   1085   2214     1   123.0500530 620.905600
   1088   1086   2239     1   123.0500530 620.905600
   1091   1094   1114     1   111.6100477 551.451200
   1091   1097   1098     1   112.3500484 533.878400
   1091   1097   1101     1   112.3500484 533.878400
   1094   1091   1097     1   111.0400475 552.288000
   1097   1098   1107     1   111.0400475 552.288000
   1097   1101   1104     1   111.0400475 552.288000
   1098   1097   1101     1   112.3500484 533.878400
   1098   1107   1111     1   111.0400475 529.694400
   1101   1104   1110     1   111.0400475 529.694400
   1104   1110   1112     1   123.2000528 564.003200
   1104   1110   2264     1   115.1800491 558.982400
   1107   1111   1113     1   123.2000528 564.003200
   1107   1111   2289     1   115.1800491 558.982400
   1110   2264   2244     1   120.6900519 530.531200
   1111   2289   2269     1   120.6900519 530.531200
   1112   1110   2264     1   123.0500530 620.905600
   1113   1111   2289     1   123.0500530 620.905600
   1116   1119   1139     1   111.6100477 551.451200
   1116   1122   1123     1   112.3500484 533.878400
   1116   1122   1126     1   112.3500484 533.878400
   1119   1116   1122     1   111.0400475 552.288000
   1122   1123   1132     1   111.0400475 552.288000
   1122   1126   1129     1   111.0400475 552.288000
   1123   1122   1126     1   112.3500484 533.878400
   1123   1132   1136     1   111.0400475 529.694400
   1126   1129   1135     1   111.0400475 529.694400
   1129   1135   1137     1   123.2000528 564.003200
   1129   1135   2314     1   115.1800491 558.982400
   1132   1136   1138     1   123.2000528 564.003200
   1132   1136   2339     1   115.1800491 558.982400
   1135   2314   2294     1   120.6900519 530.531200
   1136   2339   2319     1   120.6900519 530.531200
   1137   1135   2314     1   123.0500530 620.905600
   1138   1136   2339     1   123.0500530 620.905600
   1141   1144   1164     1   111.6100477 551.451200
   1141   1147   1148     1   112.3500484 533.878400
   1141   1147   1151     1   112.3500484 533.878400
   1144   1141   1147     1   111.0400475 552.288000
   1147   1148   1157     1   111.0400475 552.288000
   1147   1151   1154     1   111.0400475 552.288000
   1148   1147   1151     1   112.3500484 533.878400
   1148   1157   1161     1   111.0400475 529.694400
   1151   1154   1160     1   111.0400475 529.694400
   1154   1160   1162     1   123.2000528 564.003200
   1154   1160   2364     1   115.1800491 558.982400
   1157   1161   1163     1   123.2000528 564.003200
   1157   1161   2389     1   115.1800491 558.982400
   1160   2364   2344     1   120.6900519 530.531200
   1161   2389   2369     1   120.6900519 530.531200
   1162   1160   2364     1   123.0500530 620.905600
   1163   1161   2389     1   123.0500530 620.905600
   1166   1169   1189     1   111.6100477 551.451200
   1166   1172   1173     1   112.3500484 533.878400
   1166   1172   1176     1   112.3500484 533.878400
   1169   1166   1172     1   111.0400475 552.288000
   1172   1173   1182     1   111.0400475 552.288000
   1172   1176   1179     1   111.0400475 552.288000
   1173   1172   1176     1   112.3500484 533.878400
   1173   1182   1186     1   111.0400475 529.694400
   1176   1179   1185     1   111.0400475 529.694400
   1179   1185   1187     1   123.2000528 564.003200
   1179   1185   2414     1   115.1800491 558.982400
   1182   1186   1188     1   123.2000528 564.003200
   1182   1186   2439     1   115.1800491 558.982400
   1185   2414   2394     1   120.6900519 530.531200
   1186   2439   2419     1   120.6900519 530.531200
   1187   1185   2414     1   123.0500530 620.905600
   1188   1186   2439     1   123.0500530 620.905600
   1191   1194   1214     1   111.6100477 551.451200
   1191   1197   1198     1   112.3500484 533.878400
   1191   1197   1201     1   112.3500484 533.878400
   1194   1191   1197     1   111.0400475 552.288000
   1197   1198   1207     1   111.0400475 552.288000
   1197   1201   1204     1   111.0400475 552.288000
   1198   1197   1201     1   112.3500484 533.878400
   1198   1207   1211     1   111.0400475 529.694400
   1201   1204   1210     1   111.0400475 529.694400
   1204   1210   1212     1   123.2000528 564.003200
   1204   1210   2464     1   115.1800491 558.982400
   1207   1211   1213     1   123.2000528 564.003200
   1207   1211   2489     1   115.1800491 558.982400
   1210   2464   2444     1   120.6900519 530.531200
   1211   2489   2469     1   120.6900519 530.531200
   1212   1210   2464     1   123.0500530 620.905600
   1213   1211   2489     1   123.0500530 620.905600
   1216   1219   1239     1   111.6100477 551.451200
   1216   1222   1223     1   112.3500484 533.878400
   1216   1222   1226     1   112.3500484 533.878400
   1219   1216   1222     1   111.0400475 552.288000
   1222   1223   1232     1   111.0400475 552.288000
   1222   1226   1229     1   111.0400475 552.288000
   1223   1222   1226     1   112.3500484 533.878400
   1223   1232   1236     1   111.0400475 529.694400
   1226   1229   1235     1   111.0400475 529.694400
   1229   1235   1237     1   123.2000528 564.003200
   1229   1235   2514     1   115.1800491 558.982400
   1232   1236   1238     1   123.2000528 564.003200
   1232   1236   2539     1   115.1800491 558.982400
   1235   2514   2494     1   120.6900519 530.531200
   1236   2539   2519     1   120.6900519 530.531200
   1237   1235   2514     1   123.0500530 620.905600
   1238   1236   2539     1   123.0500530 620.905600
   1241   1244   1264     1   111.6100477 551.451200
   1241   1247   1248     1   112.3500484 533.878400
   1241   1247   1251     1   112.3500484 533.878400
   1244   1241   1247     1   111.0400475 552.288000
   1247   1248   1257     1   111.0400475 552.288000
   1247   1251   1254     1   111.0400475 552.288000
   1248   1247   1251     1   112.3500484 533.878400
   1248   1257   1261     1   111.0400475 529.694400
   1251   1254   1260     1   111.0400475 529.694400
   1254   1260   1262     1   123.2000528 564.003200
   1254   1260   2564     1   115.1800491 558.982400
   1257   1261   1263     1   123.2000528 564.003200
   1257   1261   2589     1   115.1800491 558.982400
   1260   2564   2544     1   120.6900519 530.531200
   1261   2589   2569     1   120.6900519 530.531200
   1262   1260   2564     1   123.0500530 620.905600
   1263   1261   2589     1   123.0500530 620.905600
   1266   1269   1289     1   111.6100477 551.451200
   1266   1272   1273     1   112.3500484 533.878400
   1266   1272   1276     1   112.3500484 533.878400
   1269   1266   1272     1   111.0400475 552.288000
   1272   1273   1282     1   111.0400475 552.288000
   1272   1276   1279     1   111.0400475 552.288000
   1273   1272   1276     1   112.3500484 533.878400
   1273   1282   1286     1   111.0400475 529.694400
   1276   1279   1285     1   111.0400475 529.694400
   1279   1285   1287     1   123.2000528 564.003200
   1279   1285   2614     1   115.1800491 558.982400
   1282   1286   1288     1   123.2000528 564.003200
   1282   1286   2639     1   115.1800491 558.982400
   1285   2614   2594     1   120.6900519 530.531200
   1286   2639   2619     1   120.6900519 530.531200
   1287   1285   2614     1   123.0500530 620.905600
   1288   1286   2639     1   123.0500530 620.905600
   1291   1294   1314     1   111.6100477 551.451200
   1291   1297   1298     1   112.3500484 533.878400
   1291   1297   1301     1   112.3500484 533.878400
   1294   1291   1297     1   111.0400475 552.288000
   1297   1298   1307     1   111.0400475 552.288000
   1297   1301   1304     1   111.0400475 552.288000
   1298   1297   1301     1   112.3500484 533.878400
   1298   1307   1311     1   111.0400475 529.694400
   1301   1304   1310     1   111.0400475 529.694400
   1304   1310   1312     1   123.2000528 564.003200
   1304   1310   2664     1   115.1800491 558.982400
   1307   1311   1313     1   123.2000528 564.003200
   1307   1311   2689     1   115.1800491 558.982400
   1310   2664   2644     1   120.6900519 530.531200
   1311   2689   2669     1   120.6900519 530.531200
   1312   1310   2664     1   123.0500530 620.905600
   1313   1311   2689     1   123.0500530 620.905600
   1316   1319   1339     1   111.6100477 551.451200
   1316   1322   1323     1   112.3500484 533.878400
   1316   1322   1326     1   112.3500484 533.878400
   1319   1316   1322     1   111.0400475 552.288000
   1322   1323   1332     1   111.0400475 552.288000
   1322   1326   1329     1   111.0400475 552.288000
   1323   1322   1326     1   112.3500484 533.878400
   1323   1332   1336     1   111.0400475 529.694400
   1326   1329   1335     1   111.0400475 529.694400
   1329   1335   1337     1   123.2000528 564.003200
   1329   1335   2714     1   115.1800491 558.982400
   1332   1336   1338     1   123.2000528 564.003200
   1332   1336   2739     1   115.1800491 558.982400
   1335   2714   2694     1   120.6900519 530.531200
   1336   2739   2719     1   120.6900519 530.531200
   1337   1335   2714     1   123.0500530 620.905600
   1338   1336   2739     1   123.0500530 620.905600
   1341   1344   1364     1   111.6100477 551.451200
   1341   1347   1348     1   112.3500484 533.878400
   1341   1347   1351     1   112.3500484 533.878400
   1344   1341   1347     1   111.0400475 552.288000
   1347   1348   1357     1   111.0400475 552.288000
   1347   1351   1354     1   111.0400475 552.288000
   1348   1347   1351     1   112.3500484 533.878400
   1348   1357   1361     1   111.0400475 529.694400
   1351   1354   1360     1   111.0400475 529.694400
   1354   1360   1362     1   123.2000528 564.003200
   1354   1360   2764     1   115.1800491 558.982400
   1357   1361   1363     1   123.2000528 564.003200
   1357   1361   2789     1   115.1800491 558.982400
   1360   2764   2744     1   120.6900519 530.531200
   1361   2789   2769     1   120.6900519 530.531200
   1362   1360   2764     1   123.0500530 620.905600
   1363   1361   2789     1   123.0500530 620.905600
   1366   1369   1389     1   111.6100477 551.451200
   1366   1372   1373     1   112.3500484 533.878400
   1366   1372   1376     1   112.3500484 533.878400
   1369   1366   1372     1   111.0400475 552.288000
   1372   1373   1382     1   111.0400475 552.288000
   1372   1376   1379     1   111.0400475 552.288000
   1373   1372   1376     1   112.3500484 533.878400
   1373   1382   1386     1   111.0400475 529.694400
   1376   1379   1385     1   111.0400475 529.694400
   1379   1385   1387     1   123.2000528 564.003200
   1379   1385   2814     1   115.1800491 558.982400
   1382   1386   1388     1   123.2000528 564.003200
   1382   1386   2839     1   115.1800491 558.982400
   1385   2814   2794     1   120.6900519 530.531200
   1386   2839   2819     1   120.6900519 530.531200
   1387   1385   2814     1   123.0500530 620.905600
   1388   1386   2839     1   123.0500530 620.905600
   1391   1394   1414     1   111.6100477 551.451200
   1391   1397   1398     1   112.3500484 533.878400
   1391   1397   1401     1   112.3500484 533.878400
   1394   1391   1397     1   111.0400475 552.288000
   1397   1398   1407     1   111.0400475 552.288000
   1397   1401   1404     1   111.0400475 552.288000
   1398   1397   1401     1   112.3500484 533.878400
   1398   1407   1411     1   111.0400475 529.694400
   1401   1404   1410     1   111.0400475 529.694400
   1404   1410   1412     1   123.2000528 564.003200
   1404   1410   2864     1   115.1800491 558.982400
   1407   1411   1413     1   123.2000528 564.003200
   1407   1411   2889     1   115.1800491 558.982400
   1410   2864   2844     1   120.6900519 530.531200
   1411   2889   2869     1   120.6900519 530.531200
   1412   1410   2864     1   123.0500530 620.905600
   1413   1411   2889     1   123.0500530 620.905600
   1416   1419   1439     1   111.6100477 551.451200
   1416   1422   1423     1   112.3500484 533.878400
   1416   1422   1426     1   112.3500484 533.878400
   1419   1416   1422     1   111.0400475 552.288000
   1422   1423   1432     1   111.0400475 552.288000
   1422   1426   1429     1   111.0400475 552.288000
   1423   1422   1426     1   112.3500484 533.878400
   1423   1432   1436     1   111.0400475 529.694400
   1426   1429   1435     1   111.0400475 529.694400
   1429   1435   1437     1   123.2000528 564.003200
   1429   1435   2914     1   115.1800491 558.982400
   1432   1436   1438     1   123.2000528 564.003200
   1432   1436   2939     1   115.1800491 558.982400
   1435   2914   2894     1   120.6900519 530.531200
   1436   2939   2919     1   120.6900519 530.531200
   1437   1435   2914     1   123.0500530 620.905600
   1438   1436   2939     1   123.0500530 620.905600
   1441   1444   1464     1   111.6100477 551.451200
   1441   1447   1448     1   112.3500484 533.878400
   1441   1447   1451     1   112.3500484 533.878400
   1444   1441   1447     1   111.0400475 552.288000
   1447   1448   1457     1   111.0400475 552.288000
   1447   1451   1454     1   111.0400475 552.288000
   1448   1447   1451     1   112.3500484 533.878400
   1448   1457   1461     1   111.0400475 529.694400
   1451   1454   1460     1   111.0400475 529.694400
   1454   1460   1462     1   123.2000528 564.003200
   1454   1460   2964     1   115.1800491 558.982400
   1457   1461   1463     1   123.2000528 564.003200
   1457   1461   2989     1   115.1800491 558.982400
   1460   2964   2944     1   120.6900519 530.531200
   1461   2989   2969     1   120.6900519 530.531200
   1462   1460   2964     1   123.0500530 620.905600
   1463   1461   2989     1   123.0500530 620.905600
   1466   1469   1489     1   111.6100477 551.451200
   1466   1472   1473     1   112.3500484 533.878400
   1466   1472   1476     1   112.3500484 533.878400
   1469   1466   1472     1   111.0400475 552.288000
   1472   1473   1482     1   111.0400475 552.288000
   1472   1476   1479     1   111.0400475 552.288000
   1473   1472   1476     1   112.3500484 533.878400
   1473   1482   1486     1   111.0400475 529.694400
   1476   1479   1485     1   111.0400475 529.694400
   1479   1485   1487     1   123.2000528 564.003200
   1479   1485   3014     1   115.1800491 558.982400
   1482   1486   1488     1   123.2000528 564.003200
   1482   1486   3039     1   115.1800491 558.982400
   1485   3014   2994     1   120.6900519 530.531200
   1486   3039   3019     1   120.6900519 530.531200
   1487   1485   3014     1   123.0500530 620.905600
   1488   1486   3039     1   123.0500530 620.905600
   1491   1494   1514     1   111.6100477 551.451200
   1491   1497   1498     1   112.3500484 533.878400
   1491   1497   1501     1   112.3500484 533.878400
   1494   1491   1497     1   111.0400475 552.288000
   1497   1498   1507     1   111.0400475 552.288000
   1497   1501   1504     1   111.0400475 552.288000
   1498   1497   1501     1   112.3500484 533.878400
   1498   1507   1511     1   111.0400475 529.694400
   1501   1504   1510     1   111.0400475 529.694400
   1504   1510   1512     1   123.2000528 564.003200
   1504   1510   3064     1   115.1800491 558.982400
   1507   1511   1513     1   123.2000528 564.003200
   1507   1511   3089     1   115.1800491 558.982400
   1510   3064   3044     1   120.6900519 530.531200
   1511   3089   3069     1   120.6900519 530.531200
   1512   1510   3064     1   123.0500530 620.905600
   1513   1511   3089     1   123.0500530 620.905600
   1516   1519   1539     1   111.6100477 551.451200
   1516   1522   1523     1   112.3500484 533.878400
   1516   1522   1526     1   112.3500484 533.878400
   1519   1516   1522     1   111.0400475 552.288000
   1522   1523   1532     1   111.0400475 552.288000
   1522   1526   1529     1   111.0400475 552.288000
   1523   1522   1526     1   112.3500484 533.878400
   1523   1532   1536     1   111.0400475 529.694400
   1526   1529   1535     1   111.0400475 529.694400
   1529   1535   1537     1   123.2000528 564.003200
   1529   1535   3114     1   115.1800491 558.982400
   1532   1536   1538     1   123.2000528 564.003200
   1532   1536   3139     1   115.1800491 558.982400
   1535   3114   3094     1   120.6900519 530.531200
   1536   3139   3119     1   120.6900519 530.531200
   1537   1535   3114     1   123.0500530 620.905600
   1538   1536   3139     1   123.0500530 620.905600
   1541   1544   1564     1   111.6100477 551.451200
   1541   1547   1548     1   112.3500484 533.878400
   1541   1547   1551     1   112.3500484 533.878400
   1544   1541   1547     1   111.0400475 552.288000
   1547   1548   1557     1   111.0400475 552.288000
   1547   1551   1554     1   111.0400475 552.288000
   1548   1547   1551     1   112.3500484 533.878400
   1548   1557   1561     1   111.0400475 529.694400
   1551   1554   1560     1   111.0400475 529.694400
   1554   1560   3141     1   115.1800491 558.982400
   1554   1560   1562     1   123.2000528 564.003200
   1557   1561   1563     1   123.2000528 564.003200
   1557   1561   3214     1   115.1800491 558.982400
   1560   3141   3143     1   120.6900519 530.531200
   1561   3214   3216     1   120.6900519 530.531200
   1562   1560   3141     1   123.0500530 620.905600
   1563   1561   3214     1   123.0500530 620.905600
   1566   1569   1589     1   111.6100477 551.451200
   1566   1572   1573     1   112.3500484 533.878400
   1566   1572   1576     1   112.3500484 533.878400
   1569   1566   1572     1   111.0400475 552.288000
   1572   1573   1582     1   111.0400475 552.288000
   1572   1576   1579     1   111.0400475 552.288000
   1573   1572   1576     1   112.3500484 533.878400
   1573   1582   1586     1   111.0400475 529.694400
   1576   1579   1585     1   111.0400475 529.694400
   1579   1585   3287     1   115.1800491 558.982400
   1579   1585   1587     1   123.2000528 564.003200
   1582   1586   1588     1   123.2000528 564.003200
   1582   1586   3360     1   115.1800491 558.982400
   1585   3287   3289     1   120.6900519 530.531200
   1586   3360   3362     1   120.6900519 530.531200
   1587   1585   3287     1   123.0500530 620.905600
   1588   1586   3360     1   123.0500530 620.905600
   1591   1594   1614     1   111.6100477 551.451200
   1591   1597   1598     1   112.3500484 533.878400
   1591   1597   1601     1   112.3500484 533.878400
   1594   1591   1597     1   111.0400475 552.288000
   1597   1598   1607     1   111.0400475 552.288000
   1597   1601   1604     1   111.0400475 552.288000
   1598   1597   1601     1   112.3500484 533.878400
   1598   1607   1611     1   111.0400475 529.694400
   1601   1604   1610     1   111.0400475 529.694400
   1604   1610   3433     1   115.1800491 558.982400
   1604   1610   1612     1   123.2000528 564.003200
   1607   1611   1613     1   123.2000528 564.003200
   1607   1611   3506     1   115.1800491 558.982400
   1610   3433   3435     1   120.6900519 530.531200
   1611   3506   3508     1   120.6900519 530.531200
   1612   1610   3433     1   123.0500530 620.905600
   1613   1611   3506     1   123.0500530 620.905600
   1616   1619   1639     1   111.6100477 551.451200
   1616   1622   1623     1   112.3500484 533.878400
   1616   1622   1626     1   112.3500484 533.878400
   1619   1616   1622     1   111.0400475 552.288000
   1622   1623   1632     1   111.0400475 552.288000
   1622   1626   1629     1   111.0400475 552.288000
   1623   1622   1626     1   112.3500484 533.878400
   1623   1632   1636     1   111.0400475 529.694400
   1626   1629   1635     1   111.0400475 529.694400
   1629   1635   3579     1   115.1800491 558.982400
   1629   1635   1637     1   123.2000528 564.003200
   1632   1636   1638     1   123.2000528 564.003200
   1632   1636   3652     1   115.1800491 558.982400
   1635   3579   3581     1   120.6900519 530.531200
   1636   3652   3654     1   120.6900519 530.531200
   1637   1635   3579     1   123.0500530 620.905600
   1638   1636   3652     1   123.0500530 620.905600
   1641   1644   1664     1   111.6100477 551.451200
   1641   1647   1648     1   112.3500484 533.878400
   1641   1647   1651     1   112.3500484 533.878400
   1644   1641   1647     1   111.0400475 552.288000
   1647   1648   1657     1   111.0400475 552.288000
   1647   1651   1654     1   111.0400475 552.288000
   1648   1647   1651     1   112.3500484 533.878400
   1648   1657   1661     1   111.0400475 529.694400
   1651   1654   1660     1   111.0400475 529.694400
   1654   1660   3725     1   115.1800491 558.982400
   1654   1660   1662     1   123.2000528 564.003200
   1657   1661   1663     1   123.2000528 564.003200
   1657   1661   3798     1   115.1800491 558.982400
   1660   3725   3727     1   120.6900519 530.531200
   1661   3798   3800     1   120.6900519 530.531200
   1662   1660   3725     1   123.0500530 620.905600
   1663   1661   3798     1   123.0500530 620.905600
   1666   1669   1689     1   111.6100477 551.451200
   1666   1672   1673     1   112.3500484 533.878400
   1666   1672   1676     1   112.3500484 533.878400
   1669   1666   1672     1   111.0400475 552.288000
   1672   1673   1682     1   111.0400475 552.288000
   1672   1676   1679     1   111.0400475 552.288000
   1673   1672   1676     1   112.3500484 533.878400
   1673   1682   1686     1   111.0400475 529.694400
   1676   1679   1685     1   111.0400475 529.694400
   1679   1685   3871     1   115.1800491 558.982400
   1679   1685   1687     1   123.2000528 564.003200
   1682   1686   1688     1   123.2000528 564.003200
   1682   1686   3944     1   115.1800491 558.982400
   1685   3871   3873     1   120.6900519 530.531200
   1686   3944   3946     1   120.6900519 530.531200
   1687   1685   3871     1   123.0500530 620.905600
   1688   1686   3944     1   123.0500530 620.905600
   1691   1694   1714     1   111.6100477 551.451200
   1691   1697   1698     1   112.3500484 533.878400
   1691   1697   1701     1   112.3500484 533.878400
   1694   1691   1697     1   111.0400475 552.288000
   1697   1698   1707     1   111.0400475 552.288000
   1697   1701   1704     1   111.0400475 552.288000
   1698   1697   1701     1   112.3500484 533.878400
   1698   1707   1711     1   111.0400475 529.694400
   1701   1704   1710     1   111.0400475 529.694400
   1704   1710   4017     1   115.1800491 558.982400
   1704   1710   1712     1   123.2000528 564.003200
   1707   1711   1713     1   123.2000528 564.003200
   1707   1711   4090     1   115.1800491 558.982400
   1710   4017   4019     1   120.6900519 530.531200
   1711   4090   4092     1   120.6900519 530.531200
   1712   1710   4017     1   123.0500530 620.905600
   1713   1711   4090     1   123.0500530 620.905600
   1716   1719   1739     1   111.6100477 551.451200
   1716   1722   1723     1   112.3500484 533.878400
   1716   1722   1726     1   112.3500484 533.878400
   1719   1716   1722     1   111.0400475 552.288000
   1722   1723   1732     1   111.0400475 552.288000
   1722   1726   1729     1   111.0400475 552.288000
   1723   1722   1726     1   112.3500484 533.878400
   1723   1732   1736     1   111.0400475 529.694400
   1726   1729   1735     1   111.0400475 529.694400
   1729   1735   4163     1   115.1800491 558.982400
   1729   1735   1737     1   123.2000528 564.003200
   1732   1736   1738     1   123.2000528 564.003200
   1732   1736   4236     1   115.1800491 558.982400
   1735   4163   4165     1   120.6900519 530.531200
   1736   4236   4238     1   120.6900519 530.531200
   1737   1735   4163     1   123.0500530 620.905600
   1738   1736   4236     1   123.0500530 620.905600
   1741   1744   1764     1   111.6100477 551.451200
   1741   1747   1748     1   112.3500484 533.878400
   1741   1747   1751     1   112.3500484 533.878400
   1744   1741   1747     1   111.0400475 552.288000
   1747   1748   1757     1   111.0400475 552.288000
   1747   1751   1754     1   111.0400475 552.288000
   1748   1747   1751     1   112.3500484 533.878400
   1748   1757   1761     1   111.0400475 529.694400
   1751   1754   1760     1   111.0400475 529.694400
   1754   1760   4309     1   115.1800491 558.982400
   1754   1760   1762     1   123.2000528 564.003200
   1757   1761   1763     1   123.2000528 564.003200
   1757   1761   4382     1   115.1800491 558.982400
   1760   4309   4311     1   120.6900519 530.531200
   1761   4382   4384     1   120.6900519 530.531200
   1762   1760   4309     1   123.0500530 620.905600
   1763   1761   4382     1   123.0500530 620.905600
   1766   1769   1789     1   111.6100477 551.451200
   1766   1772   1773     1   112.3500484 533.878400
   1766   1772   1776     1   112.3500484 533.878400
   1769   1766   1772     1   111.0400475 552.288000
   1772   1773   1782     1   111.0400475 552.288000
   1772   1776   1779     1   111.0400475 552.288000
   1773   1772   1776     1   112.3500484 533.878400
   1773   1782   1786     1   111.0400475 529.694400
   1776   1779   1785     1   111.0400475 529.694400
   1779   1785   4455     1   115.1800491 558.982400
   1779   1785   1787     1   123.2000528 564.003200
   1782   1786   1788     1   123.2000528 564.003200
   1782   1786   4528     1   115.1800491 558.982400
   1785   4455   4457     1   120.6900519 530.531200
   1786   4528   4530     1   120.6900519 530.531200
   1787   1785   4455     1   123.0500530 620.905600
   1788   1786   4528     1   123.0500530 620.905600
   1791   1794   1814     1   111.6100477 551.451200
   1791   1797   1798     1   112.3500484 533.878400
   1791   1797   1801     1   112.3500484 533.878400
   1794   1791   1797     1   111.0400475 552.288000
   1797   1798   1807     1   111.0400475 552.288000
   1797   1801   1804     1   111.0400475 552.288000
   1798   1797   1801     1   112.3500484 533.878400
   1798   1807   1811     1   111.0400475 529.694400
   1801   1804   1810     1   111.0400475 529.694400
   1804   1810   4601     1   115.1800491 558.982400
   1804   1810   1812     1   123.2000528 564.003200
   1807   1811   1813     1   123.2000528 564.003200
   1807   1811   4674     1   115.1800491 558.982400
   1810   4601   4603     1   120.6900519 530.531200
   1811   4674   4676     1   120.6900519 530.531200
   1812   1810   4601     1   123.0500530 620.905600
   1813   1811   4674     1   123.0500530 620.905600
   1816   1819   1839     1   111.6100477 551.451200
   1816   1822   1823     1   112.3500484 533.878400
   1816   1822   1826     1   112.3500484 533.878400
   1819   1816   1822     1   111.0400475 552.288000
   1822   1823   1832     1   111.0400475 552.288000
   1822   1826   1829     1   111.0400475 552.288000
   1823   1822   1826     1   112.3500484 533.878400
   1823   1832   1836     1   111.0400475 529.694400
   1826   1829   1835     1   111.0400475 529.694400
   1829   1835   4747     1   115.1800491 558.982400
   1829   1835   1837     1   123.2000528 564.003200
   1832   1836   1838     1   123.2000528 564.003200
   1832   1836   4820     1   115.1800491 558.982400
   1835   4747   4749     1   120.6900519 530.531200
   1836   4820   4822     1   120.6900519 530.531200
   1837   1835   4747     1   123.0500530 620.905600
   1838   1836   4820     1   123.0500530 620.905600
   1841   1844   1864     1   111.6100477 551.451200
   1841   1847   1848     1   112.3500484 533.878400
   1841   1847   1851     1   112.3500484 533.878400
   1844   1841   1847     1   111.0400475 552.288000
   1847   1848   1857     1   111.0400475 552.288000
   1847   1851   1854     1   111.0400475 552.288000
   1848   1847   1851     1   112.3500484 533.878400
   1848   1857   1861     1   111.0400475 529.694400
   1851   1854   1860     1   111.0400475 529.694400
   1854   1860   4893     1   115.1800491 558.982400
   1854   1860   1862     1   123.2000528 564.003200
   1857   1861   1863     1   123.2000528 564.003200
   1857   1861   4966     1   115.1800491 558.982400
   1860   4893   4895     1   120.6900519 530.531200
   1861   4966   4968     1   120.6900519 530.531200
   1862   1860   4893     1   123.0500530 620.905600
   1863   1861   4966     1   123.0500530 620.905600
   1866   1869   1889     1   111.6100477 551.451200
   1866   1872   1873     1   112.3500484 533.878400
   1866   1872   1876     1   112.3500484 533.878400
   1869   1866   1872     1   111.0400475 552.288000
   1872   1873   1882     1   111.0400475 552.288000
   1872   1876   1879     1   111.0400475 552.288000
   1873   1872   1876     1   112.3500484 533.878400
   1873   1882   1886     1   111.0400475 529.694400
   1876   1879   1885     1   111.0400475 529.694400
   1879   1885   5039     1   115.1800491 558.982400
   1879   1885   1887     1   123.2000528 564.003200
   1882   1886   1888     1   123.2000528 564.003200
   1882   1886   5112     1   115.1800491 558.982400
   1885   5039   5041     1   120.6900519 530.531200
   1886   5112   5114     1   120.6900519 530.531200
   1887   1885   5039     1   123.0500530 620.905600
   1888   1886   5112     1   123.0500530 620.905600
   1891   1894   1914     1   111.6100477 551.451200
   1891   1897   1898     1   112.3500484 533.878400
   1891   1897   1901     1   112.3500484 533.878400
   1894   1891   1897     1   111.0400475 552.288000
   1897   1898   1907     1   111.0400475 552.288000
   1897   1901   1904     1   111.0400475 552.288000
   1898   1897   1901     1   112.3500484 533.878400
   1898   1907   1911     1   111.0400475 529.694400
   1901   1904   1910     1   111.0400475 529.694400
   1904   1910   5185     1   115.1800491 558.982400
   1904   1910   1912     1   123.2000528 564.003200
   1907   1911   1913     1   123.2000528 564.003200
   1907   1911   5258     1   115.1800491 558.982400
   1910   5185   5187     1   120.6900519 530.531200
   1911   5258   5260     1   120.6900519 530.531200
   1912   1910   5185     1   123.0500530 620.905600
   1913   1911   5258     1   123.0500530 620.905600
   1916   1919   1939     1   111.6100477 551.451200
   1916   1922   1923     1   112.3500484 533.878400
   1916   1922   1926     1   112.3500484 533.878400
   1919   1916   1922     1   111.0400475 552.288000
   1922   1923   1932     1   111.0400475 552.288000
   1922   1926   1929     1   111.0400475 552.288000
   1923   1922   1926     1   112.3500484 533.878400
   1923   1932   1936     1   111.0400475 529.694400
   1926   1929   1935     1   111.0400475 529.694400
   1929   1935   5331     1   115.1800491 558.982400
   1929   1935   1937     1   123.2000528 564.003200
   1932   1936   1938     1   123.2000528 564.003200
   1932   1936   5404     1   115.1800491 558.982400
   1935   5331   5333     1   120.6900519 530.531200
   1936   5404   5406     1   120.6900519 530.531200
   1937   1935   5331     1   123.0500530 620.905600
   1938   1936   5404     1   123.0500530 620.905600
   1941   1944   1964     1   111.6100477 551.451200
   1941   1947   1948     1   112.3500484 533.878400
   1941   1947   1951     1   112.3500484 533.878400
   1944   1941   1947     1   111.0400475 552.288000
   1947   1948   1957     1   111.0400475 552.288000
   1947   1951   1954     1   111.0400475 552.288000
   1948   1947   1951     1   112.3500484 533.878400
   1948   1957   1961     1   111.0400475 529.694400
   1951   1954   1960     1   111.0400475 529.694400
   1954   1960   5477     1   115.1800491 558.982400
   1954   1960   1962     1   123.2000528 564.003200
   1957   1961   1963     1   123.2000528 564.003200
   1957   1961   5550     1   115.1800491 558.982400
   1960   5477   5479     1   120.6900519 530.531200
   1961   5550   5552     1   120.6900519 530.531200
   1962   1960   5477     1   123.0500530 620.905600
   1963   1961   5550     1   123.0500530 620.905600
   1966   1969   1989     1   111.6100477 551.451200
   1966   1972   1973     1   112.3500484 533.878400
   1966   1972   1976     1   112.3500484 533.878400
   1969   1966   1972     1   111.0400475 552.288000
   1972   1973   1982     1   111.0400475 552.288000
   1972   1976   1979     1   111.0400475 552.288000
   1973   1972   1976     1   112.3500484 533.878400
   1973   1982   1986     1   111.0400475 529.694400
   1976   1979   1985     1   111.0400475 529.694400
   1979   1985   5623     1   115.1800491 558.982400
   1979   1985   1987     1   123.2000528 564.003200
   1982   1986   1988     1   123.2000528 564.003200
   1982   1986   5696     1   115.1800491 558.982400
   1985   5623   5625     1   120.6900519 530.531200
   1986   5696   5698     1   120.6900519 530.531200
   1987   1985   5623     1   123.0500530 620.905600
   1988   1986   5696     1   123.0500530 620.905600
   1991   1994   2014     1   111.6100477 551.451200
   1991   1997   1998     1   112.3500484 533.878400
   1991   1997   2001     1   112.3500484 533.878400
   1994   1991   1997     1   111.0400475 552.288000
   1997   1998   2007     1   111.0400475 552.288000
   1997   2001   2004     1   111.0400475 552.288000
   1998   1997   2001     1   112.3500484 533.878400
   1998   2007   2011     1   111.0400475 529.694400
   2001   2004   2010     1   111.0400475 529.694400
   2004   2010   5769     1   115.1800491 558.982400
   2004   2010   2012     1   123.2000528 564.003200
   2007   2011   2013     1   123.2000528 564.003200
   2007   2011   5842     1   115.1800491 558.982400
   2010   5769   5771     1   120.6900519 530.531200
   2011   5842   5844     1   120.6900519 530.531200
   2012   2010   5769     1   123.0500530 620.905600
   2013   2011   5842     1   123.0500530 620.905600
   2016   2019   2039     1   111.6100477 551.451200
   2016   2022   2023     1   112.3500484 533.878400
   2016   2022   2026     1   112.3500484 533.878400
   2019   2016   2022     1   111.0400475 552.288000
   2022   2023   2032     1   111.0400475 552.288000
   2022   2026   2029     1   111.0400475 552.288000
   2023   2022   2026     1   112.3500484 533.878400
   2023   2032   2036     1   111.0400475 529.694400
   2026   2029   2035     1   111.0400475 529.694400
   2029   2035   5915     1   115.1800491 558.982400
   2029   2035   2037     1   123.2000528 564.003200
   2032   2036   2038     1   123.2000528 564.003200
   2032   2036   5988     1   115.1800491 558.982400
   2035   5915   5917     1   120.6900519 530.531200
   2036   5988   5990     1   120.6900519 530.531200
   2037   2035   5915     1   123.0500530 620.905600
   2038   2036   5988     1   123.0500530 620.905600
   2041   2044   2064     1   111.6100477 551.451200
   2041   2047   2048     1   112.3500484 533.878400
   2041   2047   2051     1   112.3500484 533.878400
   2044   2041   2047     1   111.0400475 552.288000
   2047   2048   2057     1   111.0400475 552.288000
   2047   2051   2054     1   111.0400475 552.288000
   2048   2047   2051     1   112.3500484 533.878400
   2048   2057   2061     1   111.0400475 529.694400
   2051   2054   2060     1   111.0400475 529.694400
   2054   2060   6061     1   115.1800491 558.982400
   2054   2060   2062     1   123.2000528 564.003200
   2057   2061   2063     1   123.2000528 564.003200
   2057   2061   6134     1   115.1800491 558.982400
   2060   6061   6063     1   120.6900519 530.531200
   2061   6134   6136     1   120.6900519 530.531200
   2062   2060   6061     1   123.0500530 620.905600
   2063   2061   6134     1   123.0500530 620.905600
   2066   2069   2089     1   111.6100477 551.451200
   2066   2072   2073     1   112.3500484 533.878400
   2066   2072   2076     1   112.3500484 533.878400
   2069   2066   2072     1   111.0400475 552.288000
   2072   2073   2082     1   111.0400475 552.288000
   2072   2076   2079     1   111.0400475 552.288000
   2073   2072   2076     1   112.3500484 533.878400
   2073   2082   2086     1   111.0400475 529.694400
   2076   2079   2085     1   111.0400475 529.694400
   2079   2085   6207     1   115.1800491 558.982400
   2079   2085   2087     1   123.2000528 564.003200
   2082   2086   2088     1   123.2000528 564.003200
   2082   2086   6280     1   115.1800491 558.982400
   2085   6207   6209     1   120.6900519 530.531200
   2086   6280   6282     1   120.6900519 530.531200
   2087   2085   6207     1   123.0500530 620.905600
   2088   2086   6280     1   123.0500530 620.905600
   2091   2094   2114     1   111.6100477 551.451200
   2091   2097   2098     1   112.3500484 533.878400
   2091   2097   2101     1   112.3500484 533.878400
   2094   2091   2097     1   111.0400475 552.288000
   2097   2098   2107     1   111.0400475 552.288000
   2097   2101   2104     1   111.0400475 552.288000
   2098   2097   2101     1   112.3500484 533.878400
   2098   2107   2111     1   111.0400475 529.694400
   2101   2104   2110     1   111.0400475 529.694400
   2104   2110   6353     1   115.1800491 558.982400
   2104   2110   2112     1   123.2000528 564.003200
   2107   2111   2113     1   123.2000528 564.003200
   2107   2111   6426     1   115.1800491 558.982400
   2110   6353   6355     1   120.6900519 530.531200
   2111   6426   6428     1   120.6900519 530.531200
   2112   2110   6353     1   123.0500530 620.905600
   2113   2111   6426     1   123.0500530 620.905600
   2116   2119   2139     1   111.6100477 551.451200
   2116   2122   2123     1   112.3500484 533.878400
   2116   2122   2126     1   112.3500484 533.878400
   2119   2116   2122     1   111.0400475 552.288000
   2122   2123   2132     1   111.0400475 552.288000
   2122   2126   2129     1   111.0400475 552.288000
   2123   2122   2126     1   112.3500484 533.878400
   2123   2132   2136     1   111.0400475 529.694400
   2126   2129   2135     1   111.0400475 529.694400
   2129   2135   6499     1   115.1800491 558.982400
   2129   2135   2137     1   123.2000528 564.003200
   2132   2136   2138     1   123.2000528 564.003200
   2132   2136   6572     1   115.1800491 558.982400
   2135   6499   6501     1   120.6900519 530.531200
   2136   6572   6574     1   120.6900519 530.531200
   2137   2135   6499     1   123.0500530 620.905600
   2138   2136   6572     1   123.0500530 620.905600
   2141   2144   2164     1   111.6100477 551.451200
   2141   2147   2148     1   112.3500484 533.878400
   2141   2147   2151     1   112.3500484 533.878400
   2144   2141   2147     1   111.0400475 552.288000
   2147   2148   2157     1   111.0400475 552.288000
   2147   2151   2154     1   111.0400475 552.288000
   2148   2147   2151     1   112.3500484 533.878400
   2148   2157   2161     1   111.0400475 529.694400
   2151   2154   2160     1   111.0400475 529.694400
   2154   2160   6645     1   115.1800491 558.982400
   2154   2160   2162     1   123.2000528 564.003200
   2157   2161   2163     1   123.2000528 564.003200
   2157   2161   6718     1   115.1800491 558.982400
   2160   6645   6647     1   120.6900519 530.531200
   2161   6718   6720     1   120.6900519 530.531200
   2162   2160   6645     1   123.0500530 620.905600
   2163   2161   6718     1   123.0500530 620.905600
   2166   2169   2189     1   111.6100477 551.451200
   2166   2172   2173     1   112.3500484 533.878400
   2166   2172   2176     1   112.3500484 533.878400
   2169   2166   2172     1   111.0400475 552.288000
   2172   2173   2182     1   111.0400475 552.288000
   2172   2176   2179     1   111.0400475 552.288000
   2173   2172   2176     1   112.3500484 533.878400
   2173   2182   2186     1   111.0400475 529.694400
   2176   2179   2185     1   111.0400475 529.694400
   2179   2185   6791     1   115.1800491 558.982400
   2179   2185   2187     1   123.2000528 564.003200
   2182   2186   2188     1   123.2000528 564.003200
   2182   2186   6864     1   115.1800491 558.982400
   2185   6791   6793     1   120.6900519 530.531200
   2186   6864   6866     1   120.6900519 530.531200
   2187   2185   6791     1   123.0500530 620.905600
   2188   2186   6864     1   123.0500530 620.905600
   2191   2194   2214     1   111.6100477 551.451200
   2191   2197   2198     1   112.3500484 533.878400
   2191   2197   2201     1   112.3500484 533.878400
   2194   2191   2197     1   111.0400475 552.288000
   2197   2198   2207     1   111.0400475 552.288000
   2197   2201   2204     1   111.0400475 552.288000
   2198   2197   2201     1   112.3500484 533.878400
   2198   2207   2211     1   111.0400475 529.694400
   2201   2204   2210     1   111.0400475 529.694400
   2204   2210   6937     1   115.1800491 558.982400
   2204   2210   2212     1   123.2000528 564.003200
   2207   2211   2213     1   123.2000528 564.003200
   2207   2211   7010     1   115.1800491 558.982400
   2210   6937   6939     1   120.6900519 530.531200
   2211   7010   7012     1   120.6900519 530.531200
   2212   2210   6937     1   123.0500530 620.905600
   2213   2211   7010     1   123.0500530 620.905600
   2216   2219   2239     1   111.6100477 551.451200
   2216   2222   2223     1   112.3500484 533.878400
   2216   2222   2226     1   112.3500484 533.878400
   2219   2216   2222     1   111.0400475 552.288000
   2222   2223   2232     1   111.0400475 552.288000
   2222   2226   2229     1   111.0400475 552.288000
   2223   2222   2226     1   112.3500484 533.878400
   2223   2232   2236     1   111.0400475 529.694400
   2226   2229   2235     1   111.0400475 529.694400
   2229   2235   7083     1   115.1800491 558.982400
   2229   2235   2237     1   123.2000528 564.003200
   2232   2236   2238     1   123.2000528 564.003200
   2232   2236   7156     1   115.1800491 558.982400
   2235   7083   7085     1   120.6900519 530.531200
   2236   7156   7158     1   120.6900519 530.531200
   2237   2235   7083     1   123.0500530 620.905600
   2238   2236   7156     1   123.0500530 620.905600
   2241   2244   2264     1   111.6100477 551.451200
   2241   2247   2248     1   112.3500484 533.878400
   2241   2247   2251     1   112.3500484 533.878400
   2244   2241   2247     1   111.0400475 552.288000
   2247   2248   2257     1   111.0400475 552.288000
   2247   2251   2254     1   111.0400475 552.288000
   2248   2247   2251     1   112.3500484 533.878400
   2248   2257   2261     1   111.0400475 529.694400
   2251   2254   2260     1   111.0400475 529.694400
   2254   2260   7229     1   115.1800491 558.982400
   2254   2260   2262     1   123.2000528 564.003200
   2257   2261   2263     1   123.2000528 564.003200
   2257   2261   7302     1   115.1800491 558.982400
   2260   7229   7231     1   120.6900519 530.531200
   2261   7302   7304     1   120.6900519 530.531200
   2262   2260   7229     1   123.0500530 620.905600
   2263   2261   7302     1   123.0500530 620.905600
   2266   2269   2289     1   111.6100477 551.451200
   2266   2272   2273     1   112.3500484 533.878400
   2266   2272   2276     1   112.3500484 533.878400
   2269   2266   2272     1   111.0400475 552.288000
   2272   2273   2282     1   111.0400475 552.288000
   2272   2276   2279     1   111.0400475 552.288000
   2273   2272   2276     1   112.3500484 533.878400
   2273   2282   2286     1   111.0400475 529.694400
   2276   2279   2285     1   111.0400475 529.694400
   2279   2285   7375     1   115.1800491 558.982400
   2279   2285   2287     1   123.2000528 564.003200
   2282   2286   2288     1   123.2000528 564.003200
   2282   2286   7448     1   115.1800491 558.982400
   2285   7375   7377     1   120.6900519 530.531200
   2286   7448   7450     1   120.6900519 530.531200
   2287   2285   7375     1   123.0500530 620.905600
   2288   2286   7448     1   123.0500530 620.905600
   2291   2294   2314     1   111.6100477 551.451200
   2291   2297   2298     1   112.3500484 533.878400
   2291   2297   2301     1   112.3500484 533.878400
   2294   2291   2297     1   111.0400475 552.288000
   2297   2298   2307     1   111.0400475 552.288000
   2297   2301   2304     1   111.0400475 552.288000
   2298   2297   2301     1   112.3500484 533.878400
   2298   2307   2311     1   111.0400475 529.694400
   2301   2304   2310     1   111.0400475 529.694400
   2304   2310   7521     1   115.1800491 558.982400
   2304   2310   2312     1   123.2000528 564.003200
   2307   2311   2313     1   123.2000528 564.003200
   2307   2311   7594     1   115.1800491 558.982400
   2310   7521   7523     1   120.6900519 530.531200
   2311   7594   7596     1   120.6900519 530.531200
   2312   2310   7521     1   123.0500530 620.905600
   2313   2311   7594     1   123.0500530 620.905600
   2316   2319   2339     1   111.6100477 551.451200
   2316   2322   2323     1   112.3500484 533.878400
   2316   2322   2326     1   112.3500484 533.878400
   2319   2316   2322     1   111.0400475 552.288000
   2322   2323   2332     1   111.0400475 552.288000
   2322   2326   2329     1   111.0400475 552.288000
   2323   2322   2326     1   112.3500484 533.878400
   2323   2332   2336     1   111.0400475 529.694400
   2326   2329   2335     1   111.0400475 529.694400
   2329   2335   7667     1   115.1800491 558.982400
   2329   2335   2337     1   123.2000528 564.003200
   2332   2336   2338     1   123.2000528 564.003200
   2332   2336   7740     1   115.1800491 558.982400
   2335   7667   7669     1   120.6900519 530.531200
   2336   7740   7742     1   120.6900519 530.531200
   2337   2335   7667     1   123.0500530 620.905600
   2338   2336   7740     1   123.0500530 620.905600
   2341   2344   2364     1   111.6100477 551.451200
   2341   2347   2348     1   112.3500484 533.878400
   2341   2347   2351     1   112.3500484 533.878400
   2344   2341   2347     1   111.0400475 552.288000
   2347   2348   2357     1   111.0400475 552.288000
   2347   2351   2354     1   111.0400475 552.288000
   2348   2347   2351     1   112.3500484 533.878400
   2348   2357   2361     1   111.0400475 529.694400
   2351   2354   2360     1   111.0400475 529.694400
   2354   2360   7813     1   115.1800491 558.982400
   2354   2360   2362     1   123.2000528 564.003200
   2357   2361   2363     1   123.2000528 564.003200
   2357   2361   7886     1   115.1800491 558.982400
   2360   7813   7815     1   120.6900519 530.531200
   2361   7886   7888     1   120.6900519 530.531200
   2362   2360   7813     1   123.0500530 620.905600
   2363   2361   7886     1   123.0500530 620.905600
   2366   2369   2389     1   111.6100477 551.451200
   2366   2372   2373     1   112.3500484 533.878400
   2366   2372   2376     1   112.3500484 533.878400
   2369   2366   2372     1   111.0400475 552.288000
   2372   2373   2382     1   111.0400475 552.288000
   2372   2376   2379     1   111.0400475 552.288000
   2373   2372   2376     1   112.3500484 533.878400
   2373   2382   2386     1   111.0400475 529.694400
   2376   2379   2385     1   111.0400475 529.694400
   2379   2385   7959     1   115.1800491 558.982400
   2379   2385   2387     1   123.2000528 564.003200
   2382   2386   2388     1   123.2000528 564.003200
   2382   2386   8032     1   115.1800491 558.982400
   2385   7959   7961     1   120.6900519 530.531200
   2386   8032   8034     1   120.6900519 530.531200
   2387   2385   7959     1   123.0500530 620.905600
   2388   2386   8032     1   123.0500530 620.905600
   2391   2394   2414     1   111.6100477 551.451200
   2391   2397   2398     1   112.3500484 533.878400
   2391   2397   2401     1   112.3500484 533.878400
   2394   2391   2397     1   111.0400475 552.288000
   2397   2398   2407     1   111.0400475 552.288000
   2397   2401   2404     1   111.0400475 552.288000
   2398   2397   2401     1   112.3500484 533.878400
   2398   2407   2411     1   111.0400475 529.694400
   2401   2404   2410     1   111.0400475 529.694400
   2404   2410   8105     1   115.1800491 558.982400
   2404   2410   2412     1   123.2000528 564.003200
   2407   2411   2413     1   123.2000528 564.003200
   2407   2411   8178     1   115.1800491 558.982400
   2410   8105   8107     1   120.6900519 530.531200
   2411   8178   8180     1   120.6900519 530.531200
   2412   2410   8105     1   123.0500530 620.905600
   2413   2411   8178     1   123.0500530 620.905600
   2416   2419   2439     1   111.6100477 551.451200
   2416   2422   2423     1   112.3500484 533.878400
   2416   2422   2426     1   112.3500484 533.878400
   2419   2416   2422     1   111.0400475 552.288000
   2422   2423   2432     1   111.0400475 552.288000
   2422   2426   2429     1   111.0400475 552.288000
   2423   2422   2426     1   112.3500484 533.878400
   2423   2432   2436     1   111.0400475 529.694400
   2426   2429   2435     1   111.0400475 529.694400
   2429   2435   8251     1   115.1800491 558.982400
   2429   2435   2437     1   123.2000528 564.003200
   2432   2436   2438     1   123.2000528 564.003200
   2432   2436   8324     1   115.1800491 558.982400
   2435   8251   8253     1   120.6900519 530.531200
   2436   8324   8326     1   120.6900519 530.531200
   2437   2435   8251     1   123.0500530 620.905600
   2438   2436   8324     1   123.0500530 620.905600
   2441   2444   2464     1   111.6100477 551.451200
   2441   2447   2448     1   112.3500484 533.878400
   2441   2447   2451     1   112.3500484 533.878400
   2444   2441   2447     1   111.0400475 552.288000
   2447   2448   2457     1   111.0400475 552.288000
   2447   2451   2454     1   111.0400475 552.288000
   2448   2447   2451     1   112.3500484 533.878400
   2448   2457   2461     1   111.0400475 529.694400
   2451   2454   2460     1   111.0400475 529.694400
   2454   2460   8397     1   115.1800491 558.982400
   2454   2460   2462     1   123.2000528 564.003200
   2457   2461   2463     1   123.2000528 564.003200
   2457   2461   8470     1   115.1800491 558.982400
   2460   8397   8399     1   120.6900519 530.531200
   2461   8470   8472     1   120.6900519 530.531200
   2462   2460   8397     1   123.0500530 620.905600
   2463   2461   8470     1   123.0500530 620.905600
   2466   2469   2489     1   111.6100477 551.451200
   2466   2472   2473     1   112.3500484 533.878400
   2466   2472   2476     1   112.3500484 533.878400
   2469   2466   2472     1   111.0400475 552.288000
   2472   2473   2482     1   111.0400475 552.288000
   2472   2476   2479     1   111.0400475 552.288000
   2473   2472   2476     1   112.3500484 533.878400
   2473   2482   2486     1   111.0400475 529.694400
   2476   2479   2485     1   111.0400475 529.694400
   2479   2485   8543     1   115.1800491 558.982400
   2479   2485   2487     1   123.2000528 564.003200
   2482   2486   2488     1   123.2000528 564.003200
   2482   2486   8616     1   115.1800491 558.982400
   2485   8543   8545     1   120.6900519 530.531200
   2486   8616   8618     1   120.6900519 530.531200
   2487   2485   8543     1   123.0500530 620.905600
   2488   2486   8616     1   123.0500530 620.905600
   2491   2494   2514     1   111.6100477 551.451200
   2491   2497   2498     1   112.3500484 533.878400
   2491   2497   2501     1   112.3500484 533.878400
   2494   2491   2497     1   111.0400475 552.288000
   2497   2498   2507     1   111.0400475 552.288000
   2497   2501   2504     1   111.0400475 552.288000
   2498   2497   2501     1   112.3500484 533.878400
   2498   2507   2511     1   111.0400475 529.694400
   2501   2504   2510     1   111.0400475 529.694400
   2504   2510   8689     1   115.1800491 558.982400
   2504   2510   2512     1   123.2000528 564.003200
   2507   2511   2513     1   123.2000528 564.003200
   2507   2511   8762     1   115.1800491 558.982400
   2510   8689   8691     1   120.6900519 530.531200
   2511   8762   8764     1   120.6900519 530.531200
   2512   2510   8689     1   123.0500530 620.905600
   2513   2511   8762     1   123.0500530 620.905600
   2516   2519   2539     1   111.6100477 551.451200
   2516   2522   2523     1   112.3500484 533.878400
   2516   2522   2526     1   112.3500484 533.878400
   2519   2516   2522     1   111.0400475 552.288000
   2522   2523   2532     1   111.0400475 552.288000
   2522   2526   2529     1   111.0400475 552.288000
   2523   2522   2526     1   112.3500484 533.878400
   2523   2532   2536     1   111.0400475 529.694400
   2526   2529   2535     1   111.0400475 529.694400
   2529   2535   8835     1   115.1800491 558.982400
   2529   2535   2537     1   123.2000528 564.003200
   2532   2536   2538     1   123.2000528 564.003200
   2532   2536   8908     1   115.1800491 558.982400
   2535   8835   8837     1   120.6900519 530.531200
   2536   8908   8910     1   120.6900519 530.531200
   2537   2535   8835     1   123.0500530 620.905600
   2538   2536   8908     1   123.0500530 620.905600
   2541   2544   2564     1   111.6100477 551.451200
   2541   2547   2548     1   112.3500484 533.878400
   2541   2547   2551     1   112.3500484 533.878400
   2544   2541   2547     1   111.0400475 552.288000
   2547   2548   2557     1   111.0400475 552.288000
   2547   2551   2554     1   111.0400475 552.288000
   2548   2547   2551     1   112.3500484 533.878400
   2548   2557   2561     1   111.0400475 529.694400
   2551   2554   2560     1   111.0400475 529.694400
   2554   2560   8981     1   115.1800491 558.982400
   2554   2560   2562     1   123.2000528 564.003200
   2557   2561   2563     1   123.2000528 564.003200
   2557   2561   9054     1   115.1800491 558.982400
   2560   8981   8983     1   120.6900519 530.531200
   2561   9054   9056     1   120.6900519 530.531200
   2562   2560   8981     1   123.0500530 620.905600
   2563   2561   9054     1   123.0500530 620.905600
   2566   2569   2589     1   111.6100477 551.451200
   2566   2572   2573     1   112.3500484 533.878400
   2566   2572   2576     1   112.3500484 533.878400
   2569   2566   2572     1   111.0400475 552.288000
   2572   2573   2582     1   111.0400475 552.288000
   2572   2576   2579     1   111.0400475 552.288000
   2573   2572   2576     1   112.3500484 533.878400
   2573   2582   2586     1   111.0400475 529.694400
   2576   2579   2585     1   111.0400475 529.694400
   2579   2585   9127     1   115.1800491 558.982400
   2579   2585   2587     1   123.2000528 564.003200
   2582   2586   2588     1   123.2000528 564.003200
   2582   2586   9200     1   115.1800491 558.982400
   2585   9127   9129     1   120.6900519 530.531200
   2586   9200   9202     1   120.6900519 530.531200
   2587   2585   9127     1   123.0500530 620.905600
   2588   2586   9200     1   123.0500530 620.905600
   2591   2594   2614     1   111.6100477 551.451200
   2591   2597   2598     1   112.3500484 533.878400
   2591   2597   2601     1   112.3500484 533.878400
   2594   2591   2597     1   111.0400475 552.288000
   2597   2598   2607     1   111.0400475 552.288000
   2597   2601   2604     1   111.0400475 552.288000
   2598   2597   2601     1   112.3500484 533.878400
   2598   2607   2611     1   111.0400475 529.694400
   2601   2604   2610     1   111.0400475 529.694400
   2604   2610   9273     1   115.1800491 558.982400
   2604   2610   2612     1   123.2000528 564.003200
   2607   2611   2613     1   123.2000528 564.003200
   2607   2611   9346     1   115.1800491 558.982400
   2610   9273   9275     1   120.6900519 530.531200
   2611   9346   9348     1   120.6900519 530.531200
   2612   2610   9273     1   123.0500530 620.905600
   2613   2611   9346     1   123.0500530 620.905600
   2616   2619   2639     1   111.6100477 551.451200
   2616   2622   2623     1   112.3500484 533.878400
   2616   2622   2626     1   112.3500484 533.878400
   2619   2616   2622     1   111.0400475 552.288000
   2622   2623   2632     1   111.0400475 552.288000
   2622   2626   2629     1   111.0400475 552.288000
   2623   2622   2626     1   112.3500484 533.878400
   2623   2632   2636     1   111.0400475 529.694400
   2626   2629   2635     1   111.0400475 529.694400
   2629   2635   9419     1   115.1800491 558.982400
   2629   2635   2637     1   123.2000528 564.003200
   2632   2636   2638     1   123.2000528 564.003200
   2632   2636   9492     1   115.1800491 558.982400
   2635   9419   9421     1   120.6900519 530.531200
   2636   9492   9494     1   120.6900519 530.531200
   2637   2635   9419     1   123.0500530 620.905600
   2638   2636   9492     1   123.0500530 620.905600
   2641   2644   2664     1   111.6100477 551.451200
   2641   2647   2648     1   112.3500484 533.878400
   2641   2647   2651     1   112.3500484 533.878400
   2644   2641   2647     1   111.0400475 552.288000
   2647   2648   2657     1   111.0400475 552.288000
   2647   2651   2654     1   111.0400475 552.288000
   2648   2647   2651     1   112.3500484 533.878400
   2648   2657   2661     1   111.0400475 529.694400
   2651   2654   2660     1   111.0400475 529.694400
   2654   2660   9565     1   115.1800491 558.982400
   2654   2660   2662     1   123.2000528 564.003200
   2657   2661   2663     1   123.2000528 564.003200
   2657   2661   9638     1   115.1800491 558.982400
   2660   9565   9567     1   120.6900519 530.531200
   2661   9638   9640     1   120.6900519 530.531200
   2662   2660   9565     1   123.0500530 620.905600
   2663   2661   9638     1   123.0500530 620.905600
   2666   2669   2689     1   111.6100477 551.451200
   2666   2672   2673     1   112.3500484 533.878400
   2666   2672   2676     1   112.3500484 533.878400
   2669   2666   2672     1   111.0400475 552.288000
   2672   2673   2682     1   111.0400475 552.288000
   2672   2676   2679     1   111.0400475 552.288000
   2673   2672   2676     1   112.3500484 533.878400
   2673   2682   2686     1   111.0400475 529.694400
   2676   2679   2685     1   111.0400475 529.694400
   2679   2685   9711     1   115.1800491 558.982400
   2679   2685   2687     1   123.2000528 564.003200
   2682   2686   2688     1   123.2000528 564.003200
   2682   2686   9784     1   115.1800491 558.982400
   2685   9711   9713     1   120.6900519 530.531200
   2686   9784   9786     1   120.6900519 530.531200
   2687   2685   9711     1   123.0500530 620.905600
   2688   2686   9784     1   123.0500530 620.905600
   2691   2694   2714     1   111.6100477 551.451200
   2691   2697   2698     1   112.3500484 533.878400
   2691   2697   2701     1   112.3500484 533.878400
   2694   2691   2697     1   111.0400475 552.288000
   2697   2698   2707     1   111.0400475 552.288000
   2697   2701   2704     1   111.0400475 552.288000
   2698   2697   2701     1   112.3500484 533.878400
   2698   2707   2711     1   111.0400475 529.694400
   2701   2704   2710     1   111.0400475 529.694400
   2704   2710   9857     1   115.1800491 558.982400
   2704   2710   2712     1   123.2000528 564.003200
   2707   2711   2713     1   123.2000528 564.003200
   2707   2711   9930     1   115.1800491 558.982400
   2710   9857   9859     1   120.6900519 530.531200
   2711   9930   9932     1   120.6900519 530.531200
   2712   2710   9857     1   123.0500530 620.905600
   2713   2711   9930     1   123.0500530 620.905600
   2716   2719   2739     1   111.6100477 551.451200
   2716   2722   2723     1   112.3500484 533.878400
   2716   2722   2726     1   112.3500484 533.878400
   2719   2716   2722     1   111.0400475 552.288000
   2722   2723   2732     1   111.0400475 552.288000
   2722   2726   2729     1   111.0400475 552.288000
   2723   2722   2726     1   112.3500484 533.878400
   2723   2732   2736     1   111.0400475 529.694400
   2726   2729   2735     1   111.0400475 529.694400
   2729   2735  10003     1   115.1800491 558.982400
   2729   2735   2737     1   123.2000528 564.003200
   2732   2736   2738     1   123.2000528 564.003200
   2732   2736  10076     1   115.1800491 558.982400
   2735  10003  10005     1   120.6900519 530.531200
   2736  10076  10078     1   120.6900519 530.531200
   2737   2735  10003     1   123.0500530 620.905600
   2738   2736  10076     1   123.0500530 620.905600
   2741   2744   2764     1   111.6100477 551.451200
   2741   2747   2748     1   112.3500484 533.878400
   2741   2747   2751     1   112.3500484 533.878400
   2744   2741   2747     1   111.0400475 552.288000
   2747   2748   2757     1   111.0400475 552.288000
   2747   2751   2754     1   111.0400475 552.288000
   2748   2747   2751     1   112.3500484 533.878400
   2748   2757   2761     1   111.0400475 529.694400
   2751   2754   2760     1   111.0400475 529.694400
   2754   2760  10149     1   115.1800491 558.982400
   2754   2760   2762     1   123.2000528 564.003200
   2757   2761   2763     1   123.2000528 564.003200
   2757   2761  10222     1   115.1800491 558.982400
   2760  10149  10151     1   120.6900519 530.531200
   2761  10222  10224     1   120.6900519 530.531200
   2762   2760  10149     1   123.0500530 620.905600
   2763   2761  10222     1   123.0500530 620.905600
   2766   2769   2789     1   111.6100477 551.451200
   2766   2772   2773     1   112.3500484 533.878400
   2766   2772   2776     1   112.3500484 533.878400
   2769   2766   2772     1   111.0400475 552.288000
   2772   2773   2782     1   111.0400475 552.288000
   2772   2776   2779     1   111.0400475 552.288000
   2773   2772   2776     1   112.3500484 533.878400
   2773   2782   2786     1   111.0400475 529.694400
   2776   2779   2785     1   111.0400475 529.694400
   2779   2785  10295     1   115.1800491 558.982400
   2779   2785   2787     1   123.2000528 564.003200
   2782   2786   2788     1   123.2000528 564.003200
   2782   2786  10368     1   115.1800491 558.982400
   2785  10295  10297     1   120.6900519 530.531200
   2786  10368  10370     1   120.6900519 530.531200
   2787   2785  10295     1   123.0500530 620.905600
   2788   2786  10368     1   123.0500530 620.905600
   2791   2794   2814     1   111.6100477 551.451200
   2791   2797   2798     1   112.3500484 533.878400
   2791   2797   2801     1   112.3500484 533.878400
   2794   2791   2797     1   111.0400475 552.288000
   2797   2798   2807     1   111.0400475 552.288000
   2797   2801   2804     1   111.0400475 552.288000
   2798   2797   2801     1   112.3500484 533.878400
   2798   2807   2811     1   111.0400475 529.694400
   2801   2804   2810     1   111.0400475 529.694400
   2804   2810  10441     1   115.1800491 558.982400
   2804   2810   2812     1   123.2000528 564.003200
   2807   2811   2813     1   123.2000528 564.003200
   2807   2811  10514     1   115.1800491 558.982400
   2810  10441  10443     1   120.6900519 530.531200
   2811  10514  10516     1   120.6900519 530.531200
   2812   2810  10441     1   123.0500530 620.905600
   2813   2811  10514     1   123.0500530 620.905600
   2816   2819   2839     1   111.6100477 551.451200
   2816   2822   2823     1   112.3500484 533.878400
   2816   2822   2826     1   112.3500484 533.878400
   2819   2816   2822     1   111.0400475 552.288000
   2822   2823   2832     1   111.0400475 552.288000
   2822   2826   2829     1   111.0400475 552.288000
   2823   2822   2826     1   112.3500484 533.878400
   2823   2832   2836     1   111.0400475 529.694400
   2826   2829   2835     1   111.0400475 529.694400
   2829   2835  10587     1   115.1800491 558.982400
   2829   2835   2837     1   123.2000528 564.003200
   2832   2836   2838     1   123.2000528 564.003200
   2832   2836  10660     1   115.1800491 558.982400
   2835  10587  10589     1   120.6900519 530.531200
   2836  10660  10662     1   120.6900519 530.531200
   2837   2835  10587     1   123.0500530 620.905600
   2838   2836  10660     1   123.0500530 620.905600
   2841   2844   2864     1   111.6100477 551.451200
   2841   2847   2848     1   112.3500484 533.878400
   2841   2847   2851     1   112.3500484 533.878400
   2844   2841   2847     1   111.0400475 552.288000
   2847   2848   2857     1   111.0400475 552.288000
   2847   2851   2854     1   111.0400475 552.288000
   2848   2847   2851     1   112.3500484 533.878400
   2848   2857   2861     1   111.0400475 529.694400
   2851   2854   2860     1   111.0400475 529.694400
   2854   2860  10733     1   115.1800491 558.982400
   2854   2860   2862     1   123.2000528 564.003200
   2857   2861   2863     1   123.2000528 564.003200
   2857   2861  10806     1   115.1800491 558.982400
   2860  10733  10735     1   120.6900519 530.531200
   2861  10806  10808     1   120.6900519 530.531200
   2862   2860  10733     1   123.0500530 620.905600
   2863   2861  10806     1   123.0500530 620.905600
   2866   2869   2889     1   111.6100477 551.451200
   2866   2872   2873     1   112.3500484 533.878400
   2866   2872   2876     1   112.3500484 533.878400
   2869   2866   2872     1   111.0400475 552.288000
   2872   2873   2882     1   111.0400475 552.288000
   2872   2876   2879     1   111.0400475 552.288000
   2873   2872   2876     1   112.3500484 533.878400
   2873   2882   2886     1   111.0400475 529.694400
   2876   2879   2885     1   111.0400475 529.694400
   2879   2885  10879     1   115.1800491 558.982400
   2879   2885   2887     1   123.2000528 564.003200
   2882   2886   2888     1   123.2000528 564.003200
   2882   2886  10952     1   115.1800491 558.982400
   2885  10879  10881     1   120.6900519 530.531200
   2886  10952  10954     1   120.6900519 530.531200
   2887   2885  10879     1   123.0500530 620.905600
   2888   2886  10952     1   123.0500530 620.905600
   2891   2894   2914     1   111.6100477 551.451200
   2891   2897   2898     1   112.3500484 533.878400
   2891   2897   2901     1   112.3500484 533.878400
   2894   2891   2897     1   111.0400475 552.288000
   2897   2898   2907     1   111.0400475 552.288000
   2897   2901   2904     1   111.0400475 552.288000
   2898   2897   2901     1   112.3500484 533.878400
   2898   2907   2911     1   111.0400475 529.694400
   2901   2904   2910     1   111.0400475 529.694400
   2904   2910  11025     1   115.1800491 558.982400
   2904   2910   2912     1   123.2000528 564.003200
   2907   2911   2913     1   123.2000528 564.003200
   2907   2911  11098     1   115.1800491 558.982400
   2910  11025  11027     1   120.6900519 530.531200
   2911  11098  11100     1   120.6900519 530.531200
   2912   2910  11025     1   123.0500530 620.905600
   2913   2911  11098     1   123.0500530 620.905600
   2916   2919   2939     1   111.6100477 551.451200
   2916   2922   2923     1   112.3500484 533.878400
   2916   2922   2926     1   112.3500484 533.878400
   2919   2916   2922     1   111.0400475 552.288000
   2922   2923   2932     1   111.0400475 552.288000
   2922   2926   2929     1   111.0400475 552.288000
   2923   2922   2926     1   112.3500484 533.878400
   2923   2932   2936     1   111.0400475 529.694400
   2926   2929   2935     1   111.0400475 529.694400
   2929   2935  11171     1   115.1800491 558.982400
   2929   2935   2937     1   123.2000528 564.003200
   2932   2936   2938     1   123.2000528 564.003200
   2932   2936  11244     1   115.1800491 558.982400
   2935  11171  11173     1   120.6900519 530.531200
   2936  11244  11246     1   120.6900519 530.531200
   2937   2935  11171     1   123.0500530 620.905600
   2938   2936  11244     1   123.0500530 620.905600
   2941   2944   2964     1   111.6100477 551.451200
   2941   2947   2948     1   112.3500484 533.878400
   2941   2947   2951     1   112.3500484 533.878400
   2944   2941   2947     1   111.0400475 552.288000
   2947   2948   2957     1   111.0400475 552.288000
   2947   2951   2954     1   111.0400475 552.288000
   2948   2947   2951     1   112.3500484 533.878400
   2948   2957   2961     1   111.0400475 529.694400
   2951   2954   2960     1   111.0400475 529.694400
   2954   2960  11317     1   115.1800491 558.982400
   2954   2960   2962     1   123.2000528 564.003200
   2957   2961   2963     1   123.2000528 564.003200
   2957   2961  11390     1   115.1800491 558.982400
   2960  11317  11319     1   120.6900519 530.531200
   2961  11390  11392     1   120.6900519 530.531200
   2962   2960  11317     1   123.0500530 620.905600
   2963   2961  11390     1   123.0500530 620.905600
   2966   2969   2989     1   111.6100477 551.451200
   2966   2972   2973     1   112.3500484 533.878400
   2966   2972   2976     1   112.3500484 533.878400
   2969   2966   2972     1   111.0400475 552.288000
   2972   2973   2982     1   111.0400475 552.288000
   2972   2976   2979     1   111.0400475 552.288000
   2973   2972   2976     1   112.3500484 533.878400
   2973   2982   2986     1   111.0400475 529.694400
   2976   2979   2985     1   111.0400475 529.694400
   2979   2985  11463     1   115.1800491 558.982400
   2979   2985   2987     1   123.2000528 564.003200
   2982   2986   2988     1   123.2000528 564.003200
   2982   2986  11536     1   115.1800491 558.982400
   2985  11463  11465     1   120.6900519 530.531200
   2986  11536  11538     1   120.6900519 530.531200
   2987   2985  11463     1   123.0500530 620.905600
   2988   2986  11536     1   123.0500530 620.905600
   2991   2994   3014     1   111.6100477 551.451200
   2991   2997   2998     1   112.3500484 533.878400
   2991   2997   3001     1   112.3500484 533.878400
   2994   2991   2997     1   111.0400475 552.288000
   2997   2998   3007     1   111.0400475 552.288000
   2997   3001   3004     1   111.0400475 552.288000
   2998   2997   3001     1   112.3500484 533.878400
   2998   3007   3011     1   111.0400475 529.694400
   3001   3004   3010     1   111.0400475 529.694400
   3004   3010  11609     1   115.1800491 558.982400
   3004   3010   3012     1   123.2000528 564.003200
   3007   3011   3013     1   123.2000528 564.003200
   3007   3011  11682     1   115.1800491 558.982400
   3010  11609  11611     1   120.6900519 530.531200
   3011  11682  11684     1   120.6900519 530.531200
   3012   3010  11609     1   123.0500530 620.905600
   3013   3011  11682     1   123.0500530 620.905600
   3016   3019   3039     1   111.6100477 551.451200
   3016   3022   3023     1   112.3500484 533.878400
   3016   3022   3026     1   112.3500484 533.878400
   3019   3016   3022     1   111.0400475 552.288000
   3022   3023   3032     1   111.0400475 552.288000
   3022   3026   3029     1   111.0400475 552.288000
   3023   3022   3026     1   112.3500484 533.878400
   3023   3032   3036     1   111.0400475 529.694400
   3026   3029   3035     1   111.0400475 529.694400
   3029   3035  11755     1   115.1800491 558.982400
   3029   3035   3037     1   123.2000528 564.003200
   3032   3036   3038     1   123.2000528 564.003200
   3032   3036  11828     1   115.1800491 558.982400
   3035  11755  11757     1   120.6900519 530.531200
   3036  11828  11830     1   120.6900519 530.531200
   3037   3035  11755     1   123.0500530 620.905600
   3038   3036  11828     1   123.0500530 620.905600
   3041   3044   3064     1   111.6100477 551.451200
   3041   3047   3048     1   112.3500484 533.878400
   3041   3047   3051     1   112.3500484 533.878400
   3044   3041   3047     1   111.0400475 552.288000
   3047   3048   3057     1   111.0400475 552.288000
   3047   3051   3054     1   111.0400475 552.288000
   3048   3047   3051     1   112.3500484 533.878400
   3048   3057   3061     1   111.0400475 529.694400
   3051   3054   3060     1   111.0400475 529.694400
   3054   3060  11901     1   115.1800491 558.982400
   3054   3060   3062     1   123.2000528 564.003200
   3057   3061   3063     1   123.2000528 564.003200
   3057   3061  11974     1   115.1800491 558.982400
   3060  11901  11903     1   120.6900519 530.531200
   3061  11974  11976     1   120.6900519 530.531200
   3062   3060  11901     1   123.0500530 620.905600
   3063   3061  11974     1   123.0500530 620.905600
   3066   3069   3089     1   111.6100477 551.451200
   3066   3072   3073     1   112.3500484 533.878400
   3066   3072   3076     1   112.3500484 533.878400
   3069   3066   3072     1   111.0400475 552.288000
   3072   3073   3082     1   111.0400475 552.288000
   3072   3076   3079     1   111.0400475 552.288000
   3073   3072   3076     1   112.3500484 533.878400
   3073   3082   3086     1   111.0400475 529.694400
   3076   3079   3085     1   111.0400475 529.694400
   3079   3085  12047     1   115.1800491 558.982400
   3079   3085   3087     1   123.2000528 564.003200
   3082   3086   3088     1   123.2000528 564.003200
   3082   3086  12120     1   115.1800491 558.982400
   3085  12047  12049     1   120.6900519 530.531200
   3086  12120  12122     1   120.6900519 530.531200
   3087   3085  12047     1   123.0500530 620.905600
   3088   3086  12120     1   123.0500530 620.905600
   3091   3094   3114     1   111.6100477 551.451200
   3091   3097   3098     1   112.3500484 533.878400
   3091   3097   3101     1   112.3500484 533.878400
   3094   3091   3097     1   111.0400475 552.288000
   3097   3098   3107     1   111.0400475 552.288000
   3097   3101   3104     1   111.0400475 552.288000
   3098   3097   3101     1   112.3500484 533.878400
   3098   3107   3111     1   111.0400475 529.694400
   3101   3104   3110     1   111.0400475 529.694400
   3104   3110  12193     1   115.1800491 558.982400
   3104   3110   3112     1   123.2000528 564.003200
   3107   3111   3113     1   123.2000528 564.003200
   3107   3111  12266     1   115.1800491 558.982400
   3110  12193  12195     1   120.6900519 530.531200
   3111  12266  12268     1   120.6900519 530.531200
   3112   3110  12193     1   123.0500530 620.905600
   3113   3111  12266     1   123.0500530 620.905600
   3116   3119   3139     1   111.6100477 551.451200
   3116   3122   3123     1   112.3500484 533.878400
   3116   3122   3126     1   112.3500484 533.878400
   3119   3116   3122     1   111.0400475 552.288000
   3122   3123   3132     1   111.0400475 552.288000
   3122   3126   3129     1   111.0400475 552.288000
   3123   3122   3126     1   112.3500484 533.878400
   3123   3132   3136     1   111.0400475 529.694400
   3126   3129   3135     1   111.0400475 529.694400
   3129   3135  12339     1   115.1800491 558.982400
   3129   3135   3137     1   123.2000528 564.003200
   3132   3136  12412     1   115.1800491 558.982400
   3132   3136   3138     1   123.2000528 564.003200
   3135  12339  12341     1   120.6900519 530.531200
   3136  12412  12414     1   120.6900519 530.531200
   3137   3135  12339     1   123.0500530 620.905600
   3138   3136  12412     1   123.0500530 620.905600
   3141   3143   3145     1   111.6100477 551.451200
   3143   3145   3149     1   111.0400475 552.288000
   3145   3149   3150     1   112.3500484 533.878400
   3145   3149   3151     1   112.3500484 533.878400
   3149   3150   3161     1   111.0400475 552.288000
   3149   3151   3153     1   111.0400475 552.288000
   3150   3149   3151     1   112.3500484 533.878400
   3150   3161   3164     1   111.0400475 529.694400
   3151   3153   3157     1   111.0400475 529.694400
   3153   3157   3158     1   123.2000528 564.003200
   3153   3157   3189     1   112.2600482 538.062400
   3157   3189   3170     1   118.5150508 540.957728
   3158   3157   3189     1   118.8300510 581.576000
   3161   3164   3165     1   123.2000528 564.003200
   3161   3164   3213     1   112.2600482 538.062400
   3164   3213   3194     1   118.5150508 540.957728
   3165   3164   3213     1   118.8300510 581.576000
   3166   3167   3169     1   111.5100476 526.347200
   3166   3167   3187     1   110.1900474 564.840000
   3166   3177   3182     1   110.1900474 564.840000
   3166   3184   3171     1   112.4800480 524.673600
   3167   3166   3177     1   111.5100476 526.347200
   3167   3166   3184     1   107.9700462 569.024000
   3167   3169   3170     1   111.5100476 526.347200
   3167   3169   3176     1   110.1900474 564.840000
   3169   3167   3187     1   110.1900474 564.840000
   3169   3170   3171     1   111.5100476 526.347200
   3169   3170   3189     1   111.0400475 552.288000
   3170   3169   3176     1   110.1900474 564.840000
   3170   3171   3175     1   110.1900474 564.840000
   3170   3171   3184     1   107.9700462 569.024000
   3171   3170   3189     1   111.0400475 552.288000
   3175   3171   3184     1   109.3800466 607.516800
   3177   3166   3184     1   107.9700462 569.024000
   3190   3191   3193     1   111.5100476 526.347200
   3190   3191   3211     1   110.1900474 564.840000
   3190   3201   3206     1   110.1900474 564.840000
   3190   3208   3195     1   112.4800480 524.673600
   3191   3190   3201     1   111.5100476 526.347200
   3191   3190   3208     1   107.9700462 569.024000
   3191   3193   3194     1   111.5100476 526.347200
   3191   3193   3200     1   110.1900474 564.840000
   3193   3191   3211     1   110.1900474 564.840000
   3193   3194   3195     1   111.5100476 526.347200
   3193   3194   3213     1   111.0400475 552.288000
   3194   3193   3200     1   110.1900474 564.840000
   3194   3195   3199     1   110.1900474 564.840000
   3194   3195   3208     1   107.9700462 569.024000
   3195   3194   3213     1   111.0400475 552.288000
   3199   3195   3208     1   109.3800466 607.516800
   3201   3190   3208     1   107.9700462 569.024000
   3214   3216   3218     1   111.6100477 551.451200
   3216   3218   3222     1   111.0400475 552.288000
   3218   3222   3223     1   112.3500484 533.878400
   3218   3222   3224     1   112.3500484 533.878400
   3222   3223   3234     1   111.0400475 552.288000
   3222   3224   3226     1   111.0400475 552.288000
   3223   3234   3237     1   111.0400475 529.694400
   3223   3222   3224     1   112.3500484 533.878400
   3224   3226   3230     1   111.0400475 529.694400
   3226   3230   3231     1   123.2000528 564.003200
   3226   3230   3262     1   112.2600482 538.062400
   3230   3262   3243     1   118.5150508 540.957728
   3231   3230   3262     1   118.8300510 581.576000
   3234   3237   3238     1   123.2000528 564.003200
   3234   3237   3286     1   112.2600482 538.062400
   3237   3286   3267     1   118.5150508 540.957728
   3238   3237   3286     1   118.8300510 581.576000
   3239   3240   3242     1   111.5100476 526.347200
   3239   3240   3260     1   110.1900474 564.840000
   3239   3250   3255     1   110.1900474 564.840000
   3239   3257   3244     1   112.4800480 524.673600
   3240   3242   3243     1   111.5100476 526.347200
   3240   3242   3249     1   110.1900474 564.840000
   3240   3239   3250     1   111.5100476 526.347200
   3240   3239   3257     1   107.9700462 569.024000
   3242   3243   3244     1   111.5100476 526.347200
   3242   3243   3262     1   111.0400475 552.288000
   3242   3240   3260     1   110.1900474 564.840000
   3243   3244   3248     1   110.1900474 564.840000
   3243   3244   3257     1   107.9700462 569.024000
   3243   3242   3249     1   110.1900474 564.840000
   3244   3243   3262     1   111.0400475 552.288000
   3248   3244   3257     1   109.3800466 607.516800
   3250   3239   3257     1   107.9700462 569.024000
   3263   3264   3266     1   111.5100476 526.347200
   3263   3264   3284     1   110.1900474 564.840000
   3263   3274   3279     1   110.1900474 564.840000
   3263   3281   3268     1   112.4800480 524.673600
   3264   3266   3267     1   111.5100476 526.347200
   3264   3266   3273     1   110.1900474 564.840000
   3264   3263   3274     1   111.5100476 526.347200
   3264   3263   3281     1   107.9700462 569.024000
   3266   3267   3268     1   111.5100476 526.347200
   3266   3267   3286     1   111.0400475 552.288000
   3266   3264   3284     1   110.1900474 564.840000
   3267   3268   3272     1   110.1900474 564.840000
   3267   3268   3281     1   107.9700462 569.024000
   3267   3266   3273     1   110.1900474 564.840000
   3268   3267   3286     1   111.0400475 552.288000
   3272   3268   3281     1   109.3800466 607.516800
   3274   3263   3281     1   107.9700462 569.024000
   3287   3289   3291     1   111.6100477 551.451200
   3289   3291   3295     1   111.0400475 552.288000
   3291   3295   3296     1   112.3500484 533.878400
   3291   3295   3297     1   112.3500484 533.878400
   3295   3296   3307     1   111.0400475 552.288000
   3295   3297   3299     1   111.0400475 552.288000
   3296   3295   3297     1   112.3500484 533.878400
   3296   3307   3310     1   111.0400475 529.694400
   3297   3299   3303     1   111.0400475 529.694400
   3299   3303   3304     1   123.2000528 564.003200
   3299   3303   3335     1   112.2600482 538.062400
   3303   3335   3316     1   118.5150508 540.957728
   3304   3303   3335     1   118.8300510 581.576000
   3307   3310   3311     1   123.2000528 564.003200
   3307   3310   3359     1   112.2600482 538.062400
   3310   3359   3340     1   118.5150508 540.957728
   3311   3310   3359     1   118.8300510 581.576000
   3312   3313   3315     1   111.5100476 526.347200
   3312   3313   3333     1   110.1900474 564.840000
   3312   3323   3328     1   110.1900474 564.840000
   3312   3330   3317     1   112.4800480 524.673600
   3313   3312   3323     1   111.5100476 526.347200
   3313   3312   3330     1   107.9700462 569.024000
   3313   3315   3316     1   111.5100476 526.347200
   3313   3315   3322     1   110.1900474 564.840000
   3315   3313   3333     1   110.1900474 564.840000
   3315   3316   3317     1   111.5100476 526.347200
   3315   3316   3335     1   111.0400475 552.288000
   3316   3315   3322     1   110.1900474 564.840000
   3316   3317   3321     1   110.1900474 564.840000
   3316   3317   3330     1   107.9700462 569.024000
   3317   3316   3335     1   111.0400475 552.288000
   3321   3317   3330     1   109.3800466 607.516800
   3323   3312   3330     1   107.9700462 569.024000
   3336   3337   3339     1   111.5100476 526.347200
   3336   3337   3357     1   110.1900474 564.840000
   3336   3347   3352     1   110.1900474 564.840000
   3336   3354   3341     1   112.4800480 524.673600
   3337   3336   3347     1   111.5100476 526.347200
   3337   3336   3354     1   107.9700462 569.024000
   3337   3339   3340     1   111.5100476 526.347200
   3337   3339   3346     1   110.1900474 564.840000
   3339   3337   3357     1   110.1900474 564.840000
   3339   3340   3341     1   111.5100476 526.347200
   3339   3340   3359     1   111.0400475 552.288000
   3340   3339   3346     1   110.1900474 564.840000
   3340   3341   3345     1   110.1900474 564.840000
   3340   3341   3354     1   107.9700462 569.024000
   3341   3340   3359     1   111.0400475 552.288000
   3345   3341   3354     1   109.3800466 607.516800
   3347   3336   3354     1   107.9700462 569.024000
   3360   3362   3364     1   111.6100477 551.451200
   3362   3364   3368     1   111.0400475 552.288000
   3364   3368   3369     1   112.3500484 533.878400
   3364   3368   3370     1   112.3500484 533.878400
   3368   3369   3380     1   111.0400475 552.288000
   3368   3370   3372     1   111.0400475 552.288000
   3369   3380   3383     1   111.0400475 529.694400
   3369   3368   3370     1   112.3500484 533.878400
   3370   3372   3376     1   111.0400475 529.694400
   3372   3376   3377     1   123.2000528 564.003200
   3372   3376   3408     1   112.2600482 538.062400
   3376   3408   3389     1   118.5150508 540.957728
   3377   3376   3408     1   118.8300510 581.576000
   3380   3383   3384     1   123.2000528 564.003200
   3380   3383   3432     1   112.2600482 538.062400
   3383   3432   3413     1   118.5150508 540.957728
   3384   3383   3432     1   118.8300510 581.576000
   3385   3386   3388     1   111.5100476 526.347200
   3385   3386   3406     1   110.1900474 564.840000
   3385   3396   3401     1   110.1900474 564.840000
   3385   3403   3390     1   112.4800480 524.673600
   3386   3388   3389     1   111.5100476 526.347200
   3386   3388   3395     1   110.1900474 564.840000
   3386   3385   3396     1   111.5100476 526.347200
   3386   3385   3403     1   107.9700462 569.024000
   3388   3389   3390     1   111.5100476 526.347200
   3388   3389   3408     1   111.0400475 552.288000
   3388   3386   3406     1   110.1900474 564.840000
   3389   3390   3394     1   110.1900474 564.840000
   3389   3390   3403     1   107.9700462 569.024000
   3389   3388   3395     1   110.1900474 564.840000
   3390   3389   3408     1   111.0400475 552.288000
   3394   3390   3403     1   109.3800466 607.516800
   3396   3385   3403     1   107.9700462 569.024000
   3409   3410   3412     1   111.5100476 526.347200
   3409   3410   3430     1   110.1900474 564.840000
   3409   3420   3425     1   110.1900474 564.840000
   3409   3427   3414     1   112.4800480 524.673600
   3410   3412   3413     1   111.5100476 526.347200
   3410   3412   3419     1   110.1900474 564.840000
   3410   3409   3420     1   111.5100476 526.347200
   3410   3409   3427     1   107.9700462 569.024000
   3412   3413   3414     1   111.5100476 526.347200
   3412   3413   3432     1   111.0400475 552.288000
   3412   3410   3430     1   110.1900474 564.840000
   3413   3414   3418     1   110.1900474 564.840000
   3413   3414   3427     1   107.9700462 569.024000
   3413   3412   3419     1   110.1900474 564.840000
   3414   3413   3432     1   111.0400475 552.288000
   3418   3414   3427     1   109.3800466 607.516800
   3420   3409   3427     1   107.9700462 569.024000
   3433   3435   3437     1   111.6100477 551.451200
   3435   3437   3441     1   111.0400475 552.288000
   3437   3441   3442     1   112.3500484 533.878400
   3437   3441   3443     1   112.3500484 533.878400
   3441   3442   3453     1   111.0400475 552.288000
   3441   3443   3445     1   111.0400475 552.288000
   3442   3441   3443     1   112.3500484 533.878400
   3442   3453   3456     1   111.0400475 529.694400
   3443   3445   3449     1   111.0400475 529.694400
   3445   3449   3450     1   123.2000528 564.003200
   3445   3449   3481     1   112.2600482 538.062400
   3449   3481   3462     1   118.5150508 540.957728
   3450   3449   3481     1   118.8300510 581.576000
   3453   3456   3457     1   123.2000528 564.003200
   3453   3456   3505     1   112.2600482 538.062400
   3456   3505   3486     1   118.5150508 540.957728
   3457   3456   3505     1   118.8300510 581.576000
   3458   3459   3461     1   111.5100476 526.347200
   3458   3459   3479     1   110.1900474 564.840000
   3458   3469   3474     1   110.1900474 564.840000
   3458   3476   3463     1   112.4800480 524.673600
   3459   3458   3469     1   111.5100476 526.347200
   3459   3458   3476     1   107.9700462 569.024000
   3459   3461   3462     1   111.5100476 526.347200
   3459   3461   3468     1   110.1900474 564.840000
   3461   3459   3479     1   110.1900474 564.840000
   3461   3462   3463     1   111.5100476 526.347200
   3461   3462   3481     1   111.0400475 552.288000
   3462   3461   3468     1   110.1900474 564.840000
   3462   3463   3467     1   110.1900474 564.840000
   3462   3463   3476     1   107.9700462 569.024000
   3463   3462   3481     1   111.0400475 552.288000
   3467   3463   3476     1   109.3800466 607.516800
   3469   3458   3476     1   107.9700462 569.024000
   3482   3483   3485     1   111.5100476 526.347200
   3482   3483   3503     1   110.1900474 564.840000
   3482   3493   3498     1   110.1900474 564.840000
   3482   3500   3487     1   112.4800480 524.673600
   3483   3482   3493     1   111.5100476 526.347200
   3483   3482   3500     1   107.9700462 569.024000
   3483   3485   3486     1   111.5100476 526.347200
   3483   3485   3492     1   110.1900474 564.840000
   3485   3483   3503     1   110.1900474 564.840000
   3485   3486   3487     1   111.5100476 526.347200
   3485   3486   3505     1   111.0400475 552.288000
   3486   3485   3492     1   110.1900474 564.840000
   3486   3487   3491     1   110.1900474 564.840000
   3486   3487   3500     1   107.9700462 569.024000
   3487   3486   3505     1   111.0400475 552.288000
   3491   3487   3500     1   109.3800466 607.516800
   3493   3482   3500     1   107.9700462 569.024000
   3506   3508   3510     1   111.6100477 551.451200
   3508   3510   3514     1   111.0400475 552.288000
   3510   3514   3515     1   112.3500484 533.878400
   3510   3514   3516     1   112.3500484 533.878400
   3514   3515   3526     1   111.0400475 552.288000
   3514   3516   3518     1   111.0400475 552.288000
   3515   3526   3529     1   111.0400475 529.694400
   3515   3514   3516     1   112.3500484 533.878400
   3516   3518   3522     1   111.0400475 529.694400
   3518   3522   3523     1   123.2000528 564.003200
   3518   3522   3554     1   112.2600482 538.062400
   3522   3554   3535     1   118.5150508 540.957728
   3523   3522   3554     1   118.8300510 581.576000
   3526   3529   3530     1   123.2000528 564.003200
   3526   3529   3578     1   112.2600482 538.062400
   3529   3578   3559     1   118.5150508 540.957728
   3530   3529   3578     1   118.8300510 581.576000
   3531   3532   3534     1   111.5100476 526.347200
   3531   3532   3552     1   110.1900474 564.840000
   3531   3542   3547     1   110.1900474 564.840000
   3531   3549   3536     1   112.4800480 524.673600
   3532   3534   3535     1   111.5100476 526.347200
   3532   3534   3541     1   110.1900474 564.840000
   3532   3531   3542     1   111.5100476 526.347200
   3532   3531   3549     1   107.9700462 569.024000
   3534   3535   3536     1   111.5100476 526.347200
   3534   3535   3554     1   111.0400475 552.288000
   3534   3532   3552     1   110.1900474 564.840000
   3535   3536   3540     1   110.1900474 564.840000
   3535   3536   3549     1   107.9700462 569.024000
   3535   3534   3541     1   110.1900474 564.840000
   3536   3535   3554     1   111.0400475 552.288000
   3540   3536   3549     1   109.3800466 607.516800
   3542   3531   3549     1   107.9700462 569.024000
   3555   3556   3558     1   111.5100476 526.347200
   3555   3556   3576     1   110.1900474 564.840000
   3555   3566   3571     1   110.1900474 564.840000
   3555   3573   3560     1   112.4800480 524.673600
   3556   3558   3559     1   111.5100476 526.347200
   3556   3558   3565     1   110.1900474 564.840000
   3556   3555   3566     1   111.5100476 526.347200
   3556   3555   3573     1   107.9700462 569.024000
   3558   3559   3560     1   111.5100476 526.347200
   3558   3559   3578     1   111.0400475 552.288000
   3558   3556   3576     1   110.1900474 564.840000
   3559   3560   3564     1   110.1900474 564.840000
   3559   3560   3573     1   107.9700462 569.024000
   3559   3558   3565     1   110.1900474 564.840000
   3560   3559   3578     1   111.0400475 552.288000
   3564   3560   3573     1   109.3800466 607.516800
   3566   3555   3573     1   107.9700462 569.024000
   3579   3581   3583     1   111.6100477 551.451200
   3581   3583   3587     1   111.0400475 552.288000
   3583   3587   3588     1   112.3500484 533.878400
   3583   3587   3589     1   112.3500484 533.878400
   3587   3588   3599     1   111.0400475 552.288000
   3587   3589   3591     1   111.0400475 552.288000
   3588   3587   3589     1   112.3500484 533.878400
   3588   3599   3602     1   111.0400475 529.694400
   3589   3591   3595     1   111.0400475 529.694400
   3591   3595   3596     1   123.2000528 564.003200
   3591   3595   3627     1   112.2600482 538.062400
   3595   3627   3608     1   118.5150508 540.957728
   3596   3595   3627     1   118.8300510 581.576000
   3599   3602   3603     1   123.2000528 564.003200
   3599   3602   3651     1   112.2600482 538.062400
   3602   3651   3632     1   118.5150508 540.957728
   3603   3602   3651     1   118.8300510 581.576000
   3604   3605   3607     1   111.5100476 526.347200
   3604   3605   3625     1   110.1900474 564.840000
   3604   3615   3620     1   110.1900474 564.840000
   3604   3622   3609     1   112.4800480 524.673600
   3605   3604   3615     1   111.5100476 526.347200
   3605   3604   3622     1   107.9700462 569.024000
   3605   3607   3608     1   111.5100476 526.347200
   3605   3607   3614     1   110.1900474 564.840000
   3607   3605   3625     1   110.1900474 564.840000
   3607   3608   3609     1   111.5100476 526.347200
   3607   3608   3627     1   111.0400475 552.288000
   3608   3607   3614     1   110.1900474 564.840000
   3608   3609   3613     1   110.1900474 564.840000
   3608   3609   3622     1   107.9700462 569.024000
   3609   3608   3627     1   111.0400475 552.288000
   3613   3609   3622     1   109.3800466 607.516800
   3615   3604   3622     1   107.9700462 569.024000
   3628   3629   3631     1   111.5100476 526.347200
   3628   3629   3649     1   110.1900474 564.840000
   3628   3639   3644     1   110.1900474 564.840000
   3628   3646   3633     1   112.4800480 524.673600
   3629   3628   3639     1   111.5100476 526.347200
   3629   3628   3646     1   107.9700462 569.024000
   3629   3631   3632     1   111.5100476 526.347200
   3629   3631   3638     1   110.1900474 564.840000
   3631   3629   3649     1   110.1900474 564.840000
   3631   3632   3633     1   111.5100476 526.347200
   3631   3632   3651     1   111.0400475 552.288000
   3632   3631   3638     1   110.1900474 564.840000
   3632   3633   3637     1   110.1900474 564.840000
   3632   3633   3646     1   107.9700462 569.024000
   3633   3632   3651     1   111.0400475 552.288000
   3637   3633   3646     1   109.3800466 607.516800
   3639   3628   3646     1   107.9700462 569.024000
   3652   3654   3656     1   111.6100477 551.451200
   3654   3656   3660     1   111.0400475 552.288000
   3656   3660   3661     1   112.3500484 533.878400
   3656   3660   3662     1   112.3500484 533.878400
   3660   3661   3672     1   111.0400475 552.288000
   3660   3662   3664     1   111.0400475 552.288000
   3661   3672   3675     1   111.0400475 529.694400
   3661   3660   3662     1   112.3500484 533.878400
   3662   3664   3668     1   111.0400475 529.694400
   3664   3668   3669     1   123.2000528 564.003200
   3664   3668   3700     1   112.2600482 538.062400
   3668   3700   3681     1   118.5150508 540.957728
   3669   3668   3700     1   118.8300510 581.576000
   3672   3675   3676     1   123.2000528 564.003200
   3672   3675   3724     1   112.2600482 538.062400
   3675   3724   3705     1   118.5150508 540.957728
   3676   3675   3724     1   118.8300510 581.576000
   3677   3678   3680     1   111.5100476 526.347200
   3677   3678   3698     1   110.1900474 564.840000
   3677   3688   3693     1   110.1900474 564.840000
   3677   3695   3682     1   112.4800480 524.673600
   3678   3680   3681     1   111.5100476 526.347200
   3678   3680   3687     1   110.1900474 564.840000
   3678   3677   3688     1   111.5100476 526.347200
   3678   3677   3695     1   107.9700462 569.024000
   3680   3681   3682     1   111.5100476 526.347200
   3680   3681   3700     1   111.0400475 552.288000
   3680   3678   3698     1   110.1900474 564.840000
   3681   3682   3686     1   110.1900474 564.840000
   3681   3682   3695     1   107.9700462 569.024000
   3681   3680   3687     1   110.1900474 564.840000
   3682   3681   3700     1   111.0400475 552.288000
   3686   3682   3695     1   109.3800466 607.516800
   3688   3677   3695     1   107.9700462 569.024000
   3701   3702   3704     1   111.5100476 526.347200
   3701   3702   3722     1   110.1900474 564.840000
   3701   3712   3717     1   110.1900474 564.840000
   3701   3719   3706     1   112.4800480 524.673600
   3702   3704   3705     1   111.5100476 526.347200
   3702   3704   3711     1   110.1900474 564.840000
   3702   3701   3712     1   111.5100476 526.347200
   3702   3701   3719     1   107.9700462 569.024000
   3704   3705   3706     1   111.5100476 526.347200
   3704   3705   3724     1   111.0400475 552.288000
   3704   3702   3722     1   110.1900474 564.840000
   3705   3706   3710     1   110.1900474 564.840000
   3705   3706   3719     1   107.9700462 569.024000
   3705   3704   3711     1   110.1900474 564.840000
   3706   3705   3724     1   111.0400475 552.288000
   3710   3706   3719     1   109.3800466 607.516800
   3712   3701   3719     1   107.9700462 569.024000
   3725   3727   3729     1   111.6100477 551.451200
   3727   3729   3733     1   111.0400475 552.288000
   3729   3733   3734     1   112.3500484 533.878400
   3729   3733   3735     1   112.3500484 533.878400
   3733   3734   3745     1   111.0400475 552.288000
   3733   3735   3737     1   111.0400475 552.288000
   3734   3733   3735     1   112.3500484 533.878400
   3734   3745   3748     1   111.0400475 529.694400
   3735   3737   3741     1   111.0400475 529.694400
   3737   3741   3742     1   123.2000528 564.003200
   3737   3741   3773     1   112.2600482 538.062400
   3741   3773   3754     1   118.5150508 540.957728
   3742   3741   3773     1   118.8300510 581.576000
   3745   3748   3749     1   123.2000528 564.003200
   3745   3748   3797     1   112.2600482 538.062400
   3748   3797   3778     1   118.5150508 540.957728
   3749   3748   3797     1   118.8300510 581.576000
   3750   3751   3753     1   111.5100476 526.347200
   3750   3751   3771     1   110.1900474 564.840000
   3750   3761   3766     1   110.1900474 564.840000
   3750   3768   3755     1   112.4800480 524.673600
   3751   3750   3761     1   111.5100476 526.347200
   3751   3750   3768     1   107.9700462 569.024000
   3751   3753   3754     1   111.5100476 526.347200
   3751   3753   3760     1   110.1900474 564.840000
   3753   3751   3771     1   110.1900474 564.840000
   3753   3754   3755     1   111.5100476 526.347200
   3753   3754   3773     1   111.0400475 552.288000
   3754   3753   3760     1   110.1900474 564.840000
   3754   3755   3759     1   110.1900474 564.840000
   3754   3755   3768     1   107.9700462 569.024000
   3755   3754   3773     1   111.0400475 552.288000
   3759   3755   3768     1   109.3800466 607.516800
   3761   3750   3768     1   107.9700462 569.024000
   3774   3775   3777     1   111.5100476 526.347200
   3774   3775   3795     1   110.1900474 564.840000
   3774   3785   3790     1   110.1900474 564.840000
   3774   3792   3779     1   112.4800480 524.673600
   3775   3774   3785     1   111.5100476 526.347200
   3775   3774   3792     1   107.9700462 569.024000
   3775   3777   3778     1   111.5100476 526.347200
   3775   3777   3784     1   110.1900474 564.840000
   3777   3775   3795     1   110.1900474 564.840000
   3777   3778   3779     1   111.5100476 526.347200
   3777   3778   3797     1   111.0400475 552.288000
   3778   3777   3784     1   110.1900474 564.840000
   3778   3779   3783     1   110.1900474 564.840000
   3778   3779   3792     1   107.9700462 569.024000
   3779   3778   3797     1   111.0400475 552.288000
   3783   3779   3792     1   109.3800466 607.516800
   3785   3774   3792     1   107.9700462 569.024000
   3798   3800   3802     1   111.6100477 551.451200
   3800   3802   3806     1   111.0400475 552.288000
   3802   3806   3807     1   112.3500484 533.878400
   3802   3806   3808     1   112.3500484 533.878400
   3806   3807   3818     1   111.0400475 552.288000
   3806   3808   3810     1   111.0400475 552.288000
   3807   3818   3821     1   111.0400475 529.694400
   3807   3806   3808     1   112.3500484 533.878400
   3808   3810   3814     1   111.0400475 529.694400
   3810   3814   3815     1   123.2000528 564.003200
   3810   3814   3846     1   112.2600482 538.062400
   3814   3846   3827     1   118.5150508 540.957728
   3815   3814   3846     1   118.8300510 581.576000
   3818   3821   3822     1   123.2000528 564.003200
   3818   3821   3870     1   112.2600482 538.062400
   3821   3870   3851     1   118.5150508 540.957728
   3822   3821   3870     1   118.8300510 581.576000
   3823   3824   3826     1   111.5100476 526.347200
   3823   3824   3844     1   110.1900474 564.840000
   3823   3834   3839     1   110.1900474 564.840000
   3823   3841   3828     1   112.4800480 524.673600
   3824   3826   3827     1   111.5100476 526.347200
   3824   3826   3833     1   110.1900474 564.840000
   3824   3823   3834     1   111.5100476 526.347200
   3824   3823   3841     1   107.9700462 569.024000
   3826   3827   3828     1   111.5100476 526.347200
   3826   3827   3846     1   111.0400475 552.288000
   3826   3824   3844     1   110.1900474 564.840000
   3827   3828   3832     1   110.1900474 564.840000
   3827   3828   3841     1   107.9700462 569.024000
   3827   3826   3833     1   110.1900474 564.840000
   3828   3827   3846     1   111.0400475 552.288000
   3832   3828   3841     1   109.3800466 607.516800
   3834   3823   3841     1   107.9700462 569.024000
   3847   3848   3850     1   111.5100476 526.347200
   3847   3848   3868     1   110.1900474 564.840000
   3847   3858   3863     1   110.1900474 564.840000
   3847   3865   3852     1   112.4800480 524.673600
   3848   3850   3851     1   111.5100476 526.347200
   3848   3850   3857     1   110.1900474 564.840000
   3848   3847   3858     1   111.5100476 526.347200
   3848   3847   3865     1   107.9700462 569.024000
   3850   3851   3852     1   111.5100476 526.347200
   3850   3851   3870     1   111.0400475 552.288000
   3850   3848   3868     1   110.1900474 564.840000
   3851   3852   3856     1   110.1900474 564.840000
   3851   3852   3865     1   107.9700462 569.024000
   3851   3850   3857     1   110.1900474 564.840000
   3852   3851   3870     1   111.0400475 552.288000
   3856   3852   3865     1   109.3800466 607.516800
   3858   3847   3865     1   107.9700462 569.024000
   3871   3873   3875     1   111.6100477 551.451200
   3873   3875   3879     1   111.0400475 552.288000
   3875   3879   3880     1   112.3500484 533.878400
   3875   3879   3881     1   112.3500484 533.878400
   3879   3880   3891     1   111.0400475 552.288000
   3879   3881   3883     1   111.0400475 552.288000
   3880   3879   3881     1   112.3500484 533.878400
   3880   3891   3894     1   111.0400475 529.694400
   3881   3883   3887     1   111.0400475 529.694400
   3883   3887   3888     1   123.2000528 564.003200
   3883   3887   3919     1   112.2600482 538.062400
   3887   3919   3900     1   118.5150508 540.957728
   3888   3887   3919     1   118.8300510 581.576000
   3891   3894   3895     1   123.2000528 564.003200
   3891   3894   3943     1   112.2600482 538.062400
   3894   3943   3924     1   118.5150508 540.957728
   3895   3894   3943     1   118.8300510 581.576000
   3896   3897   3899     1   111.5100476 526.347200
   3896   3897   3917     1   110.1900474 564.840000
   3896   3907   3912     1   110.1900474 564.840000
   3896   3914   3901     1   112.4800480 524.673600
   3897   3896   3907     1   111.5100476 526.347200
   3897   3896   3914     1   107.9700462 569.024000
   3897   3899   3900     1   111.5100476 526.347200
   3897   3899   3906     1   110.1900474 564.840000
   3899   3897   3917     1   110.1900474 564.840000
   3899   3900   3901     1   111.5100476 526.347200
   3899   3900   3919     1   111.0400475 552.288000
   3900   3899   3906     1   110.1900474 564.840000
   3900   3901   3905     1   110.1900474 564.840000
   3900   3901   3914     1   107.9700462 569.024000
   3901   3900   3919     1   111.0400475 552.288000
   3905   3901   3914     1   109.3800466 607.516800
   3907   3896   3914     1   107.9700462 569.024000
   3920   3921   3923     1   111.5100476 526.347200
   3920   3921   3941     1   110.1900474 564.840000
   3920   3931   3936     1   110.1900474 564.840000
   3920   3938   3925     1   112.4800480 524.673600
   3921   3920   3931     1   111.5100476 526.347200
   3921   3920   3938     1   107.9700462 569.024000
   3921   3923   3924     1   111.5100476 526.347200
   3921   3923   3930     1   110.1900474 564.840000
   3923   3921   3941     1   110.1900474 564.840000
   3923   3924   3925     1   111.5100476 526.347200
   3923   3924   3943     1   111.0400475 552.288000
   3924   3923   3930     1   110.1900474 564.840000
   3924   3925   3929     1   110.1900474 564.840000
   3924   3925   3938     1   107.9700462 569.024000
   3925   3924   3943     1   111.0400475 552.288000
   3929   3925   3938     1   109.3800466 607.516800
   3931   3920   3938     1   107.9700462 569.024000
   3944   3946   3948     1   111.6100477 551.451200
   3946   3948   3952     1   111.0400475 552.288000
   3948   3952   3953     1   112.3500484 533.878400
   3948   3952   3954     1   112.3500484 533.878400
   3952   3953   3964     1   111.0400475 552.288000
   3952   3954   3956     1   111.0400475 552.288000
   3953   3964   3967     1   111.0400475 529.694400
   3953   3952   3954     1   112.3500484 533.878400
   3954   3956   3960     1   111.0400475 529.694400
   3956   3960   3961     1   123.2000528 564.003200
   3956   3960   3992     1   112.2600482 538.062400
   3960   3992   3973     1   118.5150508 540.957728
   3961   3960   3992     1   118.8300510 581.576000
   3964   3967   3968     1   123.2000528 564.003200
   3964   3967   4016     1   112.2600482 538.062400
   3967   4016   3997     1   118.5150508 540.957728
   3968   3967   4016     1   118.8300510 581.576000
   3969   3970   3972     1   111.5100476 526.347200
   3969   3970   3990     1   110.1900474 564.840000
   3969   3980   3985     1   110.1900474 564.840000
   3969   3987   3974     1   112.4800480 524.673600
   3970   3972   3973     1   111.5100476 526.347200
   3970   3972   3979     1   110.1900474 564.840000
   3970   3969   3980     1   111.5100476 526.347200
   3970   3969   3987     1   107.9700462 569.024000
   3972   3973   3974     1   111.5100476 526.347200
   3972   3973   3992     1   111.0400475 552.288000
   3972   3970   3990     1   110.1900474 564.840000
   3973   3974   3978     1   110.1900474 564.840000
   3973   3974   3987     1   107.9700462 569.024000
   3973   3972   3979     1   110.1900474 564.840000
   3974   3973   3992     1   111.0400475 552.288000
   3978   3974   3987     1   109.3800466 607.516800
   3980   3969   3987     1   107.9700462 569.024000
   3993   3994   3996     1   111.5100476 526.347200
   3993   3994   4014     1   110.1900474 564.840000
   3993   4004   4009     1   110.1900474 564.840000
   3993   4011   3998     1   112.4800480 524.673600
   3994   3996   3997     1   111.5100476 526.347200
   3994   3996   4003     1   110.1900474 564.840000
   3994   3993   4004     1   111.5100476 526.347200
   3994   3993   4011     1   107.9700462 569.024000
   3996   3997   3998     1   111.5100476 526.347200
   3996   3997   4016     1   111.0400475 552.288000
   3996   3994   4014     1   110.1900474 564.840000
   3997   3998   4002     1   110.1900474 564.840000
   3997   3998   4011     1   107.9700462 569.024000
   3997   3996   4003     1   110.1900474 564.840000
   3998   3997   4016     1   111.0400475 552.288000
   4002   3998   4011     1   109.3800466 607.516800
   4004   3993   4011     1   107.9700462 569.024000
   4017   4019   4021     1   111.6100477 551.451200
   4019   4021   4025     1   111.0400475 552.288000
   4021   4025   4026     1   112.3500484 533.878400
   4021   4025   4027     1   112.3500484 533.878400
   4025   4026   4037     1   111.0400475 552.288000
   4025   4027   4029     1   111.0400475 552.288000
   4026   4025   4027     1   112.3500484 533.878400
   4026   4037   4040     1   111.0400475 529.694400
   4027   4029   4033     1   111.0400475 529.694400
   4029   4033   4034     1   123.2000528 564.003200
   4029   4033   4065     1   112.2600482 538.062400
   4033   4065   4046     1   118.5150508 540.957728
   4034   4033   4065     1   118.8300510 581.576000
   4037   4040   4041     1   123.2000528 564.003200
   4037   4040   4089     1   112.2600482 538.062400
   4040   4089   4070     1   118.5150508 540.957728
   4041   4040   4089     1   118.8300510 581.576000
   4042   4043   4045     1   111.5100476 526.347200
   4042   4043   4063     1   110.1900474 564.840000
   4042   4053   4058     1   110.1900474 564.840000
   4042   4060   4047     1   112.4800480 524.673600
   4043   4042   4053     1   111.5100476 526.347200
   4043   4042   4060     1   107.9700462 569.024000
   4043   4045   4046     1   111.5100476 526.347200
   4043   4045   4052     1   110.1900474 564.840000
   4045   4043   4063     1   110.1900474 564.840000
   4045   4046   4047     1   111.5100476 526.347200
   4045   4046   4065     1   111.0400475 552.288000
   4046   4045   4052     1   110.1900474 564.840000
   4046   4047   4051     1   110.1900474 564.840000
   4046   4047   4060     1   107.9700462 569.024000
   4047   4046   4065     1   111.0400475 552.288000
   4051   4047   4060     1   109.3800466 607.516800
   4053   4042   4060     1   107.9700462 569.024000
   4066   4067   4069     1   111.5100476 526.347200
   4066   4067   4087     1   110.1900474 564.840000
   4066   4077   4082     1   110.1900474 564.840000
   4066   4084   4071     1   112.4800480 524.673600
   4067   4066   4077     1   111.5100476 526.347200
   4067   4066   4084     1   107.9700462 569.024000
   4067   4069   4070     1   111.5100476 526.347200
   4067   4069   4076     1   110.1900474 564.840000
   4069   4067   4087     1   110.1900474 564.840000
   4069   4070   4071     1   111.5100476 526.347200
   4069   4070   4089     1   111.0400475 552.288000
   4070   4069   4076     1   110.1900474 564.840000
   4070   4071   4075     1   110.1900474 564.840000
   4070   4071   4084     1   107.9700462 569.024000
   4071   4070   4089     1   111.0400475 552.288000
   4075   4071   4084     1   109.3800466 607.516800
   4077   4066   4084     1   107.9700462 569.024000
   4090   4092   4094     1   111.6100477 551.451200
   4092   4094   4098     1   111.0400475 552.288000
   4094   4098   4099     1   112.3500484 533.878400
   4094   4098   4100     1   112.3500484 533.878400
   4098   4099   4110     1   111.0400475 552.288000
   4098   4100   4102     1   111.0400475 552.288000
   4099   4110   4113     1   111.0400475 529.694400
   4099   4098   4100     1   112.3500484 533.878400
   4100   4102   4106     1   111.0400475 529.694400
   4102   4106   4107     1   123.2000528 564.003200
   4102   4106   4138     1   112.2600482 538.062400
   4106   4138   4119     1   118.5150508 540.957728
   4107   4106   4138     1   118.8300510 581.576000
   4110   4113   4114     1   123.2000528 564.003200
   4110   4113   4162     1   112.2600482 538.062400
   4113   4162   4143     1   118.5150508 540.957728
   4114   4113   4162     1   118.8300510 581.576000
   4115   4116   4118     1   111.5100476 526.347200
   4115   4116   4136     1   110.1900474 564.840000
   4115   4126   4131     1   110.1900474 564.840000
   4115   4133   4120     1   112.4800480 524.673600
   4116   4118   4119     1   111.5100476 526.347200
   4116   4118   4125     1   110.1900474 564.840000
   4116   4115   4126     1   111.5100476 526.347200
   4116   4115   4133     1   107.9700462 569.024000
   4118   4119   4120     1   111.5100476 526.347200
   4118   4119   4138     1   111.0400475 552.288000
   4118   4116   4136     1   110.1900474 564.840000
   4119   4120   4124     1   110.1900474 564.840000
   4119   4120   4133     1   107.9700462 569.024000
   4119   4118   4125     1   110.1900474 564.840000
   4120   4119   4138     1   111.0400475 552.288000
   4124   4120   4133     1   109.3800466 607.516800
   4126   4115   4133     1   107.9700462 569.024000
   4139   4140   4142     1   111.5100476 526.347200
   4139   4140   4160     1   110.1900474 564.840000
   4139   4150   4155     1   110.1900474 564.840000
   4139   4157   4144     1   112.4800480 524.673600
   4140   4142   4143     1   111.5100476 526.347200
   4140   4142   4149     1   110.1900474 564.840000
   4140   4139   4150     1   111.5100476 526.347200
   4140   4139   4157     1   107.9700462 569.024000
   4142   4143   4144     1   111.5100476 526.347200
   4142   4143   4162     1   111.0400475 552.288000
   4142   4140   4160     1   110.1900474 564.840000
   4143   4144   4148     1   110.1900474 564.840000
   4143   4144   4157     1   107.9700462 569.024000
   4143   4142   4149     1   110.1900474 564.840000
   4144   4143   4162     1   111.0400475 552.288000
   4148   4144   4157     1   109.3800466 607.516800
   4150   4139   4157     1   107.9700462 569.024000
   4163   4165   4167     1   111.6100477 551.451200
   4165   4167   4171     1   111.0400475 552.288000
   4167   4171   4172     1   112.3500484 533.878400
   4167   4171   4173     1   112.3500484 533.878400
   4171   4172   4183     1   111.0400475 552.288000
   4171   4173   4175     1   111.0400475 552.288000
   4172   4171   4173     1   112.3500484 533.878400
   4172   4183   4186     1   111.0400475 529.694400
   4173   4175   4179     1   111.0400475 529.694400
   4175   4179   4180     1   123.2000528 564.003200
   4175   4179   4211     1   112.2600482 538.062400
   4179   4211   4192     1   118.5150508 540.957728
   4180   4179   4211     1   118.8300510 581.576000
   4183   4186   4187     1   123.2000528 564.003200
   4183   4186   4235     1   112.2600482 538.062400
   4186   4235   4216     1   118.5150508 540.957728
   4187   4186   4235     1   118.8300510 581.576000
   4188   4189   4191     1   111.5100476 526.347200
   4188   4189   4209     1   110.1900474 564.840000
   4188   4199   4204     1   110.1900474 564.840000
   4188   4206   4193     1   112.4800480 524.673600
   4189   4188   4199     1   111.5100476 526.347200
   4189   4188   4206     1   107.9700462 569.024000
   4189   4191   4192     1   111.5100476 526.347200
   4189   4191   4198     1   110.1900474 564.840000
   4191   4189   4209     1   110.1900474 564.840000
   4191   4192   4193     1   111.5100476 526.347200
   4191   4192   4211     1   111.0400475 552.288000
   4192   4191   4198     1   110.1900474 564.840000
   4192   4193   4197     1   110.1900474 564.840000
   4192   4193   4206     1   107.9700462 569.024000
   4193   4192   4211     1   111.0400475 552.288000
   4197   4193   4206     1   109.3800466 607.516800
   4199   4188   4206     1   107.9700462 569.024000
   4212   4213   4215     1   111.5100476 526.347200
   4212   4213   4233     1   110.1900474 564.840000
   4212   4223   4228     1   110.1900474 564.840000
   4212   4230   4217     1   112.4800480 524.673600
   4213   4212   4223     1   111.5100476 526.347200
   4213   4212   4230     1   107.9700462 569.024000
   4213   4215   4216     1   111.5100476 526.347200
   4213   4215   4222     1   110.1900474 564.840000
   4215   4213   4233     1   110.1900474 564.840000
   4215   4216   4217     1   111.5100476 526.347200
   4215   4216   4235     1   111.0400475 552.288000
   4216   4215   4222     1   110.1900474 564.840000
   4216   4217   4221     1   110.1900474 564.840000
   4216   4217   4230     1   107.9700462 569.024000
   4217   4216   4235     1   111.0400475 552.288000
   4221   4217   4230     1   109.3800466 607.516800
   4223   4212   4230     1   107.9700462 569.024000
   4236   4238   4240     1   111.6100477 551.451200
   4238   4240   4244     1   111.0400475 552.288000
   4240   4244   4245     1   112.3500484 533.878400
   4240   4244   4246     1   112.3500484 533.878400
   4244   4245   4256     1   111.0400475 552.288000
   4244   4246   4248     1   111.0400475 552.288000
   4245   4256   4259     1   111.0400475 529.694400
   4245   4244   4246     1   112.3500484 533.878400
   4246   4248   4252     1   111.0400475 529.694400
   4248   4252   4253     1   123.2000528 564.003200
   4248   4252   4284     1   112.2600482 538.062400
   4252   4284   4265     1   118.5150508 540.957728
   4253   4252   4284     1   118.8300510 581.576000
   4256   4259   4260     1   123.2000528 564.003200
   4256   4259   4308     1   112.2600482 538.062400
   4259   4308   4289     1   118.5150508 540.957728
   4260   4259   4308     1   118.8300510 581.576000
   4261   4262   4264     1   111.5100476 526.347200
   4261   4262   4282     1   110.1900474 564.840000
   4261   4272   4277     1   110.1900474 564.840000
   4261   4279   4266     1   112.4800480 524.673600
   4262   4264   4265     1   111.5100476 526.347200
   4262   4264   4271     1   110.1900474 564.840000
   4262   4261   4272     1   111.5100476 526.347200
   4262   4261   4279     1   107.9700462 569.024000
   4264   4265   4266     1   111.5100476 526.347200
   4264   4265   4284     1   111.0400475 552.288000
   4264   4262   4282     1   110.1900474 564.840000
   4265   4266   4270     1   110.1900474 564.840000
   4265   4266   4279     1   107.9700462 569.024000
   4265   4264   4271     1   110.1900474 564.840000
   4266   4265   4284     1   111.0400475 552.288000
   4270   4266   4279     1   109.3800466 607.516800
   4272   4261   4279     1   107.9700462 569.024000
   4285   4286   4288     1   111.5100476 526.347200
   4285   4286   4306     1   110.1900474 564.840000
   4285   4296   4301     1   110.1900474 564.840000
   4285   4303   4290     1   112.4800480 524.673600
   4286   4288   4289     1   111.5100476 526.347200
   4286   4288   4295     1   110.1900474 564.840000
   4286   4285   4296     1   111.5100476 526.347200
   4286   4285   4303     1   107.9700462 569.024000
   4288   4289   4290     1   111.5100476 526.347200
   4288   4289   4308     1   111.0400475 552.288000
   4288   4286   4306     1   110.1900474 564.840000
   4289   4290   4294     1   110.1900474 564.840000
   4289   4290   4303     1   107.9700462 569.024000
   4289   4288   4295     1   110.1900474 564.840000
   4290   4289   4308     1   111.0400475 552.288000
   4294   4290   4303     1   109.3800466 607.516800
   4296   4285   4303     1   107.9700462 569.024000
   4309   4311   4313     1   111.6100477 551.451200
   4311   4313   4317     1   111.0400475 552.288000
   4313   4317   4318     1   112.3500484 533.878400
   4313   4317   4319     1   112.3500484 533.878400
   4317   4318   4329     1   111.0400475 552.288000
   4317   4319   4321     1   111.0400475 552.288000
   4318   4317   4319     1   112.3500484 533.878400
   4318   4329   4332     1   111.0400475 529.694400
   4319   4321   4325     1   111.0400475 529.694400
   4321   4325   4326     1   123.2000528 564.003200
   4321   4325   4357     1   112.2600482 538.062400
   4325   4357   4338     1   118.5150508 540.957728
   4326   4325   4357     1   118.8300510 581.576000
   4329   4332   4333     1   123.2000528 564.003200
   4329   4332   4381     1   112.2600482 538.062400
   4332   4381   4362     1   118.5150508 540.957728
   4333   4332   4381     1   118.8300510 581.576000
   4334   4335   4337     1   111.5100476 526.347200
   4334   4335   4355     1   110.1900474 564.840000
   4334   4345   4350     1   110.1900474 564.840000
   4334   4352   4339     1   112.4800480 524.673600
   4335   4334   4345     1   111.5100476 526.347200
   4335   4334   4352     1   107.9700462 569.024000
   4335   4337   4338     1   111.5100476 526.347200
   4335   4337   4344     1   110.1900474 564.840000
   4337   4335   4355     1   110.1900474 564.840000
   4337   4338   4339     1   111.5100476 526.347200
   4337   4338   4357     1   111.0400475 552.288000
   4338   4337   4344     1   110.1900474 564.840000
   4338   4339   4343     1   110.1900474 564.840000
   4338   4339   4352     1   107.9700462 569.024000
   4339   4338   4357     1   111.0400475 552.288000
   4343   4339   4352     1   109.3800466 607.516800
   4345   4334   4352     1   107.9700462 569.024000
   4358   4359   4361     1   111.5100476 526.347200
   4358   4359   4379     1   110.1900474 564.840000
   4358   4369   4374     1   110.1900474 564.840000
   4358   4376   4363     1   112.4800480 524.673600
   4359   4358   4369     1   111.5100476 526.347200
   4359   4358   4376     1   107.9700462 569.024000
   4359   4361   4362     1   111.5100476 526.347200
   4359   4361   4368     1   110.1900474 564.840000
   4361   4359   4379     1   110.1900474 564.840000
   4361   4362   4363     1   111.5100476 526.347200
   4361   4362   4381     1   111.0400475 552.288000
   4362   4361   4368     1   110.1900474 564.840000
   4362   4363   4367     1   110.1900474 564.840000
   4362   4363   4376     1   107.9700462 569.024000
   4363   4362   4381     1   111.0400475 552.288000
   4367   4363   4376     1   109.3800466 607.516800
   4369   4358   4376     1   107.9700462 569.024000
   4382   4384   4386     1   111.6100477 551.451200
   4384   4386   4390     1   111.0400475 552.288000
   4386   4390   4391     1   112.3500484 533.878400
   4386   4390   4392     1   112.3500484 533.878400
   4390   4391   4402     1   111.0400475 552.288000
   4390   4392   4394     1   111.0400475 552.288000
   4391   4402   4405     1   111.0400475 529.694400
   4391   4390   4392     1   112.3500484 533.878400
   4392   4394   4398     1   111.0400475 529.694400
   4394   4398   4399     1   123.2000528 564.003200
   4394   4398   4430     1   112.2600482 538.062400
   4398   4430   4411     1   118.5150508 540.957728
   4399   4398   4430     1   118.8300510 581.576000
   4402   4405   4406     1   123.2000528 564.003200
   4402   4405   4454     1   112.2600482 538.062400
   4405   4454   4435     1   118.5150508 540.957728
   4406   4405   4454     1   118.8300510 581.576000
   4407   4408   4410     1   111.5100476 526.347200
   4407   4408   4428     1   110.1900474 564.840000
   4407   4418   4423     1   110.1900474 564.840000
   4407   4425   4412     1   112.4800480 524.673600
   4408   4410   4411     1   111.5100476 526.347200
   4408   4410   4417     1   110.1900474 564.840000
   4408   4407   4418     1   111.5100476 526.347200
   4408   4407   4425     1   107.9700462 569.024000
   4410   4411   4412     1   111.5100476 526.347200
   4410   4411   4430     1   111.0400475 552.288000
   4410   4408   4428     1   110.1900474 564.840000
   4411   4412   4416     1   110.1900474 564.840000
   4411   4412   4425     1   107.9700462 569.024000
   4411   4410   4417     1   110.1900474 564.840000
   4412   4411   4430     1   111.0400475 552.288000
   4416   4412   4425     1   109.3800466 607.516800
   4418   4407   4425     1   107.9700462 569.024000
   4431   4432   4434     1   111.5100476 526.347200
   4431   4432   4452     1   110.1900474 564.840000
   4431   4442   4447     1   110.1900474 564.840000
   4431   4449   4436     1   112.4800480 524.673600
   4432   4434   4435     1   111.5100476 526.347200
   4432   4434   4441     1   110.1900474 564.840000
   4432   4431   4442     1   111.5100476 526.347200
   4432   4431   4449     1   107.9700462 569.024000
   4434   4435   4436     1   111.5100476 526.347200
   4434   4435   4454     1   111.0400475 552.288000
   4434   4432   4452     1   110.1900474 564.840000
   4435   4436   4440     1   110.1900474 564.840000
   4435   4436   4449     1   107.9700462 569.024000
   4435   4434   4441     1   110.1900474 564.840000
   4436   4435   4454     1   111.0400475 552.288000
   4440   4436   4449     1   109.3800466 607.516800
   4442   4431   4449     1   107.9700462 569.024000
   4455   4457   4459     1   111.6100477 551.451200
   4457   4459   4463     1   111.0400475 552.288000
   4459   4463   4464     1   112.3500484 533.878400
   4459   4463   4465     1   112.3500484 533.878400
   4463   4464   4475     1   111.0400475 552.288000
   4463   4465   4467     1   111.0400475 552.288000
   4464   4463   4465     1   112.3500484 533.878400
   4464   4475   4478     1   111.0400475 529.694400
   4465   4467   4471     1   111.0400475 529.694400
   4467   4471   4472     1   123.2000528 564.003200
   4467   4471   4503     1   112.2600482 538.062400
   4471   4503   4484     1   118.5150508 540.957728
   4472   4471   4503     1   118.8300510 581.576000
   4475   4478   4479     1   123.2000528 564.003200
   4475   4478   4527     1   112.2600482 538.062400
   4478   4527   4508     1   118.5150508 540.957728
   4479   4478   4527     1   118.8300510 581.576000
   4480   4481   4483     1   111.5100476 526.347200
   4480   4481   4501     1   110.1900474 564.840000
   4480   4491   4496     1   110.1900474 564.840000
   4480   4498   4485     1   112.4800480 524.673600
   4481   4480   4491     1   111.5100476 526.347200
   4481   4480   4498     1   107.9700462 569.024000
   4481   4483   4484     1   111.5100476 526.347200
   4481   4483   4490     1   110.1900474 564.840000
   4483   4481   4501     1   110.1900474 564.840000
   4483   4484   4485     1   111.5100476 526.347200
   4483   4484   4503     1   111.0400475 552.288000
   4484   4483   4490     1   110.1900474 564.840000
   4484   4485   4489     1   110.1900474 564.840000
   4484   4485   4498     1   107.9700462 569.024000
   4485   4484   4503     1   111.0400475 552.288000
   4489   4485   4498     1   109.3800466 607.516800
   4491   4480   4498     1   107.9700462 569.024000
   4504   4505   4507     1   111.5100476 526.347200
   4504   4505   4525     1   110.1900474 564.840000
   4504   4515   4520     1   110.1900474 564.840000
   4504   4522   4509     1   112.4800480 524.673600
   4505   4504   4515     1   111.5100476 526.347200
   4505   4504   4522     1   107.9700462 569.024000
   4505   4507   4508     1   111.5100476 526.347200
   4505   4507   4514     1   110.1900474 564.840000
   4507   4505   4525     1   110.1900474 564.840000
   4507   4508   4509     1   111.5100476 526.347200
   4507   4508   4527     1   111.0400475 552.288000
   4508   4507   4514     1   110.1900474 564.840000
   4508   4509   4513     1   110.1900474 564.840000
   4508   4509   4522     1   107.9700462 569.024000
   4509   4508   4527     1   111.0400475 552.288000
   4513   4509   4522     1   109.3800466 607.516800
   4515   4504   4522     1   107.9700462 569.024000
   4528   4530   4532     1   111.6100477 551.451200
   4530   4532   4536     1   111.0400475 552.288000
   4532   4536   4537     1   112.3500484 533.878400
   4532   4536   4538     1   112.3500484 533.878400
   4536   4537   4548     1   111.0400475 552.288000
   4536   4538   4540     1   111.0400475 552.288000
   4537   4548   4551     1   111.0400475 529.694400
   4537   4536   4538     1   112.3500484 533.878400
   4538   4540   4544     1   111.0400475 529.694400
   4540   4544   4545     1   123.2000528 564.003200
   4540   4544   4576     1   112.2600482 538.062400
   4544   4576   4557     1   118.5150508 540.957728
   4545   4544   4576     1   118.8300510 581.576000
   4548   4551   4552     1   123.2000528 564.003200
   4548   4551   4600     1   112.2600482 538.062400
   4551   4600   4581     1   118.5150508 540.957728
   4552   4551   4600     1   118.8300510 581.576000
   4553   4554   4556     1   111.5100476 526.347200
   4553   4554   4574     1   110.1900474 564.840000
   4553   4564   4569     1   110.1900474 564.840000
   4553   4571   4558     1   112.4800480 524.673600
   4554   4556   4557     1   111.5100476 526.347200
   4554   4556   4563     1   110.1900474 564.840000
   4554   4553   4564     1   111.5100476 526.347200
   4554   4553   4571     1   107.9700462 569.024000
   4556   4557   4558     1   111.5100476 526.347200
   4556   4557   4576     1   111.0400475 552.288000
   4556   4554   4574     1   110.1900474 564.840000
   4557   4558   4562     1   110.1900474 564.840000
   4557   4558   4571     1   107.9700462 569.024000
   4557   4556   4563     1   110.1900474 564.840000
   4558   4557   4576     1   111.0400475 552.288000
   4562   4558   4571     1   109.3800466 607.516800
   4564   4553   4571     1   107.9700462 569.024000
   4577   4578   4580     1   111.5100476 526.347200
   4577   4578   4598     1   110.1900474 564.840000
   4577   4588   4593     1   110.1900474 564.840000
   4577   4595   4582     1   112.4800480 524.673600
   4578   4580   4581     1   111.5100476 526.347200
   4578   4580   4587     1   110.1900474 564.840000
   4578   4577   4588     1   111.5100476 526.347200
   4578   4577   4595     1   107.9700462 569.024000
   4580   4581   4582     1   111.5100476 526.347200
   4580   4581   4600     1   111.0400475 552.288000
   4580   4578   4598     1   110.1900474 564.840000
   4581   4582   4586     1   110.1900474 564.840000
   4581   4582   4595     1   107.9700462 569.024000
   4581   4580   4587     1   110.1900474 564.840000
   4582   4581   4600     1   111.0400475 552.288000
   4586   4582   4595     1   109.3800466 607.516800
   4588   4577   4595     1   107.9700462 569.024000
   4601   4603   4605     1   111.6100477 551.451200
   4603   4605   4609     1   111.0400475 552.288000
   4605   4609   4610     1   112.3500484 533.878400
   4605   4609   4611     1   112.3500484 533.878400
   4609   4610   4621     1   111.0400475 552.288000
   4609   4611   4613     1   111.0400475 552.288000
   4610   4609   4611     1   112.3500484 533.878400
   4610   4621   4624     1   111.0400475 529.694400
   4611   4613   4617     1   111.0400475 529.694400
   4613   4617   4618     1   123.2000528 564.003200
   4613   4617   4649     1   112.2600482 538.062400
   4617   4649   4630     1   118.5150508 540.957728
   4618   4617   4649     1   118.8300510 581.576000
   4621   4624   4625     1   123.2000528 564.003200
   4621   4624   4673     1   112.2600482 538.062400
   4624   4673   4654     1   118.5150508 540.957728
   4625   4624   4673     1   118.8300510 581.576000
   4626   4627   4629     1   111.5100476 526.347200
   4626   4627   4647     1   110.1900474 564.840000
   4626   4637   4642     1   110.1900474 564.840000
   4626   4644   4631     1   112.4800480 524.673600
   4627   4626   4637     1   111.5100476 526.347200
   4627   4626   4644     1   107.9700462 569.024000
   4627   4629   4630     1   111.5100476 526.347200
   4627   4629   4636     1   110.1900474 564.840000
   4629   4627   4647     1   110.1900474 564.840000
   4629   4630   4631     1   111.5100476 526.347200
   4629   4630   4649     1   111.0400475 552.288000
   4630   4629   4636     1   110.1900474 564.840000
   4630   4631   4635     1   110.1900474 564.840000
   4630   4631   4644     1   107.9700462 569.024000
   4631   4630   4649     1   111.0400475 552.288000
   4635   4631   4644     1   109.3800466 607.516800
   4637   4626   4644     1   107.9700462 569.024000
   4650   4651   4653     1   111.5100476 526.347200
   4650   4651   4671     1   110.1900474 564.840000
   4650   4661   4666     1   110.1900474 564.840000
   4650   4668   4655     1   112.4800480 524.673600
   4651   4650   4661     1   111.5100476 526.347200
   4651   4650   4668     1   107.9700462 569.024000
   4651   4653   4654     1   111.5100476 526.347200
   4651   4653   4660     1   110.1900474 564.840000
   4653   4651   4671     1   110.1900474 564.840000
   4653   4654   4655     1   111.5100476 526.347200
   4653   4654   4673     1   111.0400475 552.288000
   4654   4653   4660     1   110.1900474 564.840000
   4654   4655   4659     1   110.1900474 564.840000
   4654   4655   4668     1   107.9700462 569.024000
   4655   4654   4673     1   111.0400475 552.288000
   4659   4655   4668     1   109.3800466 607.516800
   4661   4650   4668     1   107.9700462 569.024000
   4674   4676   4678     1   111.6100477 551.451200
   4676   4678   4682     1   111.0400475 552.288000
   4678   4682   4683     1   112.3500484 533.878400
   4678   4682   4684     1   112.3500484 533.878400
   4682   4683   4694     1   111.0400475 552.288000
   4682   4684   4686     1   111.0400475 552.288000
   4683   4694   4697     1   111.0400475 529.694400
   4683   4682   4684     1   112.3500484 533.878400
   4684   4686   4690     1   111.0400475 529.694400
   4686   4690   4691     1   123.2000528 564.003200
   4686   4690   4722     1   112.2600482 538.062400
   4690   4722   4703     1   118.5150508 540.957728
   4691   4690   4722     1   118.8300510 581.576000
   4694   4697   4698     1   123.2000528 564.003200
   4694   4697   4746     1   112.2600482 538.062400
   4697   4746   4727     1   118.5150508 540.957728
   4698   4697   4746     1   118.8300510 581.576000
   4699   4700   4702     1   111.5100476 526.347200
   4699   4700   4720     1   110.1900474 564.840000
   4699   4710   4715     1   110.1900474 564.840000
   4699   4717   4704     1   112.4800480 524.673600
   4700   4702   4703     1   111.5100476 526.347200
   4700   4702   4709     1   110.1900474 564.840000
   4700   4699   4710     1   111.5100476 526.347200
   4700   4699   4717     1   107.9700462 569.024000
   4702   4703   4704     1   111.5100476 526.347200
   4702   4703   4722     1   111.0400475 552.288000
   4702   4700   4720     1   110.1900474 564.840000
   4703   4704   4708     1   110.1900474 564.840000
   4703   4704   4717     1   107.9700462 569.024000
   4703   4702   4709     1   110.1900474 564.840000
   4704   4703   4722     1   111.0400475 552.288000
   4708   4704   4717     1   109.3800466 607.516800
   4710   4699   4717     1   107.9700462 569.024000
   4723   4724   4726     1   111.5100476 526.347200
   4723   4724   4744     1   110.1900474 564.840000
   4723   4734   4739     1   110.1900474 564.840000
   4723   4741   4728     1   112.4800480 524.673600
   4724   4726   4727     1   111.5100476 526.347200
   4724   4726   4733     1   110.1900474 564.840000
   4724   4723   4734     1   111.5100476 526.347200
   4724   4723   4741     1   107.9700462 569.024000
   4726   4727   4728     1   111.5100476 526.347200
   4726   4727   4746     1   111.0400475 552.288000
   4726   4724   4744     1   110.1900474 564.840000
   4727   4728   4732     1   110.1900474 564.840000
   4727   4728   4741     1   107.9700462 569.024000
   4727   4726   4733     1   110.1900474 564.840000
   4728   4727   4746     1   111.0400475 552.288000
   4732   4728   4741     1   109.3800466 607.516800
   4734   4723   4741     1   107.9700462 569.024000
   4747   4749   4751     1   111.6100477 551.451200
   4749   4751   4755     1   111.0400475 552.288000
   4751   4755   4756     1   112.3500484 533.878400
   4751   4755   4757     1   112.3500484 533.878400
   4755   4756   4767     1   111.0400475 552.288000
   4755   4757   4759     1   111.0400475 552.288000
   4756   4755   4757     1   112.3500484 533.878400
   4756   4767   4770     1   111.0400475 529.694400
   4757   4759   4763     1   111.0400475 529.694400
   4759   4763   4764     1   123.2000528 564.003200
   4759   4763   4795     1   112.2600482 538.062400
   4763   4795   4776     1   118.5150508 540.957728
   4764   4763   4795     1   118.8300510 581.576000
   4767   4770   4771     1   123.2000528 564.003200
   4767   4770   4819     1   112.2600482 538.062400
   4770   4819   4800     1   118.5150508 540.957728
   4771   4770   4819     1   118.8300510 581.576000
   4772   4773   4775     1   111.5100476 526.347200
   4772   4773   4793     1   110.1900474 564.840000
   4772   4783   4788     1   110.1900474 564.840000
   4772   4790   4777     1   112.4800480 524.673600
   4773   4772   4783     1   111.5100476 526.347200
   4773   4772   4790     1   107.9700462 569.024000
   4773   4775   4776     1   111.5100476 526.347200
   4773   4775   4782     1   110.1900474 564.840000
   4775   4773   4793     1   110.1900474 564.840000
   4775   4776   4777     1   111.5100476 526.347200
   4775   4776   4795     1   111.0400475 552.288000
   4776   4775   4782     1   110.1900474 564.840000
   4776   4777   4781     1   110.1900474 564.840000
   4776   4777   4790     1   107.9700462 569.024000
   4777   4776   4795     1   111.0400475 552.288000
   4781   4777   4790     1   109.3800466 607.516800
   4783   4772   4790     1   107.9700462 569.024000
   4796   4797   4799     1   111.5100476 526.347200
   4796   4797   4817     1   110.1900474 564.840000
   4796   4807   4812     1   110.1900474 564.840000
   4796   4814   4801     1   112.4800480 524.673600
   4797   4796   4807     1   111.5100476 526.347200
   4797   4796   4814     1   107.9700462 569.024000
   4797   4799   4800     1   111.5100476 526.347200
   4797   4799   4806     1   110.1900474 564.840000
   4799   4797   4817     1   110.1900474 564.840000
   4799   4800   4801     1   111.5100476 526.347200
   4799   4800   4819     1   111.0400475 552.288000
   4800   4799   4806     1   110.1900474 564.840000
   4800   4801   4805     1   110.1900474 564.840000
   4800   4801   4814     1   107.9700462 569.024000
   4801   4800   4819     1   111.0400475 552.288000
   4805   4801   4814     1   109.3800466 607.516800
   4807   4796   4814     1   107.9700462 569.024000
   4820   4822   4824     1   111.6100477 551.451200
   4822   4824   4828     1   111.0400475 552.288000
   4824   4828   4829     1   112.3500484 533.878400
   4824   4828   4830     1   112.3500484 533.878400
   4828   4829   4840     1   111.0400475 552.288000
   4828   4830   4832     1   111.0400475 552.288000
   4829   4840   4843     1   111.0400475 529.694400
   4829   4828   4830     1   112.3500484 533.878400
   4830   4832   4836     1   111.0400475 529.694400
   4832   4836   4837     1   123.2000528 564.003200
   4832   4836   4868     1   112.2600482 538.062400
   4836   4868   4849     1   118.5150508 540.957728
   4837   4836   4868     1   118.8300510 581.576000
   4840   4843   4844     1   123.2000528 564.003200
   4840   4843   4892     1   112.2600482 538.062400
   4843   4892   4873     1   118.5150508 540.957728
   4844   4843   4892     1   118.8300510 581.576000
   4845   4846   4848     1   111.5100476 526.347200
   4845   4846   4866     1   110.1900474 564.840000
   4845   4856   4861     1   110.1900474 564.840000
   4845   4863   4850     1   112.4800480 524.673600
   4846   4848   4849     1   111.5100476 526.347200
   4846   4848   4855     1   110.1900474 564.840000
   4846   4845   4856     1   111.5100476 526.347200
   4846   4845   4863     1   107.9700462 569.024000
   4848   4849   4850     1   111.5100476 526.347200
   4848   4849   4868     1   111.0400475 552.288000
   4848   4846   4866     1   110.1900474 564.840000
   4849   4850   4854     1   110.1900474 564.840000
   4849   4850   4863     1   107.9700462 569.024000
   4849   4848   4855     1   110.1900474 564.840000
   4850   4849   4868     1   111.0400475 552.288000
   4854   4850   4863     1   109.3800466 607.516800
   4856   4845   4863     1   107.9700462 569.024000
   4869   4870   4872     1   111.5100476 526.347200
   4869   4870   4890     1   110.1900474 564.840000
   4869   4880   4885     1   110.1900474 564.840000
   4869   4887   4874     1   112.4800480 524.673600
   4870   4872   4873     1   111.5100476 526.347200
   4870   4872   4879     1   110.1900474 564.840000
   4870   4869   4880     1   111.5100476 526.347200
   4870   4869   4887     1   107.9700462 569.024000
   4872   4873   4874     1   111.5100476 526.347200
   4872   4873   4892     1   111.0400475 552.288000
   4872   4870   4890     1   110.1900474 564.840000
   4873   4874   4878     1   110.1900474 564.840000
   4873   4874   4887     1   107.9700462 569.024000
   4873   4872   4879     1   110.1900474 564.840000
   4874   4873   4892     1   111.0400475 552.288000
   4878   4874   4887     1   109.3800466 607.516800
   4880   4869   4887     1   107.9700462 569.024000
   4893   4895   4897     1   111.6100477 551.451200
   4895   4897   4901     1   111.0400475 552.288000
   4897   4901   4902     1   112.3500484 533.878400
   4897   4901   4903     1   112.3500484 533.878400
   4901   4902   4913     1   111.0400475 552.288000
   4901   4903   4905     1   111.0400475 552.288000
   4902   4901   4903     1   112.3500484 533.878400
   4902   4913   4916     1   111.0400475 529.694400
   4903   4905   4909     1   111.0400475 529.694400
   4905   4909   4910     1   123.2000528 564.003200
   4905   4909   4941     1   112.2600482 538.062400
   4909   4941   4922     1   118.5150508 540.957728
   4910   4909   4941     1   118.8300510 581.576000
   4913   4916   4917     1   123.2000528 564.003200
   4913   4916   4965     1   112.2600482 538.062400
   4916   4965   4946     1   118.5150508 540.957728
   4917   4916   4965     1   118.8300510 581.576000
   4918   4919   4921     1   111.5100476 526.347200
   4918   4919   4939     1   110.1900474 564.840000
   4918   4929   4934     1   110.1900474 564.840000
   4918   4936   4923     1   112.4800480 524.673600
   4919   4918   4929     1   111.5100476 526.347200
   4919   4918   4936     1   107.9700462 569.024000
   4919   4921   4922     1   111.5100476 526.347200
   4919   4921   4928     1   110.1900474 564.840000
   4921   4919   4939     1   110.1900474 564.840000
   4921   4922   4923     1   111.5100476 526.347200
   4921   4922   4941     1   111.0400475 552.288000
   4922   4921   4928     1   110.1900474 564.840000
   4922   4923   4927     1   110.1900474 564.840000
   4922   4923   4936     1   107.9700462 569.024000
   4923   4922   4941     1   111.0400475 552.288000
   4927   4923   4936     1   109.3800466 607.516800
   4929   4918   4936     1   107.9700462 569.024000
   4942   4943   4945     1   111.5100476 526.347200
   4942   4943   4963     1   110.1900474 564.840000
   4942   4953   4958     1   110.1900474 564.840000
   4942   4960   4947     1   112.4800480 524.673600
   4943   4942   4953     1   111.5100476 526.347200
   4943   4942   4960     1   107.9700462 569.024000
   4943   4945   4946     1   111.5100476 526.347200
   4943   4945   4952     1   110.1900474 564.840000
   4945   4943   4963     1   110.1900474 564.840000
   4945   4946   4947     1   111.5100476 526.347200
   4945   4946   4965     1   111.0400475 552.288000
   4946   4945   4952     1   110.1900474 564.840000
   4946   4947   4951     1   110.1900474 564.840000
   4946   4947   4960     1   107.9700462 569.024000
   4947   4946   4965     1   111.0400475 552.288000
   4951   4947   4960     1   109.3800466 607.516800
   4953   4942   4960     1   107.9700462 569.024000
   4966   4968   4970     1   111.6100477 551.451200
   4968   4970   4974     1   111.0400475 552.288000
   4970   4974   4975     1   112.3500484 533.878400
   4970   4974   4976     1   112.3500484 533.878400
   4974   4975   4986     1   111.0400475 552.288000
   4974   4976   4978     1   111.0400475 552.288000
   4975   4986   4989     1   111.0400475 529.694400
   4975   4974   4976     1   112.3500484 533.878400
   4976   4978   4982     1   111.0400475 529.694400
   4978   4982   4983     1   123.2000528 564.003200
   4978   4982   5014     1   112.2600482 538.062400
   4982   5014   4995     1   118.5150508 540.957728
   4983   4982   5014     1   118.8300510 581.576000
   4986   4989   4990     1   123.2000528 564.003200
   4986   4989   5038     1   112.2600482 538.062400
   4989   5038   5019     1   118.5150508 540.957728
   4990   4989   5038     1   118.8300510 581.576000
   4991   4992   4994     1   111.5100476 526.347200
   4991   4992   5012     1   110.1900474 564.840000
   4991   5002   5007     1   110.1900474 564.840000
   4991   5009   4996     1   112.4800480 524.673600
   4992   4994   4995     1   111.5100476 526.347200
   4992   4994   5001     1   110.1900474 564.840000
   4992   4991   5002     1   111.5100476 526.347200
   4992   4991   5009     1   107.9700462 569.024000
   4994   4995   4996     1   111.5100476 526.347200
   4994   4995   5014     1   111.0400475 552.288000
   4994   4992   5012     1   110.1900474 564.840000
   4995   4996   5000     1   110.1900474 564.840000
   4995   4996   5009     1   107.9700462 569.024000
   4995   4994   5001     1   110.1900474 564.840000
   4996   4995   5014     1   111.0400475 552.288000
   5000   4996   5009     1   109.3800466 607.516800
   5002   4991   5009     1   107.9700462 569.024000
   5015   5016   5018     1   111.5100476 526.347200
   5015   5016   5036     1   110.1900474 564.840000
   5015   5026   5031     1   110.1900474 564.840000
   5015   5033   5020     1   112.4800480 524.673600
   5016   5018   5019     1   111.5100476 526.347200
   5016   5018   5025     1   110.1900474 564.840000
   5016   5015   5026     1   111.5100476 526.347200
   5016   5015   5033     1   107.9700462 569.024000
   5018   5019   5020     1   111.5100476 526.347200
   5018   5019   5038     1   111.0400475 552.288000
   5018   5016   5036     1   110.1900474 564.840000
   5019   5020   5024     1   110.1900474 564.840000
   5019   5020   5033     1   107.9700462 569.024000
   5019   5018   5025     1   110.1900474 564.840000
   5020   5019   5038     1   111.0400475 552.288000
   5024   5020   5033     1   109.3800466 607.516800
   5026   5015   5033     1   107.9700462 569.024000
   5039   5041   5043     1   111.6100477 551.451200
   5041   5043   5047     1   111.0400475 552.288000
   5043   5047   5048     1   112.3500484 533.878400
   5043   5047   5049     1   112.3500484 533.878400
   5047   5048   5059     1   111.0400475 552.288000
   5047   5049   5051     1   111.0400475 552.288000
   5048   5047   5049     1   112.3500484 533.878400
   5048   5059   5062     1   111.0400475 529.694400
   5049   5051   5055     1   111.0400475 529.694400
   5051   5055   5056     1   123.2000528 564.003200
   5051   5055   5087     1   112.2600482 538.062400
   5055   5087   5068     1   118.5150508 540.957728
   5056   5055   5087     1   118.8300510 581.576000
   5059   5062   5063     1   123.2000528 564.003200
   5059   5062   5111     1   112.2600482 538.062400
   5062   5111   5092     1   118.5150508 540.957728
   5063   5062   5111     1   118.8300510 581.576000
   5064   5065   5067     1   111.5100476 526.347200
   5064   5065   5085     1   110.1900474 564.840000
   5064   5075   5080     1   110.1900474 564.840000
   5064   5082   5069     1   112.4800480 524.673600
   5065   5064   5075     1   111.5100476 526.347200
   5065   5064   5082     1   107.9700462 569.024000
   5065   5067   5068     1   111.5100476 526.347200
   5065   5067   5074     1   110.1900474 564.840000
   5067   5065   5085     1   110.1900474 564.840000
   5067   5068   5069     1   111.5100476 526.347200
   5067   5068   5087     1   111.0400475 552.288000
   5068   5067   5074     1   110.1900474 564.840000
   5068   5069   5073     1   110.1900474 564.840000
   5068   5069   5082     1   107.9700462 569.024000
   5069   5068   5087     1   111.0400475 552.288000
   5073   5069   5082     1   109.3800466 607.516800
   5075   5064   5082     1   107.9700462 569.024000
   5088   5089   5091     1   111.5100476 526.347200
   5088   5089   5109     1   110.1900474 564.840000
   5088   5099   5104     1   110.1900474 564.840000
   5088   5106   5093     1   112.4800480 524.673600
   5089   5088   5099     1   111.5100476 526.347200
   5089   5088   5106     1   107.9700462 569.024000
   5089   5091   5092     1   111.5100476 526.347200
   5089   5091   5098     1   110.1900474 564.840000
   5091   5089   5109     1   110.1900474 564.840000
   5091   5092   5093     1   111.5100476 526.347200
   5091   5092   5111     1   111.0400475 552.288000
   5092   5091   5098     1   110.1900474 564.840000
   5092   5093   5097     1   110.1900474 564.840000
   5092   5093   5106     1   107.9700462 569.024000
   5093   5092   5111     1   111.0400475 552.288000
   5097   5093   5106     1   109.3800466 607.516800
   5099   5088   5106     1   107.9700462 569.024000
   5112   5114   5116     1   111.6100477 551.451200
   5114   5116   5120     1   111.0400475 552.288000
   5116   5120   5121     1   112.3500484 533.878400
   5116   5120   5122     1   112.3500484 533.878400
   5120   5121   5132     1   111.0400475 552.288000
   5120   5122   5124     1   111.0400475 552.288000
   5121   5132   5135     1   111.0400475 529.694400
   5121   5120   5122     1   112.3500484 533.878400
   5122   5124   5128     1   111.0400475 529.694400
   5124   5128   5129     1   123.2000528 564.003200
   5124   5128   5160     1   112.2600482 538.062400
   5128   5160   5141     1   118.5150508 540.957728
   5129   5128   5160     1   118.8300510 581.576000
   5132   5135   5136     1   123.2000528 564.003200
   5132   5135   5184     1   112.2600482 538.062400
   5135   5184   5165     1   118.5150508 540.957728
   5136   5135   5184     1   118.8300510 581.576000
   5137   5138   5140     1   111.5100476 526.347200
   5137   5138   5158     1   110.1900474 564.840000
   5137   5148   5153     1   110.1900474 564.840000
   5137   5155   5142     1   112.4800480 524.673600
   5138   5140   5141     1   111.5100476 526.347200
   5138   5140   5147     1   110.1900474 564.840000
   5138   5137   5148     1   111.5100476 526.347200
   5138   5137   5155     1   107.9700462 569.024000
   5140   5141   5142     1   111.5100476 526.347200
   5140   5141   5160     1   111.0400475 552.288000
   5140   5138   5158     1   110.1900474 564.840000
   5141   5142   5146     1   110.1900474 564.840000
   5141   5142   5155     1   107.9700462 569.024000
   5141   5140   5147     1   110.1900474 564.840000
   5142   5141   5160     1   111.0400475 552.288000
   5146   5142   5155     1   109.3800466 607.516800
   5148   5137   5155     1   107.9700462 569.024000
   5161   5162   5164     1   111.5100476 526.347200
   5161   5162   5182     1   110.1900474 564.840000
   5161   5172   5177     1   110.1900474 564.840000
   5161   5179   5166     1   112.4800480 524.673600
   5162   5164   5165     1   111.5100476 526.347200
   5162   5164   5171     1   110.1900474 564.840000
   5162   5161   5172     1   111.5100476 526.347200
   5162   5161   5179     1   107.9700462 569.024000
   5164   5165   5166     1   111.5100476 526.347200
   5164   5165   5184     1   111.0400475 552.288000
   5164   5162   5182     1   110.1900474 564.840000
   5165   5166   5170     1   110.1900474 564.840000
   5165   5166   5179     1   107.9700462 569.024000
   5165   5164   5171     1   110.1900474 564.840000
   5166   5165   5184     1   111.0400475 552.288000
   5170   5166   5179     1   109.3800466 607.516800
   5172   5161   5179     1   107.9700462 569.024000
   5185   5187   5189     1   111.6100477 551.451200
   5187   5189   5193     1   111.0400475 552.288000
   5189   5193   5194     1   112.3500484 533.878400
   5189   5193   5195     1   112.3500484 533.878400
   5193   5194   5205     1   111.0400475 552.288000
   5193   5195   5197     1   111.0400475 552.288000
   5194   5193   5195     1   112.3500484 533.878400
   5194   5205   5208     1   111.0400475 529.694400
   5195   5197   5201     1   111.0400475 529.694400
   5197   5201   5202     1   123.2000528 564.003200
   5197   5201   5233     1   112.2600482 538.062400
   5201   5233   5214     1   118.5150508 540.957728
   5202   5201   5233     1   118.8300510 581.576000
   5205   5208   5209     1   123.2000528 564.003200
   5205   5208   5257     1   112.2600482 538.062400
   5208   5257   5238     1   118.5150508 540.957728
   5209   5208   5257     1   118.8300510 581.576000
   5210   5211   5213     1   111.5100476 526.347200
   5210   5211   5231     1   110.1900474 564.840000
   5210   5221   5226     1   110.1900474 564.840000
   5210   5228   5215     1   112.4800480 524.673600
   5211   5210   5221     1   111.5100476 526.347200
   5211   5210   5228     1   107.9700462 569.024000
   5211   5213   5214     1   111.5100476 526.347200
   5211   5213   5220     1   110.1900474 564.840000
   5213   5211   5231     1   110.1900474 564.840000
   5213   5214   5215     1   111.5100476 526.347200
   5213   5214   5233     1   111.0400475 552.288000
   5214   5213   5220     1   110.1900474 564.840000
   5214   5215   5219     1   110.1900474 564.840000
   5214   5215   5228     1   107.9700462 569.024000
   5215   5214   5233     1   111.0400475 552.288000
   5219   5215   5228     1   109.3800466 607.516800
   5221   5210   5228     1   107.9700462 569.024000
   5234   5235   5237     1   111.5100476 526.347200
   5234   5235   5255     1   110.1900474 564.840000
   5234   5245   5250     1   110.1900474 564.840000
   5234   5252   5239     1   112.4800480 524.673600
   5235   5234   5245     1   111.5100476 526.347200
   5235   5234   5252     1   107.9700462 569.024000
   5235   5237   5238     1   111.5100476 526.347200
   5235   5237   5244     1   110.1900474 564.840000
   5237   5235   5255     1   110.1900474 564.840000
   5237   5238   5239     1   111.5100476 526.347200
   5237   5238   5257     1   111.0400475 552.288000
   5238   5237   5244     1   110.1900474 564.840000
   5238   5239   5243     1   110.1900474 564.840000
   5238   5239   5252     1   107.9700462 569.024000
   5239   5238   5257     1   111.0400475 552.288000
   5243   5239   5252     1   109.3800466 607.516800
   5245   5234   5252     1   107.9700462 569.024000
   5258   5260   5262     1   111.6100477 551.451200
   5260   5262   5266     1   111.0400475 552.288000
   5262   5266   5267     1   112.3500484 533.878400
   5262   5266   5268     1   112.3500484 533.878400
   5266   5267   5278     1   111.0400475 552.288000
   5266   5268   5270     1   111.0400475 552.288000
   5267   5278   5281     1   111.0400475 529.694400
   5267   5266   5268     1   112.3500484 533.878400
   5268   5270   5274     1   111.0400475 529.694400
   5270   5274   5275     1   123.2000528 564.003200
   5270   5274   5306     1   112.2600482 538.062400
   5274   5306   5287     1   118.5150508 540.957728
   5275   5274   5306     1   118.8300510 581.576000
   5278   5281   5282     1   123.2000528 564.003200
   5278   5281   5330     1   112.2600482 538.062400
   5281   5330   5311     1   118.5150508 540.957728
   5282   5281   5330     1   118.8300510 581.576000
   5283   5284   5286     1   111.5100476 526.347200
   5283   5284   5304     1   110.1900474 564.840000
   5283   5294   5299     1   110.1900474 564.840000
   5283   5301   5288     1   112.4800480 524.673600
   5284   5286   5287     1   111.5100476 526.347200
   5284   5286   5293     1   110.1900474 564.840000
   5284   5283   5294     1   111.5100476 526.347200
   5284   5283   5301     1   107.9700462 569.024000
   5286   5287   5288     1   111.5100476 526.347200
   5286   5287   5306     1   111.0400475 552.288000
   5286   5284   5304     1   110.1900474 564.840000
   5287   5288   5292     1   110.1900474 564.840000
   5287   5288   5301     1   107.9700462 569.024000
   5287   5286   5293     1   110.1900474 564.840000
   5288   5287   5306     1   111.0400475 552.288000
   5292   5288   5301     1   109.3800466 607.516800
   5294   5283   5301     1   107.9700462 569.024000
   5307   5308   5310     1   111.5100476 526.347200
   5307   5308   5328     1   110.1900474 564.840000
   5307   5318   5323     1   110.1900474 564.840000
   5307   5325   5312     1   112.4800480 524.673600
   5308   5310   5311     1   111.5100476 526.347200
   5308   5310   5317     1   110.1900474 564.840000
   5308   5307   5318     1   111.5100476 526.347200
   5308   5307   5325     1   107.9700462 569.024000
   5310   5311   5312     1   111.5100476 526.347200
   5310   5311   5330     1   111.0400475 552.288000
   5310   5308   5328     1   110.1900474 564.840000
   5311   5312   5316     1   110.1900474 564.840000
   5311   5312   5325     1   107.9700462 569.024000
   5311   5310   5317     1   110.1900474 564.840000
   5312   5311   5330     1   111.0400475 552.288000
   5316   5312   5325     1   109.3800466 607.516800
   5318   5307   5325     1   107.9700462 569.024000
   5331   5333   5335     1   111.6100477 551.451200
   5333   5335   5339     1   111.0400475 552.288000
   5335   5339   5340     1   112.3500484 533.878400
   5335   5339   5341     1   112.3500484 533.878400
   5339   5340   5351     1   111.0400475 552.288000
   5339   5341   5343     1   111.0400475 552.288000
   5340   5339   5341     1   112.3500484 533.878400
   5340   5351   5354     1   111.0400475 529.694400
   5341   5343   5347     1   111.0400475 529.694400
   5343   5347   5348     1   123.2000528 564.003200
   5343   5347   5379     1   112.2600482 538.062400
   5347   5379   5360     1   118.5150508 540.957728
   5348   5347   5379     1   118.8300510 581.576000
   5351   5354   5355     1   123.2000528 564.003200
   5351   5354   5403     1   112.2600482 538.062400
   5354   5403   5384     1   118.5150508 540.957728
   5355   5354   5403     1   118.8300510 581.576000
   5356   5357   5359     1   111.5100476 526.347200
   5356   5357   5377     1   110.1900474 564.840000
   5356   5367   5372     1   110.1900474 564.840000
   5356   5374   5361     1   112.4800480 524.673600
   5357   5356   5367     1   111.5100476 526.347200
   5357   5356   5374     1   107.9700462 569.024000
   5357   5359   5360     1   111.5100476 526.347200
   5357   5359   5366     1   110.1900474 564.840000
   5359   5357   5377     1   110.1900474 564.840000
   5359   5360   5361     1   111.5100476 526.347200
   5359   5360   5379     1   111.0400475 552.288000
   5360   5359   5366     1   110.1900474 564.840000
   5360   5361   5365     1   110.1900474 564.840000
   5360   5361   5374     1   107.9700462 569.024000
   5361   5360   5379     1   111.0400475 552.288000
   5365   5361   5374     1   109.3800466 607.516800
   5367   5356   5374     1   107.9700462 569.024000
   5380   5381   5383     1   111.5100476 526.347200
   5380   5381   5401     1   110.1900474 564.840000
   5380   5391   5396     1   110.1900474 564.840000
   5380   5398   5385     1   112.4800480 524.673600
   5381   5380   5391     1   111.5100476 526.347200
   5381   5380   5398     1   107.9700462 569.024000
   5381   5383   5384     1   111.5100476 526.347200
   5381   5383   5390     1   110.1900474 564.840000
   5383   5381   5401     1   110.1900474 564.840000
   5383   5384   5385     1   111.5100476 526.347200
   5383   5384   5403     1   111.0400475 552.288000
   5384   5383   5390     1   110.1900474 564.840000
   5384   5385   5389     1   110.1900474 564.840000
   5384   5385   5398     1   107.9700462 569.024000
   5385   5384   5403     1   111.0400475 552.288000
   5389   5385   5398     1   109.3800466 607.516800
   5391   5380   5398     1   107.9700462 569.024000
   5404   5406   5408     1   111.6100477 551.451200
   5406   5408   5412     1   111.0400475 552.288000
   5408   5412   5413     1   112.3500484 533.878400
   5408   5412   5414     1   112.3500484 533.878400
   5412   5413   5424     1   111.0400475 552.288000
   5412   5414   5416     1   111.0400475 552.288000
   5413   5424   5427     1   111.0400475 529.694400
   5413   5412   5414     1   112.3500484 533.878400
   5414   5416   5420     1   111.0400475 529.694400
   5416   5420   5421     1   123.2000528 564.003200
   5416   5420   5452     1   112.2600482 538.062400
   5420   5452   5433     1   118.5150508 540.957728
   5421   5420   5452     1   118.8300510 581.576000
   5424   5427   5428     1   123.2000528 564.003200
   5424   5427   5476     1   112.2600482 538.062400
   5427   5476   5457     1   118.5150508 540.957728
   5428   5427   5476     1   118.8300510 581.576000
   5429   5430   5432     1   111.5100476 526.347200
   5429   5430   5450     1   110.1900474 564.840000
   5429   5440   5445     1   110.1900474 564.840000
   5429   5447   5434     1   112.4800480 524.673600
   5430   5432   5433     1   111.5100476 526.347200
   5430   5432   5439     1   110.1900474 564.840000
   5430   5429   5440     1   111.5100476 526.347200
   5430   5429   5447     1   107.9700462 569.024000
   5432   5433   5434     1   111.5100476 526.347200
   5432   5433   5452     1   111.0400475 552.288000
   5432   5430   5450     1   110.1900474 564.840000
   5433   5434   5438     1   110.1900474 564.840000
   5433   5434   5447     1   107.9700462 569.024000
   5433   5432   5439     1   110.1900474 564.840000
   5434   5433   5452     1   111.0400475 552.288000
   5438   5434   5447     1   109.3800466 607.516800
   5440   5429   5447     1   107.9700462 569.024000
   5453   5454   5456     1   111.5100476 526.347200
   5453   5454   5474     1   110.1900474 564.840000
   5453   5464   5469     1   110.1900474 564.840000
   5453   5471   5458     1   112.4800480 524.673600
   5454   5456   5457     1   111.5100476 526.347200
   5454   5456   5463     1   110.1900474 564.840000
   5454   5453   5464     1   111.5100476 526.347200
   5454   5453   5471     1   107.9700462 569.024000
   5456   5457   5458     1   111.5100476 526.347200
   5456   5457   5476     1   111.0400475 552.288000
   5456   5454   5474     1   110.1900474 564.840000
   5457   5458   5462     1   110.1900474 564.840000
   5457   5458   5471     1   107.9700462 569.024000
   5457   5456   5463     1   110.1900474 564.840000
   5458   5457   5476     1   111.0400475 552.288000
   5462   5458   5471     1   109.3800466 607.516800
   5464   5453   5471     1   107.9700462 569.024000
   5477   5479   5481     1   111.6100477 551.451200
   5479   5481   5485     1   111.0400475 552.288000
   5481   5485   5486     1   112.3500484 533.878400
   5481   5485   5487     1   112.3500484 533.878400
   5485   5486   5497     1   111.0400475 552.288000
   5485   5487   5489     1   111.0400475 552.288000
   5486   5485   5487     1   112.3500484 533.878400
   5486   5497   5500     1   111.0400475 529.694400
   5487   5489   5493     1   111.0400475 529.694400
   5489   5493   5494     1   123.2000528 564.003200
   5489   5493   5525     1   112.2600482 538.062400
   5493   5525   5506     1   118.5150508 540.957728
   5494   5493   5525     1   118.8300510 581.576000
   5497   5500   5501     1   123.2000528 564.003200
   5497   5500   5549     1   112.2600482 538.062400
   5500   5549   5530     1   118.5150508 540.957728
   5501   5500   5549     1   118.8300510 581.576000
   5502   5503   5505     1   111.5100476 526.347200
   5502   5503   5523     1   110.1900474 564.840000
   5502   5513   5518     1   110.1900474 564.840000
   5502   5520   5507     1   112.4800480 524.673600
   5503   5502   5513     1   111.5100476 526.347200
   5503   5502   5520     1   107.9700462 569.024000
   5503   5505   5506     1   111.5100476 526.347200
   5503   5505   5512     1   110.1900474 564.840000
   5505   5503   5523     1   110.1900474 564.840000
   5505   5506   5507     1   111.5100476 526.347200
   5505   5506   5525     1   111.0400475 552.288000
   5506   5505   5512     1   110.1900474 564.840000
   5506   5507   5511     1   110.1900474 564.840000
   5506   5507   5520     1   107.9700462 569.024000
   5507   5506   5525     1   111.0400475 552.288000
   5511   5507   5520     1   109.3800466 607.516800
   5513   5502   5520     1   107.9700462 569.024000
   5526   5527   5529     1   111.5100476 526.347200
   5526   5527   5547     1   110.1900474 564.840000
   5526   5537   5542     1   110.1900474 564.840000
   5526   5544   5531     1   112.4800480 524.673600
   5527   5526   5537     1   111.5100476 526.347200
   5527   5526   5544     1   107.9700462 569.024000
   5527   5529   5530     1   111.5100476 526.347200
   5527   5529   5536     1   110.1900474 564.840000
   5529   5527   5547     1   110.1900474 564.840000
   5529   5530   5531     1   111.5100476 526.347200
   5529   5530   5549     1   111.0400475 552.288000
   5530   5529   5536     1   110.1900474 564.840000
   5530   5531   5535     1   110.1900474 564.840000
   5530   5531   5544     1   107.9700462 569.024000
   5531   5530   5549     1   111.0400475 552.288000
   5535   5531   5544     1   109.3800466 607.516800
   5537   5526   5544     1   107.9700462 569.024000
   5550   5552   5554     1   111.6100477 551.451200
   5552   5554   5558     1   111.0400475 552.288000
   5554   5558   5559     1   112.3500484 533.878400
   5554   5558   5560     1   112.3500484 533.878400
   5558   5559   5570     1   111.0400475 552.288000
   5558   5560   5562     1   111.0400475 552.288000
   5559   5570   5573     1   111.0400475 529.694400
   5559   5558   5560     1   112.3500484 533.878400
   5560   5562   5566     1   111.0400475 529.694400
   5562   5566   5567     1   123.2000528 564.003200
   5562   5566   5598     1   112.2600482 538.062400
   5566   5598   5579     1   118.5150508 540.957728
   5567   5566   5598     1   118.8300510 581.576000
   5570   5573   5574     1   123.2000528 564.003200
   5570   5573   5622     1   112.2600482 538.062400
   5573   5622   5603     1   118.5150508 540.957728
   5574   5573   5622     1   118.8300510 581.576000
   5575   5576   5578     1   111.5100476 526.347200
   5575   5576   5596     1   110.1900474 564.840000
   5575   5586   5591     1   110.1900474 564.840000
   5575   5593   5580     1   112.4800480 524.673600
   5576   5578   5579     1   111.5100476 526.347200
   5576   5578   5585     1   110.1900474 564.840000
   5576   5575   5586     1   111.5100476 526.347200
   5576   5575   5593     1   107.9700462 569.024000
   5578   5579   5580     1   111.5100476 526.347200
   5578   5579   5598     1   111.0400475 552.288000
   5578   5576   5596     1   110.1900474 564.840000
   5579   5580   5584     1   110.1900474 564.840000
   5579   5580   5593     1   107.9700462 569.024000
   5579   5578   5585     1   110.1900474 564.840000
   5580   5579   5598     1   111.0400475 552.288000
   5584   5580   5593     1   109.3800466 607.516800
   5586   5575   5593     1   107.9700462 569.024000
   5599   5600   5602     1   111.5100476 526.347200
   5599   5600   5620     1   110.1900474 564.840000
   5599   5610   5615     1   110.1900474 564.840000
   5599   5617   5604     1   112.4800480 524.673600
   5600   5602   5603     1   111.5100476 526.347200
   5600   5602   5609     1   110.1900474 564.840000
   5600   5599   5610     1   111.5100476 526.347200
   5600   5599   5617     1   107.9700462 569.024000
   5602   5603   5604     1   111.5100476 526.347200
   5602   5603   5622     1   111.0400475 552.288000
   5602   5600   5620     1   110.1900474 564.840000
   5603   5604   5608     1   110.1900474 564.840000
   5603   5604   5617     1   107.9700462 569.024000
   5603   5602   5609     1   110.1900474 564.840000
   5604   5603   5622     1   111.0400475 552.288000
   5608   5604   5617     1   109.3800466 607.516800
   5610   5599   5617     1   107.9700462 569.024000
   5623   5625   5627     1   111.6100477 551.451200
   5625   5627   5631     1   111.0400475 552.288000
   5627   5631   5632     1   112.3500484 533.878400
   5627   5631   5633     1   112.3500484 533.878400
   5631   5632   5643     1   111.0400475 552.288000
   5631   5633   5635     1   111.0400475 552.288000
   5632   5631   5633     1   112.3500484 533.878400
   5632   5643   5646     1   111.0400475 529.694400
   5633   5635   5639     1   111.0400475 529.694400
   5635   5639   5640     1   123.2000528 564.003200
   5635   5639   5671     1   112.2600482 538.062400
   5639   5671   5652     1   118.5150508 540.957728
   5640   5639   5671     1   118.8300510 581.576000
   5643   5646   5647     1   123.2000528 564.003200
   5643   5646   5695     1   112.2600482 538.062400
   5646   5695   5676     1   118.5150508 540.957728
   5647   5646   5695     1   118.8300510 581.576000
   5648   5649   5651     1   111.5100476 526.347200
   5648   5649   5669     1   110.1900474 564.840000
   5648   5659   5664     1   110.1900474 564.840000
   5648   5666   5653     1   112.4800480 524.673600
   5649   5648   5659     1   111.5100476 526.347200
   5649   5648   5666     1   107.9700462 569.024000
   5649   5651   5652     1   111.5100476 526.347200
   5649   5651   5658     1   110.1900474 564.840000
   5651   5649   5669     1   110.1900474 564.840000
   5651   5652   5653     1   111.5100476 526.347200
   5651   5652   5671     1   111.0400475 552.288000
   5652   5651   5658     1   110.1900474 564.840000
   5652   5653   5657     1   110.1900474 564.840000
   5652   5653   5666     1   107.9700462 569.024000
   5653   5652   5671     1   111.0400475 552.288000
   5657   5653   5666     1   109.3800466 607.516800
   5659   5648   5666     1   107.9700462 569.024000
   5672   5673   5675     1   111.5100476 526.347200
   5672   5673   5693     1   110.1900474 564.840000
   5672   5683   5688     1   110.1900474 564.840000
   5672   5690   5677     1   112.4800480 524.673600
   5673   5672   5683     1   111.5100476 526.347200
   5673   5672   5690     1   107.9700462 569.024000
   5673   5675   5676     1   111.5100476 526.347200
   5673   5675   5682     1   110.1900474 564.840000
   5675   5673   5693     1   110.1900474 564.840000
   5675   5676   5677     1   111.5100476 526.347200
   5675   5676   5695     1   111.0400475 552.288000
   5676   5675   5682     1   110.1900474 564.840000
   5676   5677   5681     1   110.1900474 564.840000
   5676   5677   5690     1   107.9700462 569.024000
   5677   5676   5695     1   111.0400475 552.288000
   5681   5677   5690     1   109.3800466 607.516800
   5683   5672   5690     1   107.9700462 569.024000
   5696   5698   5700     1   111.6100477 551.451200
   5698   5700   5704     1   111.0400475 552.288000
   5700   5704   5705     1   112.3500484 533.878400
   5700   5704   5706     1   112.3500484 533.878400
   5704   5705   5716     1   111.0400475 552.288000
   5704   5706   5708     1   111.0400475 552.288000
   5705   5716   5719     1   111.0400475 529.694400
   5705   5704   5706     1   112.3500484 533.878400
   5706   5708   5712     1   111.0400475 529.694400
   5708   5712   5713     1   123.2000528 564.003200
   5708   5712   5744     1   112.2600482 538.062400
   5712   5744   5725     1   118.5150508 540.957728
   5713   5712   5744     1   118.8300510 581.576000
   5716   5719   5720     1   123.2000528 564.003200
   5716   5719   5768     1   112.2600482 538.062400
   5719   5768   5749     1   118.5150508 540.957728
   5720   5719   5768     1   118.8300510 581.576000
   5721   5722   5724     1   111.5100476 526.347200
   5721   5722   5742     1   110.1900474 564.840000
   5721   5732   5737     1   110.1900474 564.840000
   5721   5739   5726     1   112.4800480 524.673600
   5722   5724   5725     1   111.5100476 526.347200
   5722   5724   5731     1   110.1900474 564.840000
   5722   5721   5732     1   111.5100476 526.347200
   5722   5721   5739     1   107.9700462 569.024000
   5724   5725   5726     1   111.5100476 526.347200
   5724   5725   5744     1   111.0400475 552.288000
   5724   5722   5742     1   110.1900474 564.840000
   5725   5726   5730     1   110.1900474 564.840000
   5725   5726   5739     1   107.9700462 569.024000
   5725   5724   5731     1   110.1900474 564.840000
   5726   5725   5744     1   111.0400475 552.288000
   5730   5726   5739     1   109.3800466 607.516800
   5732   5721   5739     1   107.9700462 569.024000
   5745   5746   5748     1   111.5100476 526.347200
   5745   5746   5766     1   110.1900474 564.840000
   5745   5756   5761     1   110.1900474 564.840000
   5745   5763   5750     1   112.4800480 524.673600
   5746   5748   5749     1   111.5100476 526.347200
   5746   5748   5755     1   110.1900474 564.840000
   5746   5745   5756     1   111.5100476 526.347200
   5746   5745   5763     1   107.9700462 569.024000
   5748   5749   5750     1   111.5100476 526.347200
   5748   5749   5768     1   111.0400475 552.288000
   5748   5746   5766     1   110.1900474 564.840000
   5749   5750   5754     1   110.1900474 564.840000
   5749   5750   5763     1   107.9700462 569.024000
   5749   5748   5755     1   110.1900474 564.840000
   5750   5749   5768     1   111.0400475 552.288000
   5754   5750   5763     1   109.3800466 607.516800
   5756   5745   5763     1   107.9700462 569.024000
   5769   5771   5773     1   111.6100477 551.451200
   5771   5773   5777     1   111.0400475 552.288000
   5773   5777   5778     1   112.3500484 533.878400
   5773   5777   5779     1   112.3500484 533.878400
   5777   5778   5789     1   111.0400475 552.288000
   5777   5779   5781     1   111.0400475 552.288000
   5778   5777   5779     1   112.3500484 533.878400
   5778   5789   5792     1   111.0400475 529.694400
   5779   5781   5785     1   111.0400475 529.694400
   5781   5785   5786     1   123.2000528 564.003200
   5781   5785   5817     1   112.2600482 538.062400
   5785   5817   5798     1   118.5150508 540.957728
   5786   5785   5817     1   118.8300510 581.576000
   5789   5792   5793     1   123.2000528 564.003200
   5789   5792   5841     1   112.2600482 538.062400
   5792   5841   5822     1   118.5150508 540.957728
   5793   5792   5841     1   118.8300510 581.576000
   5794   5795   5797     1   111.5100476 526.347200
   5794   5795   5815     1   110.1900474 564.840000
   5794   5805   5810     1   110.1900474 564.840000
   5794   5812   5799     1   112.4800480 524.673600
   5795   5794   5805     1   111.5100476 526.347200
   5795   5794   5812     1   107.9700462 569.024000
   5795   5797   5798     1   111.5100476 526.347200
   5795   5797   5804     1   110.1900474 564.840000
   5797   5795   5815     1   110.1900474 564.840000
   5797   5798   5799     1   111.5100476 526.347200
   5797   5798   5817     1   111.0400475 552.288000
   5798   5797   5804     1   110.1900474 564.840000
   5798   5799   5803     1   110.1900474 564.840000
   5798   5799   5812     1   107.9700462 569.024000
   5799   5798   5817     1   111.0400475 552.288000
   5803   5799   5812     1   109.3800466 607.516800
   5805   5794   5812     1   107.9700462 569.024000
   5818   5819   5821     1   111.5100476 526.347200
   5818   5819   5839     1   110.1900474 564.840000
   5818   5829   5834     1   110.1900474 564.840000
   5818   5836   5823     1   112.4800480 524.673600
   5819   5818   5829     1   111.5100476 526.347200
   5819   5818   5836     1   107.9700462 569.024000
   5819   5821   5822     1   111.5100476 526.347200
   5819   5821   5828     1   110.1900474 564.840000
   5821   5819   5839     1   110.1900474 564.840000
   5821   5822   5823     1   111.5100476 526.347200
   5821   5822   5841     1   111.0400475 552.288000
   5822   5821   5828     1   110.1900474 564.840000
   5822   5823   5827     1   110.1900474 564.840000
   5822   5823   5836     1   107.9700462 569.024000
   5823   5822   5841     1   111.0400475 552.288000
   5827   5823   5836     1   109.3800466 607.516800
   5829   5818   5836     1   107.9700462 569.024000
   5842   5844   5846     1   111.6100477 551.451200
   5844   5846   5850     1   111.0400475 552.288000
   5846   5850   5851     1   112.3500484 533.878400
   5846   5850   5852     1   112.3500484 533.878400
   5850   5851   5862     1   111.0400475 552.288000
   5850   5852   5854     1   111.0400475 552.288000
   5851   5862   5865     1   111.0400475 529.694400
   5851   5850   5852     1   112.3500484 533.878400
   5852   5854   5858     1   111.0400475 529.694400
   5854   5858   5859     1   123.2000528 564.003200
   5854   5858   5890     1   112.2600482 538.062400
   5858   5890   5871     1   118.5150508 540.957728
   5859   5858   5890     1   118.8300510 581.576000
   5862   5865   5866     1   123.2000528 564.003200
   5862   5865   5914     1   112.2600482 538.062400
   5865   5914   5895     1   118.5150508 540.957728
   5866   5865   5914     1   118.8300510 581.576000
   5867   5868   5870     1   111.5100476 526.347200
   5867   5868   5888     1   110.1900474 564.840000
   5867   5878   5883     1   110.1900474 564.840000
   5867   5885   5872     1   112.4800480 524.673600
   5868   5870   5871     1   111.5100476 526.347200
   5868   5870   5877     1   110.1900474 564.840000
   5868   5867   5878     1   111.5100476 526.347200
   5868   5867   5885     1   107.9700462 569.024000
   5870   5871   5872     1   111.5100476 526.347200
   5870   5871   5890     1   111.0400475 552.288000
   5870   5868   5888     1   110.1900474 564.840000
   5871   5872   5876     1   110.1900474 564.840000
   5871   5872   5885     1   107.9700462 569.024000
   5871   5870   5877     1   110.1900474 564.840000
   5872   5871   5890     1   111.0400475 552.288000
   5876   5872   5885     1   109.3800466 607.516800
   5878   5867   5885     1   107.9700462 569.024000
   5891   5892   5894     1   111.5100476 526.347200
   5891   5892   5912     1   110.1900474 564.840000
   5891   5902   5907     1   110.1900474 564.840000
   5891   5909   5896     1   112.4800480 524.673600
   5892   5894   5895     1   111.5100476 526.347200
   5892   5894   5901     1   110.1900474 564.840000
   5892   5891   5902     1   111.5100476 526.347200
   5892   5891   5909     1   107.9700462 569.024000
   5894   5895   5896     1   111.5100476 526.347200
   5894   5895   5914     1   111.0400475 552.288000
   5894   5892   5912     1   110.1900474 564.840000
   5895   5896   5900     1   110.1900474 564.840000
   5895   5896   5909     1   107.9700462 569.024000
   5895   5894   5901     1   110.1900474 564.840000
   5896   5895   5914     1   111.0400475 552.288000
   5900   5896   5909     1   109.3800466 607.516800
   5902   5891   5909     1   107.9700462 569.024000
   5915   5917   5919     1   111.6100477 551.451200
   5917   5919   5923     1   111.0400475 552.288000
   5919   5923   5924     1   112.3500484 533.878400
   5919   5923   5925     1   112.3500484 533.878400
   5923   5924   5935     1   111.0400475 552.288000
   5923   5925   5927     1   111.0400475 552.288000
   5924   5923   5925     1   112.3500484 533.878400
   5924   5935   5938     1   111.0400475 529.694400
   5925   5927   5931     1   111.0400475 529.694400
   5927   5931   5932     1   123.2000528 564.003200
   5927   5931   5963     1   112.2600482 538.062400
   5931   5963   5944     1   118.5150508 540.957728
   5932   5931   5963     1   118.8300510 581.576000
   5935   5938   5939     1   123.2000528 564.003200
   5935   5938   5987     1   112.2600482 538.062400
   5938   5987   5968     1   118.5150508 540.957728
   5939   5938   5987     1   118.8300510 581.576000
   5940   5941   5943     1   111.5100476 526.347200
   5940   5941   5961     1   110.1900474 564.840000
   5940   5951   5956     1   110.1900474 564.840000
   5940   5958   5945     1   112.4800480 524.673600
   5941   5940   5951     1   111.5100476 526.347200
   5941   5940   5958     1   107.9700462 569.024000
   5941   5943   5944     1   111.5100476 526.347200
   5941   5943   5950     1   110.1900474 564.840000
   5943   5941   5961     1   110.1900474 564.840000
   5943   5944   5945     1   111.5100476 526.347200
   5943   5944   5963     1   111.0400475 552.288000
   5944   5943   5950     1   110.1900474 564.840000
   5944   5945   5949     1   110.1900474 564.840000
   5944   5945   5958     1   107.9700462 569.024000
   5945   5944   5963     1   111.0400475 552.288000
   5949   5945   5958     1   109.3800466 607.516800
   5951   5940   5958     1   107.9700462 569.024000
   5964   5965   5967     1   111.5100476 526.347200
   5964   5965   5985     1   110.1900474 564.840000
   5964   5975   5980     1   110.1900474 564.840000
   5964   5982   5969     1   112.4800480 524.673600
   5965   5964   5975     1   111.5100476 526.347200
   5965   5964   5982     1   107.9700462 569.024000
   5965   5967   5968     1   111.5100476 526.347200
   5965   5967   5974     1   110.1900474 564.840000
   5967   5965   5985     1   110.1900474 564.840000
   5967   5968   5969     1   111.5100476 526.347200
   5967   5968   5987     1   111.0400475 552.288000
   5968   5967   5974     1   110.1900474 564.840000
   5968   5969   5973     1   110.1900474 564.840000
   5968   5969   5982     1   107.9700462 569.024000
   5969   5968   5987     1   111.0400475 552.288000
   5973   5969   5982     1   109.3800466 607.516800
   5975   5964   5982     1   107.9700462 569.024000
   5988   5990   5992     1   111.6100477 551.451200
   5990   5992   5996     1   111.0400475 552.288000
   5992   5996   5997     1   112.3500484 533.878400
   5992   5996   5998     1   112.3500484 533.878400
   5996   5997   6008     1   111.0400475 552.288000
   5996   5998   6000     1   111.0400475 552.288000
   5997   6008   6011     1   111.0400475 529.694400
   5997   5996   5998     1   112.3500484 533.878400
   5998   6000   6004     1   111.0400475 529.694400
   6000   6004   6005     1   123.2000528 564.003200
   6000   6004   6036     1   112.2600482 538.062400
   6004   6036   6017     1   118.5150508 540.957728
   6005   6004   6036     1   118.8300510 581.576000
   6008   6011   6012     1   123.2000528 564.003200
   6008   6011   6060     1   112.2600482 538.062400
   6011   6060   6041     1   118.5150508 540.957728
   6012   6011   6060     1   118.8300510 581.576000
   6013   6014   6016     1   111.5100476 526.347200
   6013   6014   6034     1   110.1900474 564.840000
   6013   6024   6029     1   110.1900474 564.840000
   6013   6031   6018     1   112.4800480 524.673600
   6014   6016   6017     1   111.5100476 526.347200
   6014   6016   6023     1   110.1900474 564.840000
   6014   6013   6024     1   111.5100476 526.347200
   6014   6013   6031     1   107.9700462 569.024000
   6016   6017   6018     1   111.5100476 526.347200
   6016   6017   6036     1   111.0400475 552.288000
   6016   6014   6034     1   110.1900474 564.840000
   6017   6018   6022     1   110.1900474 564.840000
   6017   6018   6031     1   107.9700462 569.024000
   6017   6016   6023     1   110.1900474 564.840000
   6018   6017   6036     1   111.0400475 552.288000
   6022   6018   6031     1   109.3800466 607.516800
   6024   6013   6031     1   107.9700462 569.024000
   6037   6038   6040     1   111.5100476 526.347200
   6037   6038   6058     1   110.1900474 564.840000
   6037   6048   6053     1   110.1900474 564.840000
   6037   6055   6042     1   112.4800480 524.673600
   6038   6040   6041     1   111.5100476 526.347200
   6038   6040   6047     1   110.1900474 564.840000
   6038   6037   6048     1   111.5100476 526.347200
   6038   6037   6055     1   107.9700462 569.024000
   6040   6041   6042     1   111.5100476 526.347200
   6040   6041   6060     1   111.0400475 552.288000
   6040   6038   6058     1   110.1900474 564.840000
   6041   6042   6046     1   110.1900474 564.840000
   6041   6042   6055     1   107.9700462 569.024000
   6041   6040   6047     1   110.1900474 564.840000
   6042   6041   6060     1   111.0400475 552.288000
   6046   6042   6055     1   109.3800466 607.516800
   6048   6037   6055     1   107.9700462 569.024000
   6061   6063   6065     1   111.6100477 551.451200
   6063   6065   6069     1   111.0400475 552.288000
   6065   6069   6070     1   112.3500484 533.878400
   6065   6069   6071     1   112.3500484 533.878400
   6069   6070   6081     1   111.0400475 552.288000
   6069   6071   6073     1   111.0400475 552.288000
   6070   6069   6071     1   112.3500484 533.878400
   6070   6081   6084     1   111.0400475 529.694400
   6071   6073   6077     1   111.0400475 529.694400
   6073   6077   6078     1   123.2000528 564.003200
   6073   6077   6109     1   112.2600482 538.062400
   6077   6109   6090     1   118.5150508 540.957728
   6078   6077   6109     1   118.8300510 581.576000
   6081   6084   6085     1   123.2000528 564.003200
   6081   6084   6133     1   112.2600482 538.062400
   6084   6133   6114     1   118.5150508 540.957728
   6085   6084   6133     1   118.8300510 581.576000
   6086   6087   6089     1   111.5100476 526.347200
   6086   6087   6107     1   110.1900474 564.840000
   6086   6097   6102     1   110.1900474 564.840000
   6086   6104   6091     1   112.4800480 524.673600
   6087   6086   6097     1   111.5100476 526.347200
   6087   6086   6104     1   107.9700462 569.024000
   6087   6089   6090     1   111.5100476 526.347200
   6087   6089   6096     1   110.1900474 564.840000
   6089   6087   6107     1   110.1900474 564.840000
   6089   6090   6091     1   111.5100476 526.347200
   6089   6090   6109     1   111.0400475 552.288000
   6090   6089   6096     1   110.1900474 564.840000
   6090   6091   6095     1   110.1900474 564.840000
   6090   6091   6104     1   107.9700462 569.024000
   6091   6090   6109     1   111.0400475 552.288000
   6095   6091   6104     1   109.3800466 607.516800
   6097   6086   6104     1   107.9700462 569.024000
   6110   6111   6113     1   111.5100476 526.347200
   6110   6111   6131     1   110.1900474 564.840000
   6110   6121   6126     1   110.1900474 564.840000
   6110   6128   6115     1   112.4800480 524.673600
   6111   6110   6121     1   111.5100476 526.347200
   6111   6110   6128     1   107.9700462 569.024000
   6111   6113   6114     1   111.5100476 526.347200
   6111   6113   6120     1   110.1900474 564.840000
   6113   6111   6131     1   110.1900474 564.840000
   6113   6114   6115     1   111.5100476 526.347200
   6113   6114   6133     1   111.0400475 552.288000
   6114   6113   6120     1   110.1900474 564.840000
   6114   6115   6119     1   110.1900474 564.840000
   6114   6115   6128     1   107.9700462 569.024000
   6115   6114   6133     1   111.0400475 552.288000
   6119   6115   6128     1   109.3800466 607.516800
   6121   6110   6128     1   107.9700462 569.024000
   6134   6136   6138     1   111.6100477 551.451200
   6136   6138   6142     1   111.0400475 552.288000
   6138   6142   6143     1   112.3500484 533.878400
   6138   6142   6144     1   112.3500484 533.878400
   6142   6143   6154     1   111.0400475 552.288000
   6142   6144   6146     1   111.0400475 552.288000
   6143   6154   6157     1   111.0400475 529.694400
   6143   6142   6144     1   112.3500484 533.878400
   6144   6146   6150     1   111.0400475 529.694400
   6146   6150   6151     1   123.2000528 564.003200
   6146   6150   6182     1   112.2600482 538.062400
   6150   6182   6163     1   118.5150508 540.957728
   6151   6150   6182     1   118.8300510 581.576000
   6154   6157   6158     1   123.2000528 564.003200
   6154   6157   6206     1   112.2600482 538.062400
   6157   6206   6187     1   118.5150508 540.957728
   6158   6157   6206     1   118.8300510 581.576000
   6159   6160   6162     1   111.5100476 526.347200
   6159   6160   6180     1   110.1900474 564.840000
   6159   6170   6175     1   110.1900474 564.840000
   6159   6177   6164     1   112.4800480 524.673600
   6160   6162   6163     1   111.5100476 526.347200
   6160   6162   6169     1   110.1900474 564.840000
   6160   6159   6170     1   111.5100476 526.347200
   6160   6159   6177     1   107.9700462 569.024000
   6162   6163   6164     1   111.5100476 526.347200
   6162   6163   6182     1   111.0400475 552.288000
   6162   6160   6180     1   110.1900474 564.840000
   6163   6164   6168     1   110.1900474 564.840000
   6163   6164   6177     1   107.9700462 569.024000
   6163   6162   6169     1   110.1900474 564.840000
   6164   6163   6182     1   111.0400475 552.288000
   6168   6164   6177     1   109.3800466 607.516800
   6170   6159   6177     1   107.9700462 569.024000
   6183   6184   6186     1   111.5100476 526.347200
   6183   6184   6204     1   110.1900474 564.840000
   6183   6194   6199     1   110.1900474 564.840000
   6183   6201   6188     1   112.4800480 524.673600
   6184   6186   6187     1   111.5100476 526.347200
   6184   6186   6193     1   110.1900474 564.840000
   6184   6183   6194     1   111.5100476 526.347200
   6184   6183   6201     1   107.9700462 569.024000
   6186   6187   6188     1   111.5100476 526.347200
   6186   6187   6206     1   111.0400475 552.288000
   6186   6184   6204     1   110.1900474 564.840000
   6187   6188   6192     1   110.1900474 564.840000
   6187   6188   6201     1   107.9700462 569.024000
   6187   6186   6193     1   110.1900474 564.840000
   6188   6187   6206     1   111.0400475 552.288000
   6192   6188   6201     1   109.3800466 607.516800
   6194   6183   6201     1   107.9700462 569.024000
   6207   6209   6211     1   111.6100477 551.451200
   6209   6211   6215     1   111.0400475 552.288000
   6211   6215   6216     1   112.3500484 533.878400
   6211   6215   6217     1   112.3500484 533.878400
   6215   6216   6227     1   111.0400475 552.288000
   6215   6217   6219     1   111.0400475 552.288000
   6216   6215   6217     1   112.3500484 533.878400
   6216   6227   6230     1   111.0400475 529.694400
   6217   6219   6223     1   111.0400475 529.694400
   6219   6223   6224     1   123.2000528 564.003200
   6219   6223   6255     1   112.2600482 538.062400
   6223   6255   6236     1   118.5150508 540.957728
   6224   6223   6255     1   118.8300510 581.576000
   6227   6230   6231     1   123.2000528 564.003200
   6227   6230   6279     1   112.2600482 538.062400
   6230   6279   6260     1   118.5150508 540.957728
   6231   6230   6279     1   118.8300510 581.576000
   6232   6233   6235     1   111.5100476 526.347200
   6232   6233   6253     1   110.1900474 564.840000
   6232   6243   6248     1   110.1900474 564.840000
   6232   6250   6237     1   112.4800480 524.673600
   6233   6232   6243     1   111.5100476 526.347200
   6233   6232   6250     1   107.9700462 569.024000
   6233   6235   6236     1   111.5100476 526.347200
   6233   6235   6242     1   110.1900474 564.840000
   6235   6233   6253     1   110.1900474 564.840000
   6235   6236   6237     1   111.5100476 526.347200
   6235   6236   6255     1   111.0400475 552.288000
   6236   6235   6242     1   110.1900474 564.840000
   6236   6237   6241     1   110.1900474 564.840000
   6236   6237   6250     1   107.9700462 569.024000
   6237   6236   6255     1   111.0400475 552.288000
   6241   6237   6250     1   109.3800466 607.516800
   6243   6232   6250     1   107.9700462 569.024000
   6256   6257   6259     1   111.5100476 526.347200
   6256   6257   6277     1   110.1900474 564.840000
   6256   6267   6272     1   110.1900474 564.840000
   6256   6274   6261     1   112.4800480 524.673600
   6257   6256   6267     1   111.5100476 526.347200
   6257   6256   6274     1   107.9700462 569.024000
   6257   6259   6260     1   111.5100476 526.347200
   6257   6259   6266     1   110.1900474 564.840000
   6259   6257   6277     1   110.1900474 564.840000
   6259   6260   6261     1   111.5100476 526.347200
   6259   6260   6279     1   111.0400475 552.288000
   6260   6259   6266     1   110.1900474 564.840000
   6260   6261   6265     1   110.1900474 564.840000
   6260   6261   6274     1   107.9700462 569.024000
   6261   6260   6279     1   111.0400475 552.288000
   6265   6261   6274     1   109.3800466 607.516800
   6267   6256   6274     1   107.9700462 569.024000
   6280   6282   6284     1   111.6100477 551.451200
   6282   6284   6288     1   111.0400475 552.288000
   6284   6288   6289     1   112.3500484 533.878400
   6284   6288   6290     1   112.3500484 533.878400
   6288   6289   6300     1   111.0400475 552.288000
   6288   6290   6292     1   111.0400475 552.288000
   6289   6300   6303     1   111.0400475 529.694400
   6289   6288   6290     1   112.3500484 533.878400
   6290   6292   6296     1   111.0400475 529.694400
   6292   6296   6297     1   123.2000528 564.003200
   6292   6296   6328     1   112.2600482 538.062400
   6296   6328   6309     1   118.5150508 540.957728
   6297   6296   6328     1   118.8300510 581.576000
   6300   6303   6304     1   123.2000528 564.003200
   6300   6303   6352     1   112.2600482 538.062400
   6303   6352   6333     1   118.5150508 540.957728
   6304   6303   6352     1   118.8300510 581.576000
   6305   6306   6308     1   111.5100476 526.347200
   6305   6306   6326     1   110.1900474 564.840000
   6305   6316   6321     1   110.1900474 564.840000
   6305   6323   6310     1   112.4800480 524.673600
   6306   6308   6309     1   111.5100476 526.347200
   6306   6308   6315     1   110.1900474 564.840000
   6306   6305   6316     1   111.5100476 526.347200
   6306   6305   6323     1   107.9700462 569.024000
   6308   6309   6310     1   111.5100476 526.347200
   6308   6309   6328     1   111.0400475 552.288000
   6308   6306   6326     1   110.1900474 564.840000
   6309   6310   6314     1   110.1900474 564.840000
   6309   6310   6323     1   107.9700462 569.024000
   6309   6308   6315     1   110.1900474 564.840000
   6310   6309   6328     1   111.0400475 552.288000
   6314   6310   6323     1   109.3800466 607.516800
   6316   6305   6323     1   107.9700462 569.024000
   6329   6330   6332     1   111.5100476 526.347200
   6329   6330   6350     1   110.1900474 564.840000
   6329   6340   6345     1   110.1900474 564.840000
   6329   6347   6334     1   112.4800480 524.673600
   6330   6332   6333     1   111.5100476 526.347200
   6330   6332   6339     1   110.1900474 564.840000
   6330   6329   6340     1   111.5100476 526.347200
   6330   6329   6347     1   107.9700462 569.024000
   6332   6333   6334     1   111.5100476 526.347200
   6332   6333   6352     1   111.0400475 552.288000
   6332   6330   6350     1   110.1900474 564.840000
   6333   6334   6338     1   110.1900474 564.840000
   6333   6334   6347     1   107.9700462 569.024000
   6333   6332   6339     1   110.1900474 564.840000
   6334   6333   6352     1   111.0400475 552.288000
   6338   6334   6347     1   109.3800466 607.516800
   6340   6329   6347     1   107.9700462 569.024000
   6353   6355   6357     1   111.6100477 551.451200
   6355   6357   6361     1   111.0400475 552.288000
   6357   6361   6362     1   112.3500484 533.878400
   6357   6361   6363     1   112.3500484 533.878400
   6361   6362   6373     1   111.0400475 552.288000
   6361   6363   6365     1   111.0400475 552.288000
   6362   6361   6363     1   112.3500484 533.878400
   6362   6373   6376     1   111.0400475 529.694400
   6363   6365   6369     1   111.0400475 529.694400
   6365   6369   6370     1   123.2000528 564.003200
   6365   6369   6401     1   112.2600482 538.062400
   6369   6401   6382     1   118.5150508 540.957728
   6370   6369   6401     1   118.8300510 581.576000
   6373   6376   6377     1   123.2000528 564.003200
   6373   6376   6425     1   112.2600482 538.062400
   6376   6425   6406     1   118.5150508 540.957728
   6377   6376   6425     1   118.8300510 581.576000
   6378   6379   6381     1   111.5100476 526.347200
   6378   6379   6399     1   110.1900474 564.840000
   6378   6389   6394     1   110.1900474 564.840000
   6378   6396   6383     1   112.4800480 524.673600
   6379   6378   6389     1   111.5100476 526.347200
   6379   6378   6396     1   107.9700462 569.024000
   6379   6381   6382     1   111.5100476 526.347200
   6379   6381   6388     1   110.1900474 564.840000
   6381   6379   6399     1   110.1900474 564.840000
   6381   6382   6383     1   111.5100476 526.347200
   6381   6382   6401     1   111.0400475 552.288000
   6382   6381   6388     1   110.1900474 564.840000
   6382   6383   6387     1   110.1900474 564.840000
   6382   6383   6396     1   107.9700462 569.024000
   6383   6382   6401     1   111.0400475 552.288000
   6387   6383   6396     1   109.3800466 607.516800
   6389   6378   6396     1   107.9700462 569.024000
   6402   6403   6405     1   111.5100476 526.347200
   6402   6403   6423     1   110.1900474 564.840000
   6402   6413   6418     1   110.1900474 564.840000
   6402   6420   6407     1   112.4800480 524.673600
   6403   6402   6413     1   111.5100476 526.347200
   6403   6402   6420     1   107.9700462 569.024000
   6403   6405   6406     1   111.5100476 526.347200
   6403   6405   6412     1   110.1900474 564.840000
   6405   6403   6423     1   110.1900474 564.840000
   6405   6406   6407     1   111.5100476 526.347200
   6405   6406   6425     1   111.0400475 552.288000
   6406   6405   6412     1   110.1900474 564.840000
   6406   6407   6411     1   110.1900474 564.840000
   6406   6407   6420     1   107.9700462 569.024000
   6407   6406   6425     1   111.0400475 552.288000
   6411   6407   6420     1   109.3800466 607.516800
   6413   6402   6420     1   107.9700462 569.024000
   6426   6428   6430     1   111.6100477 551.451200
   6428   6430   6434     1   111.0400475 552.288000
   6430   6434   6435     1   112.3500484 533.878400
   6430   6434   6436     1   112.3500484 533.878400
   6434   6435   6446     1   111.0400475 552.288000
   6434   6436   6438     1   111.0400475 552.288000
   6435   6446   6449     1   111.0400475 529.694400
   6435   6434   6436     1   112.3500484 533.878400
   6436   6438   6442     1   111.0400475 529.694400
   6438   6442   6443     1   123.2000528 564.003200
   6438   6442   6474     1   112.2600482 538.062400
   6442   6474   6455     1   118.5150508 540.957728
   6443   6442   6474     1   118.8300510 581.576000
   6446   6449   6450     1   123.2000528 564.003200
   6446   6449   6498     1   112.2600482 538.062400
   6449   6498   6479     1   118.5150508 540.957728
   6450   6449   6498     1   118.8300510 581.576000
   6451   6452   6454     1   111.5100476 526.347200
   6451   6452   6472     1   110.1900474 564.840000
   6451   6462   6467     1   110.1900474 564.840000
   6451   6469   6456     1   112.4800480 524.673600
   6452   6454   6455     1   111.5100476 526.347200
   6452   6454   6461     1   110.1900474 564.840000
   6452   6451   6462     1   111.5100476 526.347200
   6452   6451   6469     1   107.9700462 569.024000
   6454   6455   6456     1   111.5100476 526.347200
   6454   6455   6474     1   111.0400475 552.288000
   6454   6452   6472     1   110.1900474 564.840000
   6455   6456   6460     1   110.1900474 564.840000
   6455   6456   6469     1   107.9700462 569.024000
   6455   6454   6461     1   110.1900474 564.840000
   6456   6455   6474     1   111.0400475 552.288000
   6460   6456   6469     1   109.3800466 607.516800
   6462   6451   6469     1   107.9700462 569.024000
   6475   6476   6478     1   111.5100476 526.347200
   6475   6476   6496     1   110.1900474 564.840000
   6475   6486   6491     1   110.1900474 564.840000
   6475   6493   6480     1   112.4800480 524.673600
   6476   6478   6479     1   111.5100476 526.347200
   6476   6478   6485     1   110.1900474 564.840000
   6476   6475   6486     1   111.5100476 526.347200
   6476   6475   6493     1   107.9700462 569.024000
   6478   6479   6480     1   111.5100476 526.347200
   6478   6479   6498     1   111.0400475 552.288000
   6478   6476   6496     1   110.1900474 564.840000
   6479   6480   6484     1   110.1900474 564.840000
   6479   6480   6493     1   107.9700462 569.024000
   6479   6478   6485     1   110.1900474 564.840000
   6480   6479   6498     1   111.0400475 552.288000
   6484   6480   6493     1   109.3800466 607.516800
   6486   6475   6493     1   107.9700462 569.024000
   6499   6501   6503     1   111.6100477 551.451200
   6501   6503   6507     1   111.0400475 552.288000
   6503   6507   6508     1   112.3500484 533.878400
   6503   6507   6509     1   112.3500484 533.878400
   6507   6508   6519     1   111.0400475 552.288000
   6507   6509   6511     1   111.0400475 552.288000
   6508   6507   6509     1   112.3500484 533.878400
   6508   6519   6522     1   111.0400475 529.694400
   6509   6511   6515     1   111.0400475 529.694400
   6511   6515   6516     1   123.2000528 564.003200
   6511   6515   6547     1   112.2600482 538.062400
   6515   6547   6528     1   118.5150508 540.957728
   6516   6515   6547     1   118.8300510 581.576000
   6519   6522   6523     1   123.2000528 564.003200
   6519   6522   6571     1   112.2600482 538.062400
   6522   6571   6552     1   118.5150508 540.957728
   6523   6522   6571     1   118.8300510 581.576000
   6524   6525   6527     1   111.5100476 526.347200
   6524   6525   6545     1   110.1900474 564.840000
   6524   6535   6540     1   110.1900474 564.840000
   6524   6542   6529     1   112.4800480 524.673600
   6525   6524   6535     1   111.5100476 526.347200
   6525   6524   6542     1   107.9700462 569.024000
   6525   6527   6528     1   111.5100476 526.347200
   6525   6527   6534     1   110.1900474 564.840000
   6527   6525   6545     1   110.1900474 564.840000
   6527   6528   6529     1   111.5100476 526.347200
   6527   6528   6547     1   111.0400475 552.288000
   6528   6527   6534     1   110.1900474 564.840000
   6528   6529   6533     1   110.1900474 564.840000
   6528   6529   6542     1   107.9700462 569.024000
   6529   6528   6547     1   111.0400475 552.288000
   6533   6529   6542     1   109.3800466 607.516800
   6535   6524   6542     1   107.9700462 569.024000
   6548   6549   6551     1   111.5100476 526.347200
   6548   6549   6569     1   110.1900474 564.840000
   6548   6559   6564     1   110.1900474 564.840000
   6548   6566   6553     1   112.4800480 524.673600
   6549   6548   6559     1   111.5100476 526.347200
   6549   6548   6566     1   107.9700462 569.024000
   6549   6551   6552     1   111.5100476 526.347200
   6549   6551   6558     1   110.1900474 564.840000
   6551   6549   6569     1   110.1900474 564.840000
   6551   6552   6553     1   111.5100476 526.347200
   6551   6552   6571     1   111.0400475 552.288000
   6552   6551   6558     1   110.1900474 564.840000
   6552   6553   6557     1   110.1900474 564.840000
   6552   6553   6566     1   107.9700462 569.024000
   6553   6552   6571     1   111.0400475 552.288000
   6557   6553   6566     1   109.3800466 607.516800
   6559   6548   6566     1   107.9700462 569.024000
   6572   6574   6576     1   111.6100477 551.451200
   6574   6576   6580     1   111.0400475 552.288000
   6576   6580   6581     1   112.3500484 533.878400
   6576   6580   6582     1   112.3500484 533.878400
   6580   6581   6592     1   111.0400475 552.288000
   6580   6582   6584     1   111.0400475 552.288000
   6581   6592   6595     1   111.0400475 529.694400
   6581   6580   6582     1   112.3500484 533.878400
   6582   6584   6588     1   111.0400475 529.694400
   6584   6588   6589     1   123.2000528 564.003200
   6584   6588   6620     1   112.2600482 538.062400
   6588   6620   6601     1   118.5150508 540.957728
   6589   6588   6620     1   118.8300510 581.576000
   6592   6595   6596     1   123.2000528 564.003200
   6592   6595   6644     1   112.2600482 538.062400
   6595   6644   6625     1   118.5150508 540.957728
   6596   6595   6644     1   118.8300510 581.576000
   6597   6598   6600     1   111.5100476 526.347200
   6597   6598   6618     1   110.1900474 564.840000
   6597   6608   6613     1   110.1900474 564.840000
   6597   6615   6602     1   112.4800480 524.673600
   6598   6600   6601     1   111.5100476 526.347200
   6598   6600   6607     1   110.1900474 564.840000
   6598   6597   6608     1   111.5100476 526.347200
   6598   6597   6615     1   107.9700462 569.024000
   6600   6601   6602     1   111.5100476 526.347200
   6600   6601   6620     1   111.0400475 552.288000
   6600   6598   6618     1   110.1900474 564.840000
   6601   6602   6606     1   110.1900474 564.840000
   6601   6602   6615     1   107.9700462 569.024000
   6601   6600   6607     1   110.1900474 564.840000
   6602   6601   6620     1   111.0400475 552.288000
   6606   6602   6615     1   109.3800466 607.516800
   6608   6597   6615     1   107.9700462 569.024000
   6621   6622   6624     1   111.5100476 526.347200
   6621   6622   6642     1   110.1900474 564.840000
   6621   6632   6637     1   110.1900474 564.840000
   6621   6639   6626     1   112.4800480 524.673600
   6622   6624   6625     1   111.5100476 526.347200
   6622   6624   6631     1   110.1900474 564.840000
   6622   6621   6632     1   111.5100476 526.347200
   6622   6621   6639     1   107.9700462 569.024000
   6624   6625   6626     1   111.5100476 526.347200
   6624   6625   6644     1   111.0400475 552.288000
   6624   6622   6642     1   110.1900474 564.840000
   6625   6626   6630     1   110.1900474 564.840000
   6625   6626   6639     1   107.9700462 569.024000
   6625   6624   6631     1   110.1900474 564.840000
   6626   6625   6644     1   111.0400475 552.288000
   6630   6626   6639     1   109.3800466 607.516800
   6632   6621   6639     1   107.9700462 569.024000
   6645   6647   6649     1   111.6100477 551.451200
   6647   6649   6653     1   111.0400475 552.288000
   6649   6653   6654     1   112.3500484 533.878400
   6649   6653   6655     1   112.3500484 533.878400
   6653   6654   6665     1   111.0400475 552.288000
   6653   6655   6657     1   111.0400475 552.288000
   6654   6653   6655     1   112.3500484 533.878400
   6654   6665   6668     1   111.0400475 529.694400
   6655   6657   6661     1   111.0400475 529.694400
   6657   6661   6662     1   123.2000528 564.003200
   6657   6661   6693     1   112.2600482 538.062400
   6661   6693   6674     1   118.5150508 540.957728
   6662   6661   6693     1   118.8300510 581.576000
   6665   6668   6669     1   123.2000528 564.003200
   6665   6668   6717     1   112.2600482 538.062400
   6668   6717   6698     1   118.5150508 540.957728
   6669   6668   6717     1   118.8300510 581.576000
   6670   6671   6673     1   111.5100476 526.347200
   6670   6671   6691     1   110.1900474 564.840000
   6670   6681   6686     1   110.1900474 564.840000
   6670   6688   6675     1   112.4800480 524.673600
   6671   6670   6681     1   111.5100476 526.347200
   6671   6670   6688     1   107.9700462 569.024000
   6671   6673   6674     1   111.5100476 526.347200
   6671   6673   6680     1   110.1900474 564.840000
   6673   6671   6691     1   110.1900474 564.840000
   6673   6674   6675     1   111.5100476 526.347200
   6673   6674   6693     1   111.0400475 552.288000
   6674   6673   6680     1   110.1900474 564.840000
   6674   6675   6679     1   110.1900474 564.840000
   6674   6675   6688     1   107.9700462 569.024000
   6675   6674   6693     1   111.0400475 552.288000
   6679   6675   6688     1   109.3800466 607.516800
   6681   6670   6688     1   107.9700462 569.024000
   6694   6695   6697     1   111.5100476 526.347200
   6694   6695   6715     1   110.1900474 564.840000
   6694   6705   6710     1   110.1900474 564.840000
   6694   6712   6699     1   112.4800480 524.673600
   6695   6694   6705     1   111.5100476 526.347200
   6695   6694   6712     1   107.9700462 569.024000
   6695   6697   6698     1   111.5100476 526.347200
   6695   6697   6704     1   110.1900474 564.840000
   6697   6695   6715     1   110.1900474 564.840000
   6697   6698   6699     1   111.5100476 526.347200
   6697   6698   6717     1   111.0400475 552.288000
   6698   6697   6704     1   110.1900474 564.840000
   6698   6699   6703     1   110.1900474 564.840000
   6698   6699   6712     1   107.9700462 569.024000
   6699   6698   6717     1   111.0400475 552.288000
   6703   6699   6712     1   109.3800466 607.516800
   6705   6694   6712     1   107.9700462 569.024000
   6718   6720   6722     1   111.6100477 551.451200
   6720   6722   6726     1   111.0400475 552.288000
   6722   6726   6727     1   112.3500484 533.878400
   6722   6726   6728     1   112.3500484 533.878400
   6726   6727   6738     1   111.0400475 552.288000
   6726   6728   6730     1   111.0400475 552.288000
   6727   6738   6741     1   111.0400475 529.694400
   6727   6726   6728     1   112.3500484 533.878400
   6728   6730   6734     1   111.0400475 529.694400
   6730   6734   6735     1   123.2000528 564.003200
   6730   6734   6766     1   112.2600482 538.062400
   6734   6766   6747     1   118.5150508 540.957728
   6735   6734   6766     1   118.8300510 581.576000
   6738   6741   6742     1   123.2000528 564.003200
   6738   6741   6790     1   112.2600482 538.062400
   6741   6790   6771     1   118.5150508 540.957728
   6742   6741   6790     1   118.8300510 581.576000
   6743   6744   6746     1   111.5100476 526.347200
   6743   6744   6764     1   110.1900474 564.840000
   6743   6754   6759     1   110.1900474 564.840000
   6743   6761   6748     1   112.4800480 524.673600
   6744   6746   6747     1   111.5100476 526.347200
   6744   6746   6753     1   110.1900474 564.840000
   6744   6743   6754     1   111.5100476 526.347200
   6744   6743   6761     1   107.9700462 569.024000
   6746   6747   6748     1   111.5100476 526.347200
   6746   6747   6766     1   111.0400475 552.288000
   6746   6744   6764     1   110.1900474 564.840000
   6747   6748   6752     1   110.1900474 564.840000
   6747   6748   6761     1   107.9700462 569.024000
   6747   6746   6753     1   110.1900474 564.840000
   6748   6747   6766     1   111.0400475 552.288000
   6752   6748   6761     1   109.3800466 607.516800
   6754   6743   6761     1   107.9700462 569.024000
   6767   6768   6770     1   111.5100476 526.347200
   6767   6768   6788     1   110.1900474 564.840000
   6767   6778   6783     1   110.1900474 564.840000
   6767   6785   6772     1   112.4800480 524.673600
   6768   6770   6771     1   111.5100476 526.347200
   6768   6770   6777     1   110.1900474 564.840000
   6768   6767   6778     1   111.5100476 526.347200
   6768   6767   6785     1   107.9700462 569.024000
   6770   6771   6772     1   111.5100476 526.347200
   6770   6771   6790     1   111.0400475 552.288000
   6770   6768   6788     1   110.1900474 564.840000
   6771   6772   6776     1   110.1900474 564.840000
   6771   6772   6785     1   107.9700462 569.024000
   6771   6770   6777     1   110.1900474 564.840000
   6772   6771   6790     1   111.0400475 552.288000
   6776   6772   6785     1   109.3800466 607.516800
   6778   6767   6785     1   107.9700462 569.024000
   6791   6793   6795     1   111.6100477 551.451200
   6793   6795   6799     1   111.0400475 552.288000
   6795   6799   6800     1   112.3500484 533.878400
   6795   6799   6801     1   112.3500484 533.878400
   6799   6800   6811     1   111.0400475 552.288000
   6799   6801   6803     1   111.0400475 552.288000
   6800   6799   6801     1   112.3500484 533.878400
   6800   6811   6814     1   111.0400475 529.694400
   6801   6803   6807     1   111.0400475 529.694400
   6803   6807   6808     1   123.2000528 564.003200
   6803   6807   6839     1   112.2600482 538.062400
   6807   6839   6820     1   118.5150508 540.957728
   6808   6807   6839     1   118.8300510 581.576000
   6811   6814   6815     1   123.2000528 564.003200
   6811   6814   6863     1   112.2600482 538.062400
   6814   6863   6844     1   118.5150508 540.957728
   6815   6814   6863     1   118.8300510 581.576000
   6816   6817   6819     1   111.5100476 526.347200
   6816   6817   6837     1   110.1900474 564.840000
   6816   6827   6832     1   110.1900474 564.840000
   6816   6834   6821     1   112.4800480 524.673600
   6817   6816   6827     1   111.5100476 526.347200
   6817   6816   6834     1   107.9700462 569.024000
   6817   6819   6820     1   111.5100476 526.347200
   6817   6819   6826     1   110.1900474 564.840000
   6819   6817   6837     1   110.1900474 564.840000
   6819   6820   6821     1   111.5100476 526.347200
   6819   6820   6839     1   111.0400475 552.288000
   6820   6819   6826     1   110.1900474 564.840000
   6820   6821   6825     1   110.1900474 564.840000
   6820   6821   6834     1   107.9700462 569.024000
   6821   6820   6839     1   111.0400475 552.288000
   6825   6821   6834     1   109.3800466 607.516800
   6827   6816   6834     1   107.9700462 569.024000
   6840   6841   6843     1   111.5100476 526.347200
   6840   6841   6861     1   110.1900474 564.840000
   6840   6851   6856     1   110.1900474 564.840000
   6840   6858   6845     1   112.4800480 524.673600
   6841   6840   6851     1   111.5100476 526.347200
   6841   6840   6858     1   107.9700462 569.024000
   6841   6843   6844     1   111.5100476 526.347200
   6841   6843   6850     1   110.1900474 564.840000
   6843   6841   6861     1   110.1900474 564.840000
   6843   6844   6845     1   111.5100476 526.347200
   6843   6844   6863     1   111.0400475 552.288000
   6844   6843   6850     1   110.1900474 564.840000
   6844   6845   6849     1   110.1900474 564.840000
   6844   6845   6858     1   107.9700462 569.024000
   6845   6844   6863     1   111.0400475 552.288000
   6849   6845   6858     1   109.3800466 607.516800
   6851   6840   6858     1   107.9700462 569.024000
   6864   6866   6868     1   111.6100477 551.451200
   6866   6868   6872     1   111.0400475 552.288000
   6868   6872   6873     1   112.3500484 533.878400
   6868   6872   6874     1   112.3500484 533.878400
   6872   6873   6884     1   111.0400475 552.288000
   6872   6874   6876     1   111.0400475 552.288000
   6873   6884   6887     1   111.0400475 529.694400
   6873   6872   6874     1   112.3500484 533.878400
   6874   6876   6880     1   111.0400475 529.694400
   6876   6880   6881     1   123.2000528 564.003200
   6876   6880   6912     1   112.2600482 538.062400
   6880   6912   6893     1   118.5150508 540.957728
   6881   6880   6912     1   118.8300510 581.576000
   6884   6887   6888     1   123.2000528 564.003200
   6884   6887   6936     1   112.2600482 538.062400
   6887   6936   6917     1   118.5150508 540.957728
   6888   6887   6936     1   118.8300510 581.576000
   6889   6890   6892     1   111.5100476 526.347200
   6889   6890   6910     1   110.1900474 564.840000
   6889   6900   6905     1   110.1900474 564.840000
   6889   6907   6894     1   112.4800480 524.673600
   6890   6892   6893     1   111.5100476 526.347200
   6890   6892   6899     1   110.1900474 564.840000
   6890   6889   6900     1   111.5100476 526.347200
   6890   6889   6907     1   107.9700462 569.024000
   6892   6893   6894     1   111.5100476 526.347200
   6892   6893   6912     1   111.0400475 552.288000
   6892   6890   6910     1   110.1900474 564.840000
   6893   6894   6898     1   110.1900474 564.840000
   6893   6894   6907     1   107.9700462 569.024000
   6893   6892   6899     1   110.1900474 564.840000
   6894   6893   6912     1   111.0400475 552.288000
   6898   6894   6907     1   109.3800466 607.516800
   6900   6889   6907     1   107.9700462 569.024000
   6913   6914   6916     1   111.5100476 526.347200
   6913   6914   6934     1   110.1900474 564.840000
   6913   6924   6929     1   110.1900474 564.840000
   6913   6931   6918     1   112.4800480 524.673600
   6914   6916   6917     1   111.5100476 526.347200
   6914   6916   6923     1   110.1900474 564.840000
   6914   6913   6924     1   111.5100476 526.347200
   6914   6913   6931     1   107.9700462 569.024000
   6916   6917   6918     1   111.5100476 526.347200
   6916   6917   6936     1   111.0400475 552.288000
   6916   6914   6934     1   110.1900474 564.840000
   6917   6918   6922     1   110.1900474 564.840000
   6917   6918   6931     1   107.9700462 569.024000
   6917   6916   6923     1   110.1900474 564.840000
   6918   6917   6936     1   111.0400475 552.288000
   6922   6918   6931     1   109.3800466 607.516800
   6924   6913   6931     1   107.9700462 569.024000
   6937   6939   6941     1   111.6100477 551.451200
   6939   6941   6945     1   111.0400475 552.288000
   6941   6945   6946     1   112.3500484 533.878400
   6941   6945   6947     1   112.3500484 533.878400
   6945   6946   6957     1   111.0400475 552.288000
   6945   6947   6949     1   111.0400475 552.288000
   6946   6945   6947     1   112.3500484 533.878400
   6946   6957   6960     1   111.0400475 529.694400
   6947   6949   6953     1   111.0400475 529.694400
   6949   6953   6954     1   123.2000528 564.003200
   6949   6953   6985     1   112.2600482 538.062400
   6953   6985   6966     1   118.5150508 540.957728
   6954   6953   6985     1   118.8300510 581.576000
   6957   6960   6961     1   123.2000528 564.003200
   6957   6960   7009     1   112.2600482 538.062400
   6960   7009   6990     1   118.5150508 540.957728
   6961   6960   7009     1   118.8300510 581.576000
   6962   6963   6965     1   111.5100476 526.347200
   6962   6963   6983     1   110.1900474 564.840000
   6962   6973   6978     1   110.1900474 564.840000
   6962   6980   6967     1   112.4800480 524.673600
   6963   6962   6973     1   111.5100476 526.347200
   6963   6962   6980     1   107.9700462 569.024000
   6963   6965   6966     1   111.5100476 526.347200
   6963   6965   6972     1   110.1900474 564.840000
   6965   6963   6983     1   110.1900474 564.840000
   6965   6966   6967     1   111.5100476 526.347200
   6965   6966   6985     1   111.0400475 552.288000
   6966   6965   6972     1   110.1900474 564.840000
   6966   6967   6971     1   110.1900474 564.840000
   6966   6967   6980     1   107.9700462 569.024000
   6967   6966   6985     1   111.0400475 552.288000
   6971   6967   6980     1   109.3800466 607.516800
   6973   6962   6980     1   107.9700462 569.024000
   6986   6987   6989     1   111.5100476 526.347200
   6986   6987   7007     1   110.1900474 564.840000
   6986   6997   7002     1   110.1900474 564.840000
   6986   7004   6991     1   112.4800480 524.673600
   6987   6986   6997     1   111.5100476 526.347200
   6987   6986   7004     1   107.9700462 569.024000
   6987   6989   6990     1   111.5100476 526.347200
   6987   6989   6996     1   110.1900474 564.840000
   6989   6987   7007     1   110.1900474 564.840000
   6989   6990   6991     1   111.5100476 526.347200
   6989   6990   7009     1   111.0400475 552.288000
   6990   6989   6996     1   110.1900474 564.840000
   6990   6991   6995     1   110.1900474 564.840000
   6990   6991   7004     1   107.9700462 569.024000
   6991   6990   7009     1   111.0400475 552.288000
   6995   6991   7004     1   109.3800466 607.516800
   6997   6986   7004     1   107.9700462 569.024000
   7010   7012   7014     1   111.6100477 551.451200
   7012   7014   7018     1   111.0400475 552.288000
   7014   7018   7019     1   112.3500484 533.878400
   7014   7018   7020     1   112.3500484 533.878400
   7018   7019   7030     1   111.0400475 552.288000
   7018   7020   7022     1   111.0400475 552.288000
   7019   7030   7033     1   111.0400475 529.694400
   7019   7018   7020     1   112.3500484 533.878400
   7020   7022   7026     1   111.0400475 529.694400
   7022   7026   7027     1   123.2000528 564.003200
   7022   7026   7058     1   112.2600482 538.062400
   7026   7058   7039     1   118.5150508 540.957728
   7027   7026   7058     1   118.8300510 581.576000
   7030   7033   7034     1   123.2000528 564.003200
   7030   7033   7082     1   112.2600482 538.062400
   7033   7082   7063     1   118.5150508 540.957728
   7034   7033   7082     1   118.8300510 581.576000
   7035   7036   7038     1   111.5100476 526.347200
   7035   7036   7056     1   110.1900474 564.840000
   7035   7046   7051     1   110.1900474 564.840000
   7035   7053   7040     1   112.4800480 524.673600
   7036   7038   7039     1   111.5100476 526.347200
   7036   7038   7045     1   110.1900474 564.840000
   7036   7035   7046     1   111.5100476 526.347200
   7036   7035   7053     1   107.9700462 569.024000
   7038   7039   7040     1   111.5100476 526.347200
   7038   7039   7058     1   111.0400475 552.288000
   7038   7036   7056     1   110.1900474 564.840000
   7039   7040   7044     1   110.1900474 564.840000
   7039   7040   7053     1   107.9700462 569.024000
   7039   7038   7045     1   110.1900474 564.840000
   7040   7039   7058     1   111.0400475 552.288000
   7044   7040   7053     1   109.3800466 607.516800
   7046   7035   7053     1   107.9700462 569.024000
   7059   7060   7062     1   111.5100476 526.347200
   7059   7060   7080     1   110.1900474 564.840000
   7059   7070   7075     1   110.1900474 564.840000
   7059   7077   7064     1   112.4800480 524.673600
   7060   7062   7063     1   111.5100476 526.347200
   7060   7062   7069     1   110.1900474 564.840000
   7060   7059   7070     1   111.5100476 526.347200
   7060   7059   7077     1   107.9700462 569.024000
   7062   7063   7064     1   111.5100476 526.347200
   7062   7063   7082     1   111.0400475 552.288000
   7062   7060   7080     1   110.1900474 564.840000
   7063   7064   7068     1   110.1900474 564.840000
   7063   7064   7077     1   107.9700462 569.024000
   7063   7062   7069     1   110.1900474 564.840000
   7064   7063   7082     1   111.0400475 552.288000
   7068   7064   7077     1   109.3800466 607.516800
   7070   7059   7077     1   107.9700462 569.024000
   7083   7085   7087     1   111.6100477 551.451200
   7085   7087   7091     1   111.0400475 552.288000
   7087   7091   7092     1   112.3500484 533.878400
   7087   7091   7093     1   112.3500484 533.878400
   7091   7092   7103     1   111.0400475 552.288000
   7091   7093   7095     1   111.0400475 552.288000
   7092   7091   7093     1   112.3500484 533.878400
   7092   7103   7106     1   111.0400475 529.694400
   7093   7095   7099     1   111.0400475 529.694400
   7095   7099   7100     1   123.2000528 564.003200
   7095   7099   7131     1   112.2600482 538.062400
   7099   7131   7112     1   118.5150508 540.957728
   7100   7099   7131     1   118.8300510 581.576000
   7103   7106   7107     1   123.2000528 564.003200
   7103   7106   7155     1   112.2600482 538.062400
   7106   7155   7136     1   118.5150508 540.957728
   7107   7106   7155     1   118.8300510 581.576000
   7108   7109   7111     1   111.5100476 526.347200
   7108   7109   7129     1   110.1900474 564.840000
   7108   7119   7124     1   110.1900474 564.840000
   7108   7126   7113     1   112.4800480 524.673600
   7109   7108   7119     1   111.5100476 526.347200
   7109   7108   7126     1   107.9700462 569.024000
   7109   7111   7112     1   111.5100476 526.347200
   7109   7111   7118     1   110.1900474 564.840000
   7111   7109   7129     1   110.1900474 564.840000
   7111   7112   7113     1   111.5100476 526.347200
   7111   7112   7131     1   111.0400475 552.288000
   7112   7111   7118     1   110.1900474 564.840000
   7112   7113   7117     1   110.1900474 564.840000
   7112   7113   7126     1   107.9700462 569.024000
   7113   7112   7131     1   111.0400475 552.288000
   7117   7113   7126     1   109.3800466 607.516800
   7119   7108   7126     1   107.9700462 569.024000
   7132   7133   7135     1   111.5100476 526.347200
   7132   7133   7153     1   110.1900474 564.840000
   7132   7143   7148     1   110.1900474 564.840000
   7132   7150   7137     1   112.4800480 524.673600
   7133   7132   7143     1   111.5100476 526.347200
   7133   7132   7150     1   107.9700462 569.024000
   7133   7135   7136     1   111.5100476 526.347200
   7133   7135   7142     1   110.1900474 564.840000
   7135   7133   7153     1   110.1900474 564.840000
   7135   7136   7137     1   111.5100476 526.347200
   7135   7136   7155     1   111.0400475 552.288000
   7136   7135   7142     1   110.1900474 564.840000
   7136   7137   7141     1   110.1900474 564.840000
   7136   7137   7150     1   107.9700462 569.024000
   7137   7136   7155     1   111.0400475 552.288000
   7141   7137   7150     1   109.3800466 607.516800
   7143   7132   7150     1   107.9700462 569.024000
   7156   7158   7160     1   111.6100477 551.451200
   7158   7160   7164     1   111.0400475 552.288000
   7160   7164   7165     1   112.3500484 533.878400
   7160   7164   7166     1   112.3500484 533.878400
   7164   7165   7176     1   111.0400475 552.288000
   7164   7166   7168     1   111.0400475 552.288000
   7165   7176   7179     1   111.0400475 529.694400
   7165   7164   7166     1   112.3500484 533.878400
   7166   7168   7172     1   111.0400475 529.694400
   7168   7172   7173     1   123.2000528 564.003200
   7168   7172   7204     1   112.2600482 538.062400
   7172   7204   7185     1   118.5150508 540.957728
   7173   7172   7204     1   118.8300510 581.576000
   7176   7179   7180     1   123.2000528 564.003200
   7176   7179   7228     1   112.2600482 538.062400
   7179   7228   7209     1   118.5150508 540.957728
   7180   7179   7228     1   118.8300510 581.576000
   7181   7182   7184     1   111.5100476 526.347200
   7181   7182   7202     1   110.1900474 564.840000
   7181   7192   7197     1   110.1900474 564.840000
   7181   7199   7186     1   112.4800480 524.673600
   7182   7184   7185     1   111.5100476 526.347200
   7182   7184   7191     1   110.1900474 564.840000
   7182   7181   7192     1   111.5100476 526.347200
   7182   7181   7199     1   107.9700462 569.024000
   7184   7185   7186     1   111.5100476 526.347200
   7184   7185   7204     1   111.0400475 552.288000
   7184   7182   7202     1   110.1900474 564.840000
   7185   7186   7190     1   110.1900474 564.840000
   7185   7186   7199     1   107.9700462 569.024000
   7185   7184   7191     1   110.1900474 564.840000
   7186   7185   7204     1   111.0400475 552.288000
   7190   7186   7199     1   109.3800466 607.516800
   7192   7181   7199     1   107.9700462 569.024000
   7205   7206   7208     1   111.5100476 526.347200
   7205   7206   7226     1   110.1900474 564.840000
   7205   7216   7221     1   110.1900474 564.840000
   7205   7223   7210     1   112.4800480 524.673600
   7206   7208   7209     1   111.5100476 526.347200
   7206   7208   7215     1   110.1900474 564.840000
   7206   7205   7216     1   111.5100476 526.347200
   7206   7205   7223     1   107.9700462 569.024000
   7208   7209   7210     1   111.5100476 526.347200
   7208   7209   7228     1   111.0400475 552.288000
   7208   7206   7226     1   110.1900474 564.840000
   7209   7210   7214     1   110.1900474 564.840000
   7209   7210   7223     1   107.9700462 569.024000
   7209   7208   7215     1   110.1900474 564.840000
   7210   7209   7228     1   111.0400475 552.288000
   7214   7210   7223     1   109.3800466 607.516800
   7216   7205   7223     1   107.9700462 569.024000
   7229   7231   7233     1   111.6100477 551.451200
   7231   7233   7237     1   111.0400475 552.288000
   7233   7237   7238     1   112.3500484 533.878400
   7233   7237   7239     1   112.3500484 533.878400
   7237   7238   7249     1   111.0400475 552.288000
   7237   7239   7241     1   111.0400475 552.288000
   7238   7237   7239     1   112.3500484 533.878400
   7238   7249   7252     1   111.0400475 529.694400
   7239   7241   7245     1   111.0400475 529.694400
   7241   7245   7246     1   123.2000528 564.003200
   7241   7245   7277     1   112.2600482 538.062400
   7245   7277   7258     1   118.5150508 540.957728
   7246   7245   7277     1   118.8300510 581.576000
   7249   7252   7253     1   123.2000528 564.003200
   7249   7252   7301     1   112.2600482 538.062400
   7252   7301   7282     1   118.5150508 540.957728
   7253   7252   7301     1   118.8300510 581.576000
   7254   7255   7257     1   111.5100476 526.347200
   7254   7255   7275     1   110.1900474 564.840000
   7254   7265   7270     1   110.1900474 564.840000
   7254   7272   7259     1   112.4800480 524.673600
   7255   7254   7265     1   111.5100476 526.347200
   7255   7254   7272     1   107.9700462 569.024000
   7255   7257   7258     1   111.5100476 526.347200
   7255   7257   7264     1   110.1900474 564.840000
   7257   7255   7275     1   110.1900474 564.840000
   7257   7258   7259     1   111.5100476 526.347200
   7257   7258   7277     1   111.0400475 552.288000
   7258   7257   7264     1   110.1900474 564.840000
   7258   7259   7263     1   110.1900474 564.840000
   7258   7259   7272     1   107.9700462 569.024000
   7259   7258   7277     1   111.0400475 552.288000
   7263   7259   7272     1   109.3800466 607.516800
   7265   7254   7272     1   107.9700462 569.024000
   7278   7279   7281     1   111.5100476 526.347200
   7278   7279   7299     1   110.1900474 564.840000
   7278   7289   7294     1   110.1900474 564.840000
   7278   7296   7283     1   112.4800480 524.673600
   7279   7278   7289     1   111.5100476 526.347200
   7279   7278   7296     1   107.9700462 569.024000
   7279   7281   7282     1   111.5100476 526.347200
   7279   7281   7288     1   110.1900474 564.840000
   7281   7279   7299     1   110.1900474 564.840000
   7281   7282   7283     1   111.5100476 526.347200
   7281   7282   7301     1   111.0400475 552.288000
   7282   7281   7288     1   110.1900474 564.840000
   7282   7283   7287     1   110.1900474 564.840000
   7282   7283   7296     1   107.9700462 569.024000
   7283   7282   7301     1   111.0400475 552.288000
   7287   7283   7296     1   109.3800466 607.516800
   7289   7278   7296     1   107.9700462 569.024000
   7302   7304   7306     1   111.6100477 551.451200
   7304   7306   7310     1   111.0400475 552.288000
   7306   7310   7311     1   112.3500484 533.878400
   7306   7310   7312     1   112.3500484 533.878400
   7310   7311   7322     1   111.0400475 552.288000
   7310   7312   7314     1   111.0400475 552.288000
   7311   7322   7325     1   111.0400475 529.694400
   7311   7310   7312     1   112.3500484 533.878400
   7312   7314   7318     1   111.0400475 529.694400
   7314   7318   7319     1   123.2000528 564.003200
   7314   7318   7350     1   112.2600482 538.062400
   7318   7350   7331     1   118.5150508 540.957728
   7319   7318   7350     1   118.8300510 581.576000
   7322   7325   7326     1   123.2000528 564.003200
   7322   7325   7374     1   112.2600482 538.062400
   7325   7374   7355     1   118.5150508 540.957728
   7326   7325   7374     1   118.8300510 581.576000
   7327   7328   7330     1   111.5100476 526.347200
   7327   7328   7348     1   110.1900474 564.840000
   7327   7338   7343     1   110.1900474 564.840000
   7327   7345   7332     1   112.4800480 524.673600
   7328   7330   7331     1   111.5100476 526.347200
   7328   7330   7337     1   110.1900474 564.840000
   7328   7327   7338     1   111.5100476 526.347200
   7328   7327   7345     1   107.9700462 569.024000
   7330   7331   7332     1   111.5100476 526.347200
   7330   7331   7350     1   111.0400475 552.288000
   7330   7328   7348     1   110.1900474 564.840000
   7331   7332   7336     1   110.1900474 564.840000
   7331   7332   7345     1   107.9700462 569.024000
   7331   7330   7337     1   110.1900474 564.840000
   7332   7331   7350     1   111.0400475 552.288000
   7336   7332   7345     1   109.3800466 607.516800
   7338   7327   7345     1   107.9700462 569.024000
   7351   7352   7354     1   111.5100476 526.347200
   7351   7352   7372     1   110.1900474 564.840000
   7351   7362   7367     1   110.1900474 564.840000
   7351   7369   7356     1   112.4800480 524.673600
   7352   7354   7355     1   111.5100476 526.347200
   7352   7354   7361     1   110.1900474 564.840000
   7352   7351   7362     1   111.5100476 526.347200
   7352   7351   7369     1   107.9700462 569.024000
   7354   7355   7356     1   111.5100476 526.347200
   7354   7355   7374     1   111.0400475 552.288000
   7354   7352   7372     1   110.1900474 564.840000
   7355   7356   7360     1   110.1900474 564.840000
   7355   7356   7369     1   107.9700462 569.024000
   7355   7354   7361     1   110.1900474 564.840000
   7356   7355   7374     1   111.0400475 552.288000
   7360   7356   7369     1   109.3800466 607.516800
   7362   7351   7369     1   107.9700462 569.024000
   7375   7377   7379     1   111.6100477 551.451200
   7377   7379   7383     1   111.0400475 552.288000
   7379   7383   7384     1   112.3500484 533.878400
   7379   7383   7385     1   112.3500484 533.878400
   7383   7384   7395     1   111.0400475 552.288000
   7383   7385   7387     1   111.0400475 552.288000
   7384   7383   7385     1   112.3500484 533.878400
   7384   7395   7398     1   111.0400475 529.694400
   7385   7387   7391     1   111.0400475 529.694400
   7387   7391   7392     1   123.2000528 564.003200
   7387   7391   7423     1   112.2600482 538.062400
   7391   7423   7404     1   118.5150508 540.957728
   7392   7391   7423     1   118.8300510 581.576000
   7395   7398   7399     1   123.2000528 564.003200
   7395   7398   7447     1   112.2600482 538.062400
   7398   7447   7428     1   118.5150508 540.957728
   7399   7398   7447     1   118.8300510 581.576000
   7400   7401   7403     1   111.5100476 526.347200
   7400   7401   7421     1   110.1900474 564.840000
   7400   7411   7416     1   110.1900474 564.840000
   7400   7418   7405     1   112.4800480 524.673600
   7401   7400   7411     1   111.5100476 526.347200
   7401   7400   7418     1   107.9700462 569.024000
   7401   7403   7404     1   111.5100476 526.347200
   7401   7403   7410     1   110.1900474 564.840000
   7403   7401   7421     1   110.1900474 564.840000
   7403   7404   7405     1   111.5100476 526.347200
   7403   7404   7423     1   111.0400475 552.288000
   7404   7403   7410     1   110.1900474 564.840000
   7404   7405   7409     1   110.1900474 564.840000
   7404   7405   7418     1   107.9700462 569.024000
   7405   7404   7423     1   111.0400475 552.288000
   7409   7405   7418     1   109.3800466 607.516800
   7411   7400   7418     1   107.9700462 569.024000
   7424   7425   7427     1   111.5100476 526.347200
   7424   7425   7445     1   110.1900474 564.840000
   7424   7435   7440     1   110.1900474 564.840000
   7424   7442   7429     1   112.4800480 524.673600
   7425   7424   7435     1   111.5100476 526.347200
   7425   7424   7442     1   107.9700462 569.024000
   7425   7427   7428     1   111.5100476 526.347200
   7425   7427   7434     1   110.1900474 564.840000
   7427   7425   7445     1   110.1900474 564.840000
   7427   7428   7429     1   111.5100476 526.347200
   7427   7428   7447     1   111.0400475 552.288000
   7428   7427   7434     1   110.1900474 564.840000
   7428   7429   7433     1   110.1900474 564.840000
   7428   7429   7442     1   107.9700462 569.024000
   7429   7428   7447     1   111.0400475 552.288000
   7433   7429   7442     1   109.3800466 607.516800
   7435   7424   7442     1   107.9700462 569.024000
   7448   7450   7452     1   111.6100477 551.451200
   7450   7452   7456     1   111.0400475 552.288000
   7452   7456   7457     1   112.3500484 533.878400
   7452   7456   7458     1   112.3500484 533.878400
   7456   7457   7468     1   111.0400475 552.288000
   7456   7458   7460     1   111.0400475 552.288000
   7457   7468   7471     1   111.0400475 529.694400
   7457   7456   7458     1   112.3500484 533.878400
   7458   7460   7464     1   111.0400475 529.694400
   7460   7464   7465     1   123.2000528 564.003200
   7460   7464   7496     1   112.2600482 538.062400
   7464   7496   7477     1   118.5150508 540.957728
   7465   7464   7496     1   118.8300510 581.576000
   7468   7471   7472     1   123.2000528 564.003200
   7468   7471   7520     1   112.2600482 538.062400
   7471   7520   7501     1   118.5150508 540.957728
   7472   7471   7520     1   118.8300510 581.576000
   7473   7474   7476     1   111.5100476 526.347200
   7473   7474   7494     1   110.1900474 564.840000
   7473   7484   7489     1   110.1900474 564.840000
   7473   7491   7478     1   112.4800480 524.673600
   7474   7476   7477     1   111.5100476 526.347200
   7474   7476   7483     1   110.1900474 564.840000
   7474   7473   7484     1   111.5100476 526.347200
   7474   7473   7491     1   107.9700462 569.024000
   7476   7477   7478     1   111.5100476 526.347200
   7476   7477   7496     1   111.0400475 552.288000
   7476   7474   7494     1   110.1900474 564.840000
   7477   7478   7482     1   110.1900474 564.840000
   7477   7478   7491     1   107.9700462 569.024000
   7477   7476   7483     1   110.1900474 564.840000
   7478   7477   7496     1   111.0400475 552.288000
   7482   7478   7491     1   109.3800466 607.516800
   7484   7473   7491     1   107.9700462 569.024000
   7497   7498   7500     1   111.5100476 526.347200
   7497   7498   7518     1   110.1900474 564.840000
   7497   7508   7513     1   110.1900474 564.840000
   7497   7515   7502     1   112.4800480 524.673600
   7498   7500   7501     1   111.5100476 526.347200
   7498   7500   7507     1   110.1900474 564.840000
   7498   7497   7508     1   111.5100476 526.347200
   7498   7497   7515     1   107.9700462 569.024000
   7500   7501   7502     1   111.5100476 526.347200
   7500   7501   7520     1   111.0400475 552.288000
   7500   7498   7518     1   110.1900474 564.840000
   7501   7502   7506     1   110.1900474 564.840000
   7501   7502   7515     1   107.9700462 569.024000
   7501   7500   7507     1   110.1900474 564.840000
   7502   7501   7520     1   111.0400475 552.288000
   7506   7502   7515     1   109.3800466 607.516800
   7508   7497   7515     1   107.9700462 569.024000
   7521   7523   7525     1   111.6100477 551.451200
   7523   7525   7529     1   111.0400475 552.288000
   7525   7529   7530     1   112.3500484 533.878400
   7525   7529   7531     1   112.3500484 533.878400
   7529   7530   7541     1   111.0400475 552.288000
   7529   7531   7533     1   111.0400475 552.288000
   7530   7529   7531     1   112.3500484 533.878400
   7530   7541   7544     1   111.0400475 529.694400
   7531   7533   7537     1   111.0400475 529.694400
   7533   7537   7538     1   123.2000528 564.003200
   7533   7537   7569     1   112.2600482 538.062400
   7537   7569   7550     1   118.5150508 540.957728
   7538   7537   7569     1   118.8300510 581.576000
   7541   7544   7545     1   123.2000528 564.003200
   7541   7544   7593     1   112.2600482 538.062400
   7544   7593   7574     1   118.5150508 540.957728
   7545   7544   7593     1   118.8300510 581.576000
   7546   7547   7549     1   111.5100476 526.347200
   7546   7547   7567     1   110.1900474 564.840000
   7546   7557   7562     1   110.1900474 564.840000
   7546   7564   7551     1   112.4800480 524.673600
   7547   7546   7557     1   111.5100476 526.347200
   7547   7546   7564     1   107.9700462 569.024000
   7547   7549   7550     1   111.5100476 526.347200
   7547   7549   7556     1   110.1900474 564.840000
   7549   7547   7567     1   110.1900474 564.840000
   7549   7550   7551     1   111.5100476 526.347200
   7549   7550   7569     1   111.0400475 552.288000
   7550   7549   7556     1   110.1900474 564.840000
   7550   7551   7555     1   110.1900474 564.840000
   7550   7551   7564     1   107.9700462 569.024000
   7551   7550   7569     1   111.0400475 552.288000
   7555   7551   7564     1   109.3800466 607.516800
   7557   7546   7564     1   107.9700462 569.024000
   7570   7571   7573     1   111.5100476 526.347200
   7570   7571   7591     1   110.1900474 564.840000
   7570   7581   7586     1   110.1900474 564.840000
   7570   7588   7575     1   112.4800480 524.673600
   7571   7570   7581     1   111.5100476 526.347200
   7571   7570   7588     1   107.9700462 569.024000
   7571   7573   7574     1   111.5100476 526.347200
   7571   7573   7580     1   110.1900474 564.840000
   7573   7571   7591     1   110.1900474 564.840000
   7573   7574   7575     1   111.5100476 526.347200
   7573   7574   7593     1   111.0400475 552.288000
   7574   7573   7580     1   110.1900474 564.840000
   7574   7575   7579     1   110.1900474 564.840000
   7574   7575   7588     1   107.9700462 569.024000
   7575   7574   7593     1   111.0400475 552.288000
   7579   7575   7588     1   109.3800466 607.516800
   7581   7570   7588     1   107.9700462 569.024000
   7594   7596   7598     1   111.6100477 551.451200
   7596   7598   7602     1   111.0400475 552.288000
   7598   7602   7603     1   112.3500484 533.878400
   7598   7602   7604     1   112.3500484 533.878400
   7602   7603   7614     1   111.0400475 552.288000
   7602   7604   7606     1   111.0400475 552.288000
   7603   7614   7617     1   111.0400475 529.694400
   7603   7602   7604     1   112.3500484 533.878400
   7604   7606   7610     1   111.0400475 529.694400
   7606   7610   7611     1   123.2000528 564.003200
   7606   7610   7642     1   112.2600482 538.062400
   7610   7642   7623     1   118.5150508 540.957728
   7611   7610   7642     1   118.8300510 581.576000
   7614   7617   7618     1   123.2000528 564.003200
   7614   7617   7666     1   112.2600482 538.062400
   7617   7666   7647     1   118.5150508 540.957728
   7618   7617   7666     1   118.8300510 581.576000
   7619   7620   7622     1   111.5100476 526.347200
   7619   7620   7640     1   110.1900474 564.840000
   7619   7630   7635     1   110.1900474 564.840000
   7619   7637   7624     1   112.4800480 524.673600
   7620   7622   7623     1   111.5100476 526.347200
   7620   7622   7629     1   110.1900474 564.840000
   7620   7619   7630     1   111.5100476 526.347200
   7620   7619   7637     1   107.9700462 569.024000
   7622   7623   7624     1   111.5100476 526.347200
   7622   7623   7642     1   111.0400475 552.288000
   7622   7620   7640     1   110.1900474 564.840000
   7623   7624   7628     1   110.1900474 564.840000
   7623   7624   7637     1   107.9700462 569.024000
   7623   7622   7629     1   110.1900474 564.840000
   7624   7623   7642     1   111.0400475 552.288000
   7628   7624   7637     1   109.3800466 607.516800
   7630   7619   7637     1   107.9700462 569.024000
   7643   7644   7646     1   111.5100476 526.347200
   7643   7644   7664     1   110.1900474 564.840000
   7643   7654   7659     1   110.1900474 564.840000
   7643   7661   7648     1   112.4800480 524.673600
   7644   7646   7647     1   111.5100476 526.347200
   7644   7646   7653     1   110.1900474 564.840000
   7644   7643   7654     1   111.5100476 526.347200
   7644   7643   7661     1   107.9700462 569.024000
   7646   7647   7648     1   111.5100476 526.347200
   7646   7647   7666     1   111.0400475 552.288000
   7646   7644   7664     1   110.1900474 564.840000
   7647   7648   7652     1   110.1900474 564.840000
   7647   7648   7661     1   107.9700462 569.024000
   7647   7646   7653     1   110.1900474 564.840000
   7648   7647   7666     1   111.0400475 552.288000
   7652   7648   7661     1   109.3800466 607.516800
   7654   7643   7661     1   107.9700462 569.024000
   7667   7669   7671     1   111.6100477 551.451200
   7669   7671   7675     1   111.0400475 552.288000
   7671   7675   7676     1   112.3500484 533.878400
   7671   7675   7677     1   112.3500484 533.878400
   7675   7676   7687     1   111.0400475 552.288000
   7675   7677   7679     1   111.0400475 552.288000
   7676   7675   7677     1   112.3500484 533.878400
   7676   7687   7690     1   111.0400475 529.694400
   7677   7679   7683     1   111.0400475 529.694400
   7679   7683   7684     1   123.2000528 564.003200
   7679   7683   7715     1   112.2600482 538.062400
   7683   7715   7696     1   118.5150508 540.957728
   7684   7683   7715     1   118.8300510 581.576000
   7687   7690   7691     1   123.2000528 564.003200
   7687   7690   7739     1   112.2600482 538.062400
   7690   7739   7720     1   118.5150508 540.957728
   7691   7690   7739     1   118.8300510 581.576000
   7692   7693   7695     1   111.5100476 526.347200
   7692   7693   7713     1   110.1900474 564.840000
   7692   7703   7708     1   110.1900474 564.840000
   7692   7710   7697     1   112.4800480 524.673600
   7693   7692   7703     1   111.5100476 526.347200
   7693   7692   7710     1   107.9700462 569.024000
   7693   7695   7696     1   111.5100476 526.347200
   7693   7695   7702     1   110.1900474 564.840000
   7695   7693   7713     1   110.1900474 564.840000
   7695   7696   7697     1   111.5100476 526.347200
   7695   7696   7715     1   111.0400475 552.288000
   7696   7695   7702     1   110.1900474 564.840000
   7696   7697   7701     1   110.1900474 564.840000
   7696   7697   7710     1   107.9700462 569.024000
   7697   7696   7715     1   111.0400475 552.288000
   7701   7697   7710     1   109.3800466 607.516800
   7703   7692   7710     1   107.9700462 569.024000
   7716   7717   7719     1   111.5100476 526.347200
   7716   7717   7737     1   110.1900474 564.840000
   7716   7727   7732     1   110.1900474 564.840000
   7716   7734   7721     1   112.4800480 524.673600
   7717   7716   7727     1   111.5100476 526.347200
   7717   7716   7734     1   107.9700462 569.024000
   7717   7719   7720     1   111.5100476 526.347200
   7717   7719   7726     1   110.1900474 564.840000
   7719   7717   7737     1   110.1900474 564.840000
   7719   7720   7721     1   111.5100476 526.347200
   7719   7720   7739     1   111.0400475 552.288000
   7720   7719   7726     1   110.1900474 564.840000
   7720   7721   7725     1   110.1900474 564.840000
   7720   7721   7734     1   107.9700462 569.024000
   7721   7720   7739     1   111.0400475 552.288000
   7725   7721   7734     1   109.3800466 607.516800
   7727   7716   7734     1   107.9700462 569.024000
   7740   7742   7744     1   111.6100477 551.451200
   7742   7744   7748     1   111.0400475 552.288000
   7744   7748   7749     1   112.3500484 533.878400
   7744   7748   7750     1   112.3500484 533.878400
   7748   7749   7760     1   111.0400475 552.288000
   7748   7750   7752     1   111.0400475 552.288000
   7749   7760   7763     1   111.0400475 529.694400
   7749   7748   7750     1   112.3500484 533.878400
   7750   7752   7756     1   111.0400475 529.694400
   7752   7756   7757     1   123.2000528 564.003200
   7752   7756   7788     1   112.2600482 538.062400
   7756   7788   7769     1   118.5150508 540.957728
   7757   7756   7788     1   118.8300510 581.576000
   7760   7763   7764     1   123.2000528 564.003200
   7760   7763   7812     1   112.2600482 538.062400
   7763   7812   7793     1   118.5150508 540.957728
   7764   7763   7812     1   118.8300510 581.576000
   7765   7766   7768     1   111.5100476 526.347200
   7765   7766   7786     1   110.1900474 564.840000
   7765   7776   7781     1   110.1900474 564.840000
   7765   7783   7770     1   112.4800480 524.673600
   7766   7768   7769     1   111.5100476 526.347200
   7766   7768   7775     1   110.1900474 564.840000
   7766   7765   7776     1   111.5100476 526.347200
   7766   7765   7783     1   107.9700462 569.024000
   7768   7769   7770     1   111.5100476 526.347200
   7768   7769   7788     1   111.0400475 552.288000
   7768   7766   7786     1   110.1900474 564.840000
   7769   7770   7774     1   110.1900474 564.840000
   7769   7770   7783     1   107.9700462 569.024000
   7769   7768   7775     1   110.1900474 564.840000
   7770   7769   7788     1   111.0400475 552.288000
   7774   7770   7783     1   109.3800466 607.516800
   7776   7765   7783     1   107.9700462 569.024000
   7789   7790   7792     1   111.5100476 526.347200
   7789   7790   7810     1   110.1900474 564.840000
   7789   7800   7805     1   110.1900474 564.840000
   7789   7807   7794     1   112.4800480 524.673600
   7790   7792   7793     1   111.5100476 526.347200
   7790   7792   7799     1   110.1900474 564.840000
   7790   7789   7800     1   111.5100476 526.347200
   7790   7789   7807     1   107.9700462 569.024000
   7792   7793   7794     1   111.5100476 526.347200
   7792   7793   7812     1   111.0400475 552.288000
   7792   7790   7810     1   110.1900474 564.840000
   7793   7794   7798     1   110.1900474 564.840000
   7793   7794   7807     1   107.9700462 569.024000
   7793   7792   7799     1   110.1900474 564.840000
   7794   7793   7812     1   111.0400475 552.288000
   7798   7794   7807     1   109.3800466 607.516800
   7800   7789   7807     1   107.9700462 569.024000
   7813   7815   7817     1   111.6100477 551.451200
   7815   7817   7821     1   111.0400475 552.288000
   7817   7821   7822     1   112.3500484 533.878400
   7817   7821   7823     1   112.3500484 533.878400
   7821   7822   7833     1   111.0400475 552.288000
   7821   7823   7825     1   111.0400475 552.288000
   7822   7821   7823     1   112.3500484 533.878400
   7822   7833   7836     1   111.0400475 529.694400
   7823   7825   7829     1   111.0400475 529.694400
   7825   7829   7830     1   123.2000528 564.003200
   7825   7829   7861     1   112.2600482 538.062400
   7829   7861   7842     1   118.5150508 540.957728
   7830   7829   7861     1   118.8300510 581.576000
   7833   7836   7837     1   123.2000528 564.003200
   7833   7836   7885     1   112.2600482 538.062400
   7836   7885   7866     1   118.5150508 540.957728
   7837   7836   7885     1   118.8300510 581.576000
   7838   7839   7841     1   111.5100476 526.347200
   7838   7839   7859     1   110.1900474 564.840000
   7838   7849   7854     1   110.1900474 564.840000
   7838   7856   7843     1   112.4800480 524.673600
   7839   7838   7849     1   111.5100476 526.347200
   7839   7838   7856     1   107.9700462 569.024000
   7839   7841   7842     1   111.5100476 526.347200
   7839   7841   7848     1   110.1900474 564.840000
   7841   7839   7859     1   110.1900474 564.840000
   7841   7842   7843     1   111.5100476 526.347200
   7841   7842   7861     1   111.0400475 552.288000
   7842   7841   7848     1   110.1900474 564.840000
   7842   7843   7847     1   110.1900474 564.840000
   7842   7843   7856     1   107.9700462 569.024000
   7843   7842   7861     1   111.0400475 552.288000
   7847   7843   7856     1   109.3800466 607.516800
   7849   7838   7856     1   107.9700462 569.024000
   7862   7863   7865     1   111.5100476 526.347200
   7862   7863   7883     1   110.1900474 564.840000
   7862   7873   7878     1   110.1900474 564.840000
   7862   7880   7867     1   112.4800480 524.673600
   7863   7862   7873     1   111.5100476 526.347200
   7863   7862   7880     1   107.9700462 569.024000
   7863   7865   7866     1   111.5100476 526.347200
   7863   7865   7872     1   110.1900474 564.840000
   7865   7863   7883     1   110.1900474 564.840000
   7865   7866   7867     1   111.5100476 526.347200
   7865   7866   7885     1   111.0400475 552.288000
   7866   7865   7872     1   110.1900474 564.840000
   7866   7867   7871     1   110.1900474 564.840000
   7866   7867   7880     1   107.9700462 569.024000
   7867   7866   7885     1   111.0400475 552.288000
   7871   7867   7880     1   109.3800466 607.516800
   7873   7862   7880     1   107.9700462 569.024000
   7886   7888   7890     1   111.6100477 551.451200
   7888   7890   7894     1   111.0400475 552.288000
   7890   7894   7895     1   112.3500484 533.878400
   7890   7894   7896     1   112.3500484 533.878400
   7894   7895   7906     1   111.0400475 552.288000
   7894   7896   7898     1   111.0400475 552.288000
   7895   7906   7909     1   111.0400475 529.694400
   7895   7894   7896     1   112.3500484 533.878400
   7896   7898   7902     1   111.0400475 529.694400
   7898   7902   7903     1   123.2000528 564.003200
   7898   7902   7934     1   112.2600482 538.062400
   7902   7934   7915     1   118.5150508 540.957728
   7903   7902   7934     1   118.8300510 581.576000
   7906   7909   7910     1   123.2000528 564.003200
   7906   7909   7958     1   112.2600482 538.062400
   7909   7958   7939     1   118.5150508 540.957728
   7910   7909   7958     1   118.8300510 581.576000
   7911   7912   7914     1   111.5100476 526.347200
   7911   7912   7932     1   110.1900474 564.840000
   7911   7922   7927     1   110.1900474 564.840000
   7911   7929   7916     1   112.4800480 524.673600
   7912   7914   7915     1   111.5100476 526.347200
   7912   7914   7921     1   110.1900474 564.840000
   7912   7911   7922     1   111.5100476 526.347200
   7912   7911   7929     1   107.9700462 569.024000
   7914   7915   7916     1   111.5100476 526.347200
   7914   7915   7934     1   111.0400475 552.288000
   7914   7912   7932     1   110.1900474 564.840000
   7915   7916   7920     1   110.1900474 564.840000
   7915   7916   7929     1   107.9700462 569.024000
   7915   7914   7921     1   110.1900474 564.840000
   7916   7915   7934     1   111.0400475 552.288000
   7920   7916   7929     1   109.3800466 607.516800
   7922   7911   7929     1   107.9700462 569.024000
   7935   7936   7938     1   111.5100476 526.347200
   7935   7936   7956     1   110.1900474 564.840000
   7935   7946   7951     1   110.1900474 564.840000
   7935   7953   7940     1   112.4800480 524.673600
   7936   7938   7939     1   111.5100476 526.347200
   7936   7938   7945     1   110.1900474 564.840000
   7936   7935   7946     1   111.5100476 526.347200
   7936   7935   7953     1   107.9700462 569.024000
   7938   7939   7940     1   111.5100476 526.347200
   7938   7939   7958     1   111.0400475 552.288000
   7938   7936   7956     1   110.1900474 564.840000
   7939   7940   7944     1   110.1900474 564.840000
   7939   7940   7953     1   107.9700462 569.024000
   7939   7938   7945     1   110.1900474 564.840000
   7940   7939   7958     1   111.0400475 552.288000
   7944   7940   7953     1   109.3800466 607.516800
   7946   7935   7953     1   107.9700462 569.024000
   7959   7961   7963     1   111.6100477 551.451200
   7961   7963   7967     1   111.0400475 552.288000
   7963   7967   7968     1   112.3500484 533.878400
   7963   7967   7969     1   112.3500484 533.878400
   7967   7968   7979     1   111.0400475 552.288000
   7967   7969   7971     1   111.0400475 552.288000
   7968   7967   7969     1   112.3500484 533.878400
   7968   7979   7982     1   111.0400475 529.694400
   7969   7971   7975     1   111.0400475 529.694400
   7971   7975   7976     1   123.2000528 564.003200
   7971   7975   8007     1   112.2600482 538.062400
   7975   8007   7988     1   118.5150508 540.957728
   7976   7975   8007     1   118.8300510 581.576000
   7979   7982   7983     1   123.2000528 564.003200
   7979   7982   8031     1   112.2600482 538.062400
   7982   8031   8012     1   118.5150508 540.957728
   7983   7982   8031     1   118.8300510 581.576000
   7984   7985   7987     1   111.5100476 526.347200
   7984   7985   8005     1   110.1900474 564.840000
   7984   7995   8000     1   110.1900474 564.840000
   7984   8002   7989     1   112.4800480 524.673600
   7985   7984   7995     1   111.5100476 526.347200
   7985   7984   8002     1   107.9700462 569.024000
   7985   7987   7988     1   111.5100476 526.347200
   7985   7987   7994     1   110.1900474 564.840000
   7987   7985   8005     1   110.1900474 564.840000
   7987   7988   7989     1   111.5100476 526.347200
   7987   7988   8007     1   111.0400475 552.288000
   7988   7987   7994     1   110.1900474 564.840000
   7988   7989   7993     1   110.1900474 564.840000
   7988   7989   8002     1   107.9700462 569.024000
   7989   7988   8007     1   111.0400475 552.288000
   7993   7989   8002     1   109.3800466 607.516800
   7995   7984   8002     1   107.9700462 569.024000
   8008   8009   8011     1   111.5100476 526.347200
   8008   8009   8029     1   110.1900474 564.840000
   8008   8019   8024     1   110.1900474 564.840000
   8008   8026   8013     1   112.4800480 524.673600
   8009   8008   8019     1   111.5100476 526.347200
   8009   8008   8026     1   107.9700462 569.024000
   8009   8011   8012     1   111.5100476 526.347200
   8009   8011   8018     1   110.1900474 564.840000
   8011   8009   8029     1   110.1900474 564.840000
   8011   8012   8013     1   111.5100476 526.347200
   8011   8012   8031     1   111.0400475 552.288000
   8012   8011   8018     1   110.1900474 564.840000
   8012   8013   8017     1   110.1900474 564.840000
   8012   8013   8026     1   107.9700462 569.024000
   8013   8012   8031     1   111.0400475 552.288000
   8017   8013   8026     1   109.3800466 607.516800
   8019   8008   8026     1   107.9700462 569.024000
   8032   8034   8036     1   111.6100477 551.451200
   8034   8036   8040     1   111.0400475 552.288000
   8036   8040   8041     1   112.3500484 533.878400
   8036   8040   8042     1   112.3500484 533.878400
   8040   8041   8052     1   111.0400475 552.288000
   8040   8042   8044     1   111.0400475 552.288000
   8041   8052   8055     1   111.0400475 529.694400
   8041   8040   8042     1   112.3500484 533.878400
   8042   8044   8048     1   111.0400475 529.694400
   8044   8048   8049     1   123.2000528 564.003200
   8044   8048   8080     1   112.2600482 538.062400
   8048   8080   8061     1   118.5150508 540.957728
   8049   8048   8080     1   118.8300510 581.576000
   8052   8055   8056     1   123.2000528 564.003200
   8052   8055   8104     1   112.2600482 538.062400
   8055   8104   8085     1   118.5150508 540.957728
   8056   8055   8104     1   118.8300510 581.576000
   8057   8058   8060     1   111.5100476 526.347200
   8057   8058   8078     1   110.1900474 564.840000
   8057   8068   8073     1   110.1900474 564.840000
   8057   8075   8062     1   112.4800480 524.673600
   8058   8060   8061     1   111.5100476 526.347200
   8058   8060   8067     1   110.1900474 564.840000
   8058   8057   8068     1   111.5100476 526.347200
   8058   8057   8075     1   107.9700462 569.024000
   8060   8061   8062     1   111.5100476 526.347200
   8060   8061   8080     1   111.0400475 552.288000
   8060   8058   8078     1   110.1900474 564.840000
   8061   8062   8066     1   110.1900474 564.840000
   8061   8062   8075     1   107.9700462 569.024000
   8061   8060   8067     1   110.1900474 564.840000
   8062   8061   8080     1   111.0400475 552.288000
   8066   8062   8075     1   109.3800466 607.516800
   8068   8057   8075     1   107.9700462 569.024000
   8081   8082   8084     1   111.5100476 526.347200
   8081   8082   8102     1   110.1900474 564.840000
   8081   8092   8097     1   110.1900474 564.840000
   8081   8099   8086     1   112.4800480 524.673600
   8082   8084   8085     1   111.5100476 526.347200
   8082   8084   8091     1   110.1900474 564.840000
   8082   8081   8092     1   111.5100476 526.347200
   8082   8081   8099     1   107.9700462 569.024000
   8084   8085   8086     1   111.5100476 526.347200
   8084   8085   8104     1   111.0400475 552.288000
   8084   8082   8102     1   110.1900474 564.840000
   8085   8086   8090     1   110.1900474 564.840000
   8085   8086   8099     1   107.9700462 569.024000
   8085   8084   8091     1   110.1900474 564.840000
   8086   8085   8104     1   111.0400475 552.288000
   8090   8086   8099     1   109.3800466 607.516800
   8092   8081   8099     1   107.9700462 569.024000
   8105   8107   8109     1   111.6100477 551.451200
   8107   8109   8113     1   111.0400475 552.288000
   8109   8113   8114     1   112.3500484 533.878400
   8109   8113   8115     1   112.3500484 533.878400
   8113   8114   8125     1   111.0400475 552.288000
   8113   8115   8117     1   111.0400475 552.288000
   8114   8113   8115     1   112.3500484 533.878400
   8114   8125   8128     1   111.0400475 529.694400
   8115   8117   8121     1   111.0400475 529.694400
   8117   8121   8122     1   123.2000528 564.003200
   8117   8121   8153     1   112.2600482 538.062400
   8121   8153   8134     1   118.5150508 540.957728
   8122   8121   8153     1   118.8300510 581.576000
   8125   8128   8129     1   123.2000528 564.003200
   8125   8128   8177     1   112.2600482 538.062400
   8128   8177   8158     1   118.5150508 540.957728
   8129   8128   8177     1   118.8300510 581.576000
   8130   8131   8133     1   111.5100476 526.347200
   8130   8131   8151     1   110.1900474 564.840000
   8130   8141   8146     1   110.1900474 564.840000
   8130   8148   8135     1   112.4800480 524.673600
   8131   8130   8141     1   111.5100476 526.347200
   8131   8130   8148     1   107.9700462 569.024000
   8131   8133   8134     1   111.5100476 526.347200
   8131   8133   8140     1   110.1900474 564.840000
   8133   8131   8151     1   110.1900474 564.840000
   8133   8134   8135     1   111.5100476 526.347200
   8133   8134   8153     1   111.0400475 552.288000
   8134   8133   8140     1   110.1900474 564.840000
   8134   8135   8139     1   110.1900474 564.840000
   8134   8135   8148     1   107.9700462 569.024000
   8135   8134   8153     1   111.0400475 552.288000
   8139   8135   8148     1   109.3800466 607.516800
   8141   8130   8148     1   107.9700462 569.024000
   8154   8155   8157     1   111.5100476 526.347200
   8154   8155   8175     1   110.1900474 564.840000
   8154   8165   8170     1   110.1900474 564.840000
   8154   8172   8159     1   112.4800480 524.673600
   8155   8154   8165     1   111.5100476 526.347200
   8155   8154   8172     1   107.9700462 569.024000
   8155   8157   8158     1   111.5100476 526.347200
   8155   8157   8164     1   110.1900474 564.840000
   8157   8155   8175     1   110.1900474 564.840000
   8157   8158   8159     1   111.5100476 526.347200
   8157   8158   8177     1   111.0400475 552.288000
   8158   8157   8164     1   110.1900474 564.840000
   8158   8159   8163     1   110.1900474 564.840000
   8158   8159   8172     1   107.9700462 569.024000
   8159   8158   8177     1   111.0400475 552.288000
   8163   8159   8172     1   109.3800466 607.516800
   8165   8154   8172     1   107.9700462 569.024000
   8178   8180   8182     1   111.6100477 551.451200
   8180   8182   8186     1   111.0400475 552.288000
   8182   8186   8187     1   112.3500484 533.878400
   8182   8186   8188     1   112.3500484 533.878400
   8186   8187   8198     1   111.0400475 552.288000
   8186   8188   8190     1   111.0400475 552.288000
   8187   8198   8201     1   111.0400475 529.694400
   8187   8186   8188     1   112.3500484 533.878400
   8188   8190   8194     1   111.0400475 529.694400
   8190   8194   8195     1   123.2000528 564.003200
   8190   8194   8226     1   112.2600482 538.062400
   8194   8226   8207     1   118.5150508 540.957728
   8195   8194   8226     1   118.8300510 581.576000
   8198   8201   8202     1   123.2000528 564.003200
   8198   8201   8250     1   112.2600482 538.062400
   8201   8250   8231     1   118.5150508 540.957728
   8202   8201   8250     1   118.8300510 581.576000
   8203   8204   8206     1   111.5100476 526.347200
   8203   8204   8224     1   110.1900474 564.840000
   8203   8214   8219     1   110.1900474 564.840000
   8203   8221   8208     1   112.4800480 524.673600
   8204   8206   8207     1   111.5100476 526.347200
   8204   8206   8213     1   110.1900474 564.840000
   8204   8203   8214     1   111.5100476 526.347200
   8204   8203   8221     1   107.9700462 569.024000
   8206   8207   8208     1   111.5100476 526.347200
   8206   8207   8226     1   111.0400475 552.288000
   8206   8204   8224     1   110.1900474 564.840000
   8207   8208   8212     1   110.1900474 564.840000
   8207   8208   8221     1   107.9700462 569.024000
   8207   8206   8213     1   110.1900474 564.840000
   8208   8207   8226     1   111.0400475 552.288000
   8212   8208   8221     1   109.3800466 607.516800
   8214   8203   8221     1   107.9700462 569.024000
   8227   8228   8230     1   111.5100476 526.347200
   8227   8228   8248     1   110.1900474 564.840000
   8227   8238   8243     1   110.1900474 564.840000
   8227   8245   8232     1   112.4800480 524.673600
   8228   8230   8231     1   111.5100476 526.347200
   8228   8230   8237     1   110.1900474 564.840000
   8228   8227   8238     1   111.5100476 526.347200
   8228   8227   8245     1   107.9700462 569.024000
   8230   8231   8232     1   111.5100476 526.347200
   8230   8231   8250     1   111.0400475 552.288000
   8230   8228   8248     1   110.1900474 564.840000
   8231   8232   8236     1   110.1900474 564.840000
   8231   8232   8245     1   107.9700462 569.024000
   8231   8230   8237     1   110.1900474 564.840000
   8232   8231   8250     1   111.0400475 552.288000
   8236   8232   8245     1   109.3800466 607.516800
   8238   8227   8245     1   107.9700462 569.024000
   8251   8253   8255     1   111.6100477 551.451200
   8253   8255   8259     1   111.0400475 552.288000
   8255   8259   8260     1   112.3500484 533.878400
   8255   8259   8261     1   112.3500484 533.878400
   8259   8260   8271     1   111.0400475 552.288000
   8259   8261   8263     1   111.0400475 552.288000
   8260   8259   8261     1   112.3500484 533.878400
   8260   8271   8274     1   111.0400475 529.694400
   8261   8263   8267     1   111.0400475 529.694400
   8263   8267   8268     1   123.2000528 564.003200
   8263   8267   8299     1   112.2600482 538.062400
   8267   8299   8280     1   118.5150508 540.957728
   8268   8267   8299     1   118.8300510 581.576000
   8271   8274   8275     1   123.2000528 564.003200
   8271   8274   8323     1   112.2600482 538.062400
   8274   8323   8304     1   118.5150508 540.957728
   8275   8274   8323     1   118.8300510 581.576000
   8276   8277   8279     1   111.5100476 526.347200
   8276   8277   8297     1   110.1900474 564.840000
   8276   8287   8292     1   110.1900474 564.840000
   8276   8294   8281     1   112.4800480 524.673600
   8277   8276   8287     1   111.5100476 526.347200
   8277   8276   8294     1   107.9700462 569.024000
   8277   8279   8280     1   111.5100476 526.347200
   8277   8279   8286     1   110.1900474 564.840000
   8279   8277   8297     1   110.1900474 564.840000
   8279   8280   8281     1   111.5100476 526.347200
   8279   8280   8299     1   111.0400475 552.288000
   8280   8279   8286     1   110.1900474 564.840000
   8280   8281   8285     1   110.1900474 564.840000
   8280   8281   8294     1   107.9700462 569.024000
   8281   8280   8299     1   111.0400475 552.288000
   8285   8281   8294     1   109.3800466 607.516800
   8287   8276   8294     1   107.9700462 569.024000
   8300   8301   8303     1   111.5100476 526.347200
   8300   8301   8321     1   110.1900474 564.840000
   8300   8311   8316     1   110.1900474 564.840000
   8300   8318   8305     1   112.4800480 524.673600
   8301   8300   8311     1   111.5100476 526.347200
   8301   8300   8318     1   107.9700462 569.024000
   8301   8303   8304     1   111.5100476 526.347200
   8301   8303   8310     1   110.1900474 564.840000
   8303   8301   8321     1   110.1900474 564.840000
   8303   8304   8305     1   111.5100476 526.347200
   8303   8304   8323     1   111.0400475 552.288000
   8304   8303   8310     1   110.1900474 564.840000
   8304   8305   8309     1   110.1900474 564.840000
   8304   8305   8318     1   107.9700462 569.024000
   8305   8304   8323     1   111.0400475 552.288000
   8309   8305   8318     1   109.3800466 607.516800
   8311   8300   8318     1   107.9700462 569.024000
   8324   8326   8328     1   111.6100477 551.451200
   8326   8328   8332     1   111.0400475 552.288000
   8328   8332   8333     1   112.3500484 533.878400
   8328   8332   8334     1   112.3500484 533.878400
   8332   8333   8344     1   111.0400475 552.288000
   8332   8334   8336     1   111.0400475 552.288000
   8333   8344   8347     1   111.0400475 529.694400
   8333   8332   8334     1   112.3500484 533.878400
   8334   8336   8340     1   111.0400475 529.694400
   8336   8340   8341     1   123.2000528 564.003200
   8336   8340   8372     1   112.2600482 538.062400
   8340   8372   8353     1   118.5150508 540.957728
   8341   8340   8372     1   118.8300510 581.576000
   8344   8347   8348     1   123.2000528 564.003200
   8344   8347   8396     1   112.2600482 538.062400
   8347   8396   8377     1   118.5150508 540.957728
   8348   8347   8396     1   118.8300510 581.576000
   8349   8350   8352     1   111.5100476 526.347200
   8349   8350   8370     1   110.1900474 564.840000
   8349   8360   8365     1   110.1900474 564.840000
   8349   8367   8354     1   112.4800480 524.673600
   8350   8352   8353     1   111.5100476 526.347200
   8350   8352   8359     1   110.1900474 564.840000
   8350   8349   8360     1   111.5100476 526.347200
   8350   8349   8367     1   107.9700462 569.024000
   8352   8353   8354     1   111.5100476 526.347200
   8352   8353   8372     1   111.0400475 552.288000
   8352   8350   8370     1   110.1900474 564.840000
   8353   8354   8358     1   110.1900474 564.840000
   8353   8354   8367     1   107.9700462 569.024000
   8353   8352   8359     1   110.1900474 564.840000
   8354   8353   8372     1   111.0400475 552.288000
   8358   8354   8367     1   109.3800466 607.516800
   8360   8349   8367     1   107.9700462 569.024000
   8373   8374   8376     1   111.5100476 526.347200
   8373   8374   8394     1   110.1900474 564.840000
   8373   8384   8389     1   110.1900474 564.840000
   8373   8391   8378     1   112.4800480 524.673600
   8374   8376   8377     1   111.5100476 526.347200
   8374   8376   8383     1   110.1900474 564.840000
   8374   8373   8384     1   111.5100476 526.347200
   8374   8373   8391     1   107.9700462 569.024000
   8376   8377   8378     1   111.5100476 526.347200
   8376   8377   8396     1   111.0400475 552.288000
   8376   8374   8394     1   110.1900474 564.840000
   8377   8378   8382     1   110.1900474 564.840000
   8377   8378   8391     1   107.9700462 569.024000
   8377   8376   8383     1   110.1900474 564.840000
   8378   8377   8396     1   111.0400475 552.288000
   8382   8378   8391     1   109.3800466 607.516800
   8384   8373   8391     1   107.9700462 569.024000
   8397   8399   8401     1   111.6100477 551.451200
   8399   8401   8405     1   111.0400475 552.288000
   8401   8405   8406     1   112.3500484 533.878400
   8401   8405   8407     1   112.3500484 533.878400
   8405   8406   8417     1   111.0400475 552.288000
   8405   8407   8409     1   111.0400475 552.288000
   8406   8405   8407     1   112.3500484 533.878400
   8406   8417   8420     1   111.0400475 529.694400
   8407   8409   8413     1   111.0400475 529.694400
   8409   8413   8414     1   123.2000528 564.003200
   8409   8413   8445     1   112.2600482 538.062400
   8413   8445   8426     1   118.5150508 540.957728
   8414   8413   8445     1   118.8300510 581.576000
   8417   8420   8421     1   123.2000528 564.003200
   8417   8420   8469     1   112.2600482 538.062400
   8420   8469   8450     1   118.5150508 540.957728
   8421   8420   8469     1   118.8300510 581.576000
   8422   8423   8425     1   111.5100476 526.347200
   8422   8423   8443     1   110.1900474 564.840000
   8422   8433   8438     1   110.1900474 564.840000
   8422   8440   8427     1   112.4800480 524.673600
   8423   8422   8433     1   111.5100476 526.347200
   8423   8422   8440     1   107.9700462 569.024000
   8423   8425   8426     1   111.5100476 526.347200
   8423   8425   8432     1   110.1900474 564.840000
   8425   8423   8443     1   110.1900474 564.840000
   8425   8426   8427     1   111.5100476 526.347200
   8425   8426   8445     1   111.0400475 552.288000
   8426   8425   8432     1   110.1900474 564.840000
   8426   8427   8431     1   110.1900474 564.840000
   8426   8427   8440     1   107.9700462 569.024000
   8427   8426   8445     1   111.0400475 552.288000
   8431   8427   8440     1   109.3800466 607.516800
   8433   8422   8440     1   107.9700462 569.024000
   8446   8447   8449     1   111.5100476 526.347200
   8446   8447   8467     1   110.1900474 564.840000
   8446   8457   8462     1   110.1900474 564.840000
   8446   8464   8451     1   112.4800480 524.673600
   8447   8446   8457     1   111.5100476 526.347200
   8447   8446   8464     1   107.9700462 569.024000
   8447   8449   8450     1   111.5100476 526.347200
   8447   8449   8456     1   110.1900474 564.840000
   8449   8447   8467     1   110.1900474 564.840000
   8449   8450   8451     1   111.5100476 526.347200
   8449   8450   8469     1   111.0400475 552.288000
   8450   8449   8456     1   110.1900474 564.840000
   8450   8451   8455     1   110.1900474 564.840000
   8450   8451   8464     1   107.9700462 569.024000
   8451   8450   8469     1   111.0400475 552.288000
   8455   8451   8464     1   109.3800466 607.516800
   8457   8446   8464     1   107.9700462 569.024000
   8470   8472   8474     1   111.6100477 551.451200
   8472   8474   8478     1   111.0400475 552.288000
   8474   8478   8479     1   112.3500484 533.878400
   8474   8478   8480     1   112.3500484 533.878400
   8478   8479   8490     1   111.0400475 552.288000
   8478   8480   8482     1   111.0400475 552.288000
   8479   8490   8493     1   111.0400475 529.694400
   8479   8478   8480     1   112.3500484 533.878400
   8480   8482   8486     1   111.0400475 529.694400
   8482   8486   8487     1   123.2000528 564.003200
   8482   8486   8518     1   112.2600482 538.062400
   8486   8518   8499     1   118.5150508 540.957728
   8487   8486   8518     1   118.8300510 581.576000
   8490   8493   8494     1   123.2000528 564.003200
   8490   8493   8542     1   112.2600482 538.062400
   8493   8542   8523     1   118.5150508 540.957728
   8494   8493   8542     1   118.8300510 581.576000
   8495   8496   8498     1   111.5100476 526.347200
   8495   8496   8516     1   110.1900474 564.840000
   8495   8506   8511     1   110.1900474 564.840000
   8495   8513   8500     1   112.4800480 524.673600
   8496   8498   8499     1   111.5100476 526.347200
   8496   8498   8505     1   110.1900474 564.840000
   8496   8495   8506     1   111.5100476 526.347200
   8496   8495   8513     1   107.9700462 569.024000
   8498   8499   8500     1   111.5100476 526.347200
   8498   8499   8518     1   111.0400475 552.288000
   8498   8496   8516     1   110.1900474 564.840000
   8499   8500   8504     1   110.1900474 564.840000
   8499   8500   8513     1   107.9700462 569.024000
   8499   8498   8505     1   110.1900474 564.840000
   8500   8499   8518     1   111.0400475 552.288000
   8504   8500   8513     1   109.3800466 607.516800
   8506   8495   8513     1   107.9700462 569.024000
   8519   8520   8522     1   111.5100476 526.347200
   8519   8520   8540     1   110.1900474 564.840000
   8519   8530   8535     1   110.1900474 564.840000
   8519   8537   8524     1   112.4800480 524.673600
   8520   8522   8523     1   111.5100476 526.347200
   8520   8522   8529     1   110.1900474 564.840000
   8520   8519   8530     1   111.5100476 526.347200
   8520   8519   8537     1   107.9700462 569.024000
   8522   8523   8524     1   111.5100476 526.347200
   8522   8523   8542     1   111.0400475 552.288000
   8522   8520   8540     1   110.1900474 564.840000
   8523   8524   8528     1   110.1900474 564.840000
   8523   8524   8537     1   107.9700462 569.024000
   8523   8522   8529     1   110.1900474 564.840000
   8524   8523   8542     1   111.0400475 552.288000
   8528   8524   8537     1   109.3800466 607.516800
   8530   8519   8537     1   107.9700462 569.024000
   8543   8545   8547     1   111.6100477 551.451200
   8545   8547   8551     1   111.0400475 552.288000
   8547   8551   8552     1   112.3500484 533.878400
   8547   8551   8553     1   112.3500484 533.878400
   8551   8552   8563     1   111.0400475 552.288000
   8551   8553   8555     1   111.0400475 552.288000
   8552   8551   8553     1   112.3500484 533.878400
   8552   8563   8566     1   111.0400475 529.694400
   8553   8555   8559     1   111.0400475 529.694400
   8555   8559   8560     1   123.2000528 564.003200
   8555   8559   8591     1   112.2600482 538.062400
   8559   8591   8572     1   118.5150508 540.957728
   8560   8559   8591     1   118.8300510 581.576000
   8563   8566   8567     1   123.2000528 564.003200
   8563   8566   8615     1   112.2600482 538.062400
   8566   8615   8596     1   118.5150508 540.957728
   8567   8566   8615     1   118.8300510 581.576000
   8568   8569   8571     1   111.5100476 526.347200
   8568   8569   8589     1   110.1900474 564.840000
   8568   8579   8584     1   110.1900474 564.840000
   8568   8586   8573     1   112.4800480 524.673600
   8569   8568   8579     1   111.5100476 526.347200
   8569   8568   8586     1   107.9700462 569.024000
   8569   8571   8572     1   111.5100476 526.347200
   8569   8571   8578     1   110.1900474 564.840000
   8571   8569   8589     1   110.1900474 564.840000
   8571   8572   8573     1   111.5100476 526.347200
   8571   8572   8591     1   111.0400475 552.288000
   8572   8571   8578     1   110.1900474 564.840000
   8572   8573   8577     1   110.1900474 564.840000
   8572   8573   8586     1   107.9700462 569.024000
   8573   8572   8591     1   111.0400475 552.288000
   8577   8573   8586     1   109.3800466 607.516800
   8579   8568   8586     1   107.9700462 569.024000
   8592   8593   8595     1   111.5100476 526.347200
   8592   8593   8613     1   110.1900474 564.840000
   8592   8603   8608     1   110.1900474 564.840000
   8592   8610   8597     1   112.4800480 524.673600
   8593   8592   8603     1   111.5100476 526.347200
   8593   8592   8610     1   107.9700462 569.024000
   8593   8595   8596     1   111.5100476 526.347200
   8593   8595   8602     1   110.1900474 564.840000
   8595   8593   8613     1   110.1900474 564.840000
   8595   8596   8597     1   111.5100476 526.347200
   8595   8596   8615     1   111.0400475 552.288000
   8596   8595   8602     1   110.1900474 564.840000
   8596   8597   8601     1   110.1900474 564.840000
   8596   8597   8610     1   107.9700462 569.024000
   8597   8596   8615     1   111.0400475 552.288000
   8601   8597   8610     1   109.3800466 607.516800
   8603   8592   8610     1   107.9700462 569.024000
   8616   8618   8620     1   111.6100477 551.451200
   8618   8620   8624     1   111.0400475 552.288000
   8620   8624   8625     1   112.3500484 533.878400
   8620   8624   8626     1   112.3500484 533.878400
   8624   8625   8636     1   111.0400475 552.288000
   8624   8626   8628     1   111.0400475 552.288000
   8625   8636   8639     1   111.0400475 529.694400
   8625   8624   8626     1   112.3500484 533.878400
   8626   8628   8632     1   111.0400475 529.694400
   8628   8632   8633     1   123.2000528 564.003200
   8628   8632   8664     1   112.2600482 538.062400
   8632   8664   8645     1   118.5150508 540.957728
   8633   8632   8664     1   118.8300510 581.576000
   8636   8639   8640     1   123.2000528 564.003200
   8636   8639   8688     1   112.2600482 538.062400
   8639   8688   8669     1   118.5150508 540.957728
   8640   8639   8688     1   118.8300510 581.576000
   8641   8642   8644     1   111.5100476 526.347200
   8641   8642   8662     1   110.1900474 564.840000
   8641   8652   8657     1   110.1900474 564.840000
   8641   8659   8646     1   112.4800480 524.673600
   8642   8644   8645     1   111.5100476 526.347200
   8642   8644   8651     1   110.1900474 564.840000
   8642   8641   8652     1   111.5100476 526.347200
   8642   8641   8659     1   107.9700462 569.024000
   8644   8645   8646     1   111.5100476 526.347200
   8644   8645   8664     1   111.0400475 552.288000
   8644   8642   8662     1   110.1900474 564.840000
   8645   8646   8650     1   110.1900474 564.840000
   8645   8646   8659     1   107.9700462 569.024000
   8645   8644   8651     1   110.1900474 564.840000
   8646   8645   8664     1   111.0400475 552.288000
   8650   8646   8659     1   109.3800466 607.516800
   8652   8641   8659     1   107.9700462 569.024000
   8665   8666   8668     1   111.5100476 526.347200
   8665   8666   8686     1   110.1900474 564.840000
   8665   8676   8681     1   110.1900474 564.840000
   8665   8683   8670     1   112.4800480 524.673600
   8666   8668   8669     1   111.5100476 526.347200
   8666   8668   8675     1   110.1900474 564.840000
   8666   8665   8676     1   111.5100476 526.347200
   8666   8665   8683     1   107.9700462 569.024000
   8668   8669   8670     1   111.5100476 526.347200
   8668   8669   8688     1   111.0400475 552.288000
   8668   8666   8686     1   110.1900474 564.840000
   8669   8670   8674     1   110.1900474 564.840000
   8669   8670   8683     1   107.9700462 569.024000
   8669   8668   8675     1   110.1900474 564.840000
   8670   8669   8688     1   111.0400475 552.288000
   8674   8670   8683     1   109.3800466 607.516800
   8676   8665   8683     1   107.9700462 569.024000
   8689   8691   8693     1   111.6100477 551.451200
   8691   8693   8697     1   111.0400475 552.288000
   8693   8697   8698     1   112.3500484 533.878400
   8693   8697   8699     1   112.3500484 533.878400
   8697   8698   8709     1   111.0400475 552.288000
   8697   8699   8701     1   111.0400475 552.288000
   8698   8697   8699     1   112.3500484 533.878400
   8698   8709   8712     1   111.0400475 529.694400
   8699   8701   8705     1   111.0400475 529.694400
   8701   8705   8706     1   123.2000528 564.003200
   8701   8705   8737     1   112.2600482 538.062400
   8705   8737   8718     1   118.5150508 540.957728
   8706   8705   8737     1   118.8300510 581.576000
   8709   8712   8713     1   123.2000528 564.003200
   8709   8712   8761     1   112.2600482 538.062400
   8712   8761   8742     1   118.5150508 540.957728
   8713   8712   8761     1   118.8300510 581.576000
   8714   8715   8717     1   111.5100476 526.347200
   8714   8715   8735     1   110.1900474 564.840000
   8714   8725   8730     1   110.1900474 564.840000
   8714   8732   8719     1   112.4800480 524.673600
   8715   8714   8725     1   111.5100476 526.347200
   8715   8714   8732     1   107.9700462 569.024000
   8715   8717   8718     1   111.5100476 526.347200
   8715   8717   8724     1   110.1900474 564.840000
   8717   8715   8735     1   110.1900474 564.840000
   8717   8718   8719     1   111.5100476 526.347200
   8717   8718   8737     1   111.0400475 552.288000
   8718   8717   8724     1   110.1900474 564.840000
   8718   8719   8723     1   110.1900474 564.840000
   8718   8719   8732     1   107.9700462 569.024000
   8719   8718   8737     1   111.0400475 552.288000
   8723   8719   8732     1   109.3800466 607.516800
   8725   8714   8732     1   107.9700462 569.024000
   8738   8739   8741     1   111.5100476 526.347200
   8738   8739   8759     1   110.1900474 564.840000
   8738   8749   8754     1   110.1900474 564.840000
   8738   8756   8743     1   112.4800480 524.673600
   8739   8738   8749     1   111.5100476 526.347200
   8739   8738   8756     1   107.9700462 569.024000
   8739   8741   8742     1   111.5100476 526.347200
   8739   8741   8748     1   110.1900474 564.840000
   8741   8739   8759     1   110.1900474 564.840000
   8741   8742   8743     1   111.5100476 526.347200
   8741   8742   8761     1   111.0400475 552.288000
   8742   8741   8748     1   110.1900474 564.840000
   8742   8743   8747     1   110.1900474 564.840000
   8742   8743   8756     1   107.9700462 569.024000
   8743   8742   8761     1   111.0400475 552.288000
   8747   8743   8756     1   109.3800466 607.516800
   8749   8738   8756     1   107.9700462 569.024000
   8762   8764   8766     1   111.6100477 551.451200
   8764   8766   8770     1   111.0400475 552.288000
   8766   8770   8771     1   112.3500484 533.878400
   8766   8770   8772     1   112.3500484 533.878400
   8770   8771   8782     1   111.0400475 552.288000
   8770   8772   8774     1   111.0400475 552.288000
   8771   8782   8785     1   111.0400475 529.694400
   8771   8770   8772     1   112.3500484 533.878400
   8772   8774   8778     1   111.0400475 529.694400
   8774   8778   8779     1   123.2000528 564.003200
   8774   8778   8810     1   112.2600482 538.062400
   8778   8810   8791     1   118.5150508 540.957728
   8779   8778   8810     1   118.8300510 581.576000
   8782   8785   8786     1   123.2000528 564.003200
   8782   8785   8834     1   112.2600482 538.062400
   8785   8834   8815     1   118.5150508 540.957728
   8786   8785   8834     1   118.8300510 581.576000
   8787   8788   8790     1   111.5100476 526.347200
   8787   8788   8808     1   110.1900474 564.840000
   8787   8798   8803     1   110.1900474 564.840000
   8787   8805   8792     1   112.4800480 524.673600
   8788   8790   8791     1   111.5100476 526.347200
   8788   8790   8797     1   110.1900474 564.840000
   8788   8787   8798     1   111.5100476 526.347200
   8788   8787   8805     1   107.9700462 569.024000
   8790   8791   8792     1   111.5100476 526.347200
   8790   8791   8810     1   111.0400475 552.288000
   8790   8788   8808     1   110.1900474 564.840000
   8791   8792   8796     1   110.1900474 564.840000
   8791   8792   8805     1   107.9700462 569.024000
   8791   8790   8797     1   110.1900474 564.840000
   8792   8791   8810     1   111.0400475 552.288000
   8796   8792   8805     1   109.3800466 607.516800
   8798   8787   8805     1   107.9700462 569.024000
   8811   8812   8814     1   111.5100476 526.347200
   8811   8812   8832     1   110.1900474 564.840000
   8811   8822   8827     1   110.1900474 564.840000
   8811   8829   8816     1   112.4800480 524.673600
   8812   8814   8815     1   111.5100476 526.347200
   8812   8814   8821     1   110.1900474 564.840000
   8812   8811   8822     1   111.5100476 526.347200
   8812   8811   8829     1   107.9700462 569.024000
   8814   8815   8816     1   111.5100476 526.347200
   8814   8815   8834     1   111.0400475 552.288000
   8814   8812   8832     1   110.1900474 564.840000
   8815   8816   8820     1   110.1900474 564.840000
   8815   8816   8829     1   107.9700462 569.024000
   8815   8814   8821     1   110.1900474 564.840000
   8816   8815   8834     1   111.0400475 552.288000
   8820   8816   8829     1   109.3800466 607.516800
   8822   8811   8829     1   107.9700462 569.024000
   8835   8837   8839     1   111.6100477 551.451200
   8837   8839   8843     1   111.0400475 552.288000
   8839   8843   8844     1   112.3500484 533.878400
   8839   8843   8845     1   112.3500484 533.878400
   8843   8844   8855     1   111.0400475 552.288000
   8843   8845   8847     1   111.0400475 552.288000
   8844   8843   8845     1   112.3500484 533.878400
   8844   8855   8858     1   111.0400475 529.694400
   8845   8847   8851     1   111.0400475 529.694400
   8847   8851   8852     1   123.2000528 564.003200
   8847   8851   8883     1   112.2600482 538.062400
   8851   8883   8864     1   118.5150508 540.957728
   8852   8851   8883     1   118.8300510 581.576000
   8855   8858   8859     1   123.2000528 564.003200
   8855   8858   8907     1   112.2600482 538.062400
   8858   8907   8888     1   118.5150508 540.957728
   8859   8858   8907     1   118.8300510 581.576000
   8860   8861   8863     1   111.5100476 526.347200
   8860   8861   8881     1   110.1900474 564.840000
   8860   8871   8876     1   110.1900474 564.840000
   8860   8878   8865     1   112.4800480 524.673600
   8861   8860   8871     1   111.5100476 526.347200
   8861   8860   8878     1   107.9700462 569.024000
   8861   8863   8864     1   111.5100476 526.347200
   8861   8863   8870     1   110.1900474 564.840000
   8863   8861   8881     1   110.1900474 564.840000
   8863   8864   8865     1   111.5100476 526.347200
   8863   8864   8883     1   111.0400475 552.288000
   8864   8863   8870     1   110.1900474 564.840000
   8864   8865   8869     1   110.1900474 564.840000
   8864   8865   8878     1   107.9700462 569.024000
   8865   8864   8883     1   111.0400475 552.288000
   8869   8865   8878     1   109.3800466 607.516800
   8871   8860   8878     1   107.9700462 569.024000
   8884   8885   8887     1   111.5100476 526.347200
   8884   8885   8905     1   110.1900474 564.840000
   8884   8895   8900     1   110.1900474 564.840000
   8884   8902   8889     1   112.4800480 524.673600
   8885   8884   8895     1   111.5100476 526.347200
   8885   8884   8902     1   107.9700462 569.024000
   8885   8887   8888     1   111.5100476 526.347200
   8885   8887   8894     1   110.1900474 564.840000
   8887   8885   8905     1   110.1900474 564.840000
   8887   8888   8889     1   111.5100476 526.347200
   8887   8888   8907     1   111.0400475 552.288000
   8888   8887   8894     1   110.1900474 564.840000
   8888   8889   8893     1   110.1900474 564.840000
   8888   8889   8902     1   107.9700462 569.024000
   8889   8888   8907     1   111.0400475 552.288000
   8893   8889   8902     1   109.3800466 607.516800
   8895   8884   8902     1   107.9700462 569.024000
   8908   8910   8912     1   111.6100477 551.451200
   8910   8912   8916     1   111.0400475 552.288000
   8912   8916   8917     1   112.3500484 533.878400
   8912   8916   8918     1   112.3500484 533.878400
   8916   8917   8928     1   111.0400475 552.288000
   8916   8918   8920     1   111.0400475 552.288000
   8917   8928   8931     1   111.0400475 529.694400
   8917   8916   8918     1   112.3500484 533.878400
   8918   8920   8924     1   111.0400475 529.694400
   8920   8924   8925     1   123.2000528 564.003200
   8920   8924   8956     1   112.2600482 538.062400
   8924   8956   8937     1   118.5150508 540.957728
   8925   8924   8956     1   118.8300510 581.576000
   8928   8931   8932     1   123.2000528 564.003200
   8928   8931   8980     1   112.2600482 538.062400
   8931   8980   8961     1   118.5150508 540.957728
   8932   8931   8980     1   118.8300510 581.576000
   8933   8934   8936     1   111.5100476 526.347200
   8933   8934   8954     1   110.1900474 564.840000
   8933   8944   8949     1   110.1900474 564.840000
   8933   8951   8938     1   112.4800480 524.673600
   8934   8936   8937     1   111.5100476 526.347200
   8934   8936   8943     1   110.1900474 564.840000
   8934   8933   8944     1   111.5100476 526.347200
   8934   8933   8951     1   107.9700462 569.024000
   8936   8937   8938     1   111.5100476 526.347200
   8936   8937   8956     1   111.0400475 552.288000
   8936   8934   8954     1   110.1900474 564.840000
   8937   8938   8942     1   110.1900474 564.840000
   8937   8938   8951     1   107.9700462 569.024000
   8937   8936   8943     1   110.1900474 564.840000
   8938   8937   8956     1   111.0400475 552.288000
   8942   8938   8951     1   109.3800466 607.516800
   8944   8933   8951     1   107.9700462 569.024000
   8957   8958   8960     1   111.5100476 526.347200
   8957   8958   8978     1   110.1900474 564.840000
   8957   8968   8973     1   110.1900474 564.840000
   8957   8975   8962     1   112.4800480 524.673600
   8958   8960   8961     1   111.5100476 526.347200
   8958   8960   8967     1   110.1900474 564.840000
   8958   8957   8968     1   111.5100476 526.347200
   8958   8957   8975     1   107.9700462 569.024000
   8960   8961   8962     1   111.5100476 526.347200
   8960   8961   8980     1   111.0400475 552.288000
   8960   8958   8978     1   110.1900474 564.840000
   8961   8962   8966     1   110.1900474 564.840000
   8961   8962   8975     1   107.9700462 569.024000
   8961   8960   8967     1   110.1900474 564.840000
   8962   8961   8980     1   111.0400475 552.288000
   8966   8962   8975     1   109.3800466 607.516800
   8968   8957   8975     1   107.9700462 569.024000
   8981   8983   8985     1   111.6100477 551.451200
   8983   8985   8989     1   111.0400475 552.288000
   8985   8989   8990     1   112.3500484 533.878400
   8985   8989   8991     1   112.3500484 533.878400
   8989   8990   9001     1   111.0400475 552.288000
   8989   8991   8993     1   111.0400475 552.288000
   8990   8989   8991     1   112.3500484 533.878400
   8990   9001   9004     1   111.0400475 529.694400
   8991   8993   8997     1   111.0400475 529.694400
   8993   8997   8998     1   123.2000528 564.003200
   8993   8997   9029     1   112.2600482 538.062400
   8997   9029   9010     1   118.5150508 540.957728
   8998   8997   9029     1   118.8300510 581.576000
   9001   9004   9005     1   123.2000528 564.003200
   9001   9004   9053     1   112.2600482 538.062400
   9004   9053   9034     1   118.5150508 540.957728
   9005   9004   9053     1   118.8300510 581.576000
   9006   9007   9009     1   111.5100476 526.347200
   9006   9007   9027     1   110.1900474 564.840000
   9006   9017   9022     1   110.1900474 564.840000
   9006   9024   9011     1   112.4800480 524.673600
   9007   9006   9017     1   111.5100476 526.347200
   9007   9006   9024     1   107.9700462 569.024000
   9007   9009   9010     1   111.5100476 526.347200
   9007   9009   9016     1   110.1900474 564.840000
   9009   9007   9027     1   110.1900474 564.840000
   9009   9010   9011     1   111.5100476 526.347200
   9009   9010   9029     1   111.0400475 552.288000
   9010   9009   9016     1   110.1900474 564.840000
   9010   9011   9015     1   110.1900474 564.840000
   9010   9011   9024     1   107.9700462 569.024000
   9011   9010   9029     1   111.0400475 552.288000
   9015   9011   9024     1   109.3800466 607.516800
   9017   9006   9024     1   107.9700462 569.024000
   9030   9031   9033     1   111.5100476 526.347200
   9030   9031   9051     1   110.1900474 564.840000
   9030   9041   9046     1   110.1900474 564.840000
   9030   9048   9035     1   112.4800480 524.673600
   9031   9030   9041     1   111.5100476 526.347200
   9031   9030   9048     1   107.9700462 569.024000
   9031   9033   9034     1   111.5100476 526.347200
   9031   9033   9040     1   110.1900474 564.840000
   9033   9031   9051     1   110.1900474 564.840000
   9033   9034   9035     1   111.5100476 526.347200
   9033   9034   9053     1   111.0400475 552.288000
   9034   9033   9040     1   110.1900474 564.840000
   9034   9035   9039     1   110.1900474 564.840000
   9034   9035   9048     1   107.9700462 569.024000
   9035   9034   9053     1   111.0400475 552.288000
   9039   9035   9048     1   109.3800466 607.516800
   9041   9030   9048     1   107.9700462 569.024000
   9054   9056   9058     1   111.6100477 551.451200
   9056   9058   9062     1   111.0400475 552.288000
   9058   9062   9063     1   112.3500484 533.878400
   9058   9062   9064     1   112.3500484 533.878400
   9062   9063   9074     1   111.0400475 552.288000
   9062   9064   9066     1   111.0400475 552.288000
   9063   9074   9077     1   111.0400475 529.694400
   9063   9062   9064     1   112.3500484 533.878400
   9064   9066   9070     1   111.0400475 529.694400
   9066   9070   9071     1   123.2000528 564.003200
   9066   9070   9102     1   112.2600482 538.062400
   9070   9102   9083     1   118.5150508 540.957728
   9071   9070   9102     1   118.8300510 581.576000
   9074   9077   9078     1   123.2000528 564.003200
   9074   9077   9126     1   112.2600482 538.062400
   9077   9126   9107     1   118.5150508 540.957728
   9078   9077   9126     1   118.8300510 581.576000
   9079   9080   9082     1   111.5100476 526.347200
   9079   9080   9100     1   110.1900474 564.840000
   9079   9090   9095     1   110.1900474 564.840000
   9079   9097   9084     1   112.4800480 524.673600
   9080   9082   9083     1   111.5100476 526.347200
   9080   9082   9089     1   110.1900474 564.840000
   9080   9079   9090     1   111.5100476 526.347200
   9080   9079   9097     1   107.9700462 569.024000
   9082   9083   9084     1   111.5100476 526.347200
   9082   9083   9102     1   111.0400475 552.288000
   9082   9080   9100     1   110.1900474 564.840000
   9083   9084   9088     1   110.1900474 564.840000
   9083   9084   9097     1   107.9700462 569.024000
   9083   9082   9089     1   110.1900474 564.840000
   9084   9083   9102     1   111.0400475 552.288000
   9088   9084   9097     1   109.3800466 607.516800
   9090   9079   9097     1   107.9700462 569.024000
   9103   9104   9106     1   111.5100476 526.347200
   9103   9104   9124     1   110.1900474 564.840000
   9103   9114   9119     1   110.1900474 564.840000
   9103   9121   9108     1   112.4800480 524.673600
   9104   9106   9107     1   111.5100476 526.347200
   9104   9106   9113     1   110.1900474 564.840000
   9104   9103   9114     1   111.5100476 526.347200
   9104   9103   9121     1   107.9700462 569.024000
   9106   9107   9108     1   111.5100476 526.347200
   9106   9107   9126     1   111.0400475 552.288000
   9106   9104   9124     1   110.1900474 564.840000
   9107   9108   9112     1   110.1900474 564.840000
   9107   9108   9121     1   107.9700462 569.024000
   9107   9106   9113     1   110.1900474 564.840000
   9108   9107   9126     1   111.0400475 552.288000
   9112   9108   9121     1   109.3800466 607.516800
   9114   9103   9121     1   107.9700462 569.024000
   9127   9129   9131     1   111.6100477 551.451200
   9129   9131   9135     1   111.0400475 552.288000
   9131   9135   9136     1   112.3500484 533.878400
   9131   9135   9137     1   112.3500484 533.878400
   9135   9136   9147     1   111.0400475 552.288000
   9135   9137   9139     1   111.0400475 552.288000
   9136   9135   9137     1   112.3500484 533.878400
   9136   9147   9150     1   111.0400475 529.694400
   9137   9139   9143     1   111.0400475 529.694400
   9139   9143   9144     1   123.2000528 564.003200
   9139   9143   9175     1   112.2600482 538.062400
   9143   9175   9156     1   118.5150508 540.957728
   9144   9143   9175     1   118.8300510 581.576000
   9147   9150   9151     1   123.2000528 564.003200
   9147   9150   9199     1   112.2600482 538.062400
   9150   9199   9180     1   118.5150508 540.957728
   9151   9150   9199     1   118.8300510 581.576000
   9152   9153   9155     1   111.5100476 526.347200
   9152   9153   9173     1   110.1900474 564.840000
   9152   9163   9168     1   110.1900474 564.840000
   9152   9170   9157     1   112.4800480 524.673600
   9153   9152   9163     1   111.5100476 526.347200
   9153   9152   9170     1   107.9700462 569.024000
   9153   9155   9156     1   111.5100476 526.347200
   9153   9155   9162     1   110.1900474 564.840000
   9155   9153   9173     1   110.1900474 564.840000
   9155   9156   9157     1   111.5100476 526.347200
   9155   9156   9175     1   111.0400475 552.288000
   9156   9155   9162     1   110.1900474 564.840000
   9156   9157   9161     1   110.1900474 564.840000
   9156   9157   9170     1   107.9700462 569.024000
   9157   9156   9175     1   111.0400475 552.288000
   9161   9157   9170     1   109.3800466 607.516800
   9163   9152   9170     1   107.9700462 569.024000
   9176   9177   9179     1   111.5100476 526.347200
   9176   9177   9197     1   110.1900474 564.840000
   9176   9187   9192     1   110.1900474 564.840000
   9176   9194   9181     1   112.4800480 524.673600
   9177   9176   9187     1   111.5100476 526.347200
   9177   9176   9194     1   107.9700462 569.024000
   9177   9179   9180     1   111.5100476 526.347200
   9177   9179   9186     1   110.1900474 564.840000
   9179   9177   9197     1   110.1900474 564.840000
   9179   9180   9181     1   111.5100476 526.347200
   9179   9180   9199     1   111.0400475 552.288000
   9180   9179   9186     1   110.1900474 564.840000
   9180   9181   9185     1   110.1900474 564.840000
   9180   9181   9194     1   107.9700462 569.024000
   9181   9180   9199     1   111.0400475 552.288000
   9185   9181   9194     1   109.3800466 607.516800
   9187   9176   9194     1   107.9700462 569.024000
   9200   9202   9204     1   111.6100477 551.451200
   9202   9204   9208     1   111.0400475 552.288000
   9204   9208   9209     1   112.3500484 533.878400
   9204   9208   9210     1   112.3500484 533.878400
   9208   9209   9220     1   111.0400475 552.288000
   9208   9210   9212     1   111.0400475 552.288000
   9209   9220   9223     1   111.0400475 529.694400
   9209   9208   9210     1   112.3500484 533.878400
   9210   9212   9216     1   111.0400475 529.694400
   9212   9216   9217     1   123.2000528 564.003200
   9212   9216   9248     1   112.2600482 538.062400
   9216   9248   9229     1   118.5150508 540.957728
   9217   9216   9248     1   118.8300510 581.576000
   9220   9223   9224     1   123.2000528 564.003200
   9220   9223   9272     1   112.2600482 538.062400
   9223   9272   9253     1   118.5150508 540.957728
   9224   9223   9272     1   118.8300510 581.576000
   9225   9226   9228     1   111.5100476 526.347200
   9225   9226   9246     1   110.1900474 564.840000
   9225   9236   9241     1   110.1900474 564.840000
   9225   9243   9230     1   112.4800480 524.673600
   9226   9228   9229     1   111.5100476 526.347200
   9226   9228   9235     1   110.1900474 564.840000
   9226   9225   9236     1   111.5100476 526.347200
   9226   9225   9243     1   107.9700462 569.024000
   9228   9229   9230     1   111.5100476 526.347200
   9228   9229   9248     1   111.0400475 552.288000
   9228   9226   9246     1   110.1900474 564.840000
   9229   9230   9234     1   110.1900474 564.840000
   9229   9230   9243     1   107.9700462 569.024000
   9229   9228   9235     1   110.1900474 564.840000
   9230   9229   9248     1   111.0400475 552.288000
   9234   9230   9243     1   109.3800466 607.516800
   9236   9225   9243     1   107.9700462 569.024000
   9249   9250   9252     1   111.5100476 526.347200
   9249   9250   9270     1   110.1900474 564.840000
   9249   9260   9265     1   110.1900474 564.840000
   9249   9267   9254     1   112.4800480 524.673600
   9250   9252   9253     1   111.5100476 526.347200
   9250   9252   9259     1   110.1900474 564.840000
   9250   9249   9260     1   111.5100476 526.347200
   9250   9249   9267     1   107.9700462 569.024000
   9252   9253   9254     1   111.5100476 526.347200
   9252   9253   9272     1   111.0400475 552.288000
   9252   9250   9270     1   110.1900474 564.840000
   9253   9254   9258     1   110.1900474 564.840000
   9253   9254   9267     1   107.9700462 569.024000
   9253   9252   9259     1   110.1900474 564.840000
   9254   9253   9272     1   111.0400475 552.288000
   9258   9254   9267     1   109.3800466 607.516800
   9260   9249   9267     1   107.9700462 569.024000
   9273   9275   9277     1   111.6100477 551.451200
   9275   9277   9281     1   111.0400475 552.288000
   9277   9281   9282     1   112.3500484 533.878400
   9277   9281   9283     1   112.3500484 533.878400
   9281   9282   9293     1   111.0400475 552.288000
   9281   9283   9285     1   111.0400475 552.288000
   9282   9281   9283     1   112.3500484 533.878400
   9282   9293   9296     1   111.0400475 529.694400
   9283   9285   9289     1   111.0400475 529.694400
   9285   9289   9290     1   123.2000528 564.003200
   9285   9289   9321     1   112.2600482 538.062400
   9289   9321   9302     1   118.5150508 540.957728
   9290   9289   9321     1   118.8300510 581.576000
   9293   9296   9297     1   123.2000528 564.003200
   9293   9296   9345     1   112.2600482 538.062400
   9296   9345   9326     1   118.5150508 540.957728
   9297   9296   9345     1   118.8300510 581.576000
   9298   9299   9301     1   111.5100476 526.347200
   9298   9299   9319     1   110.1900474 564.840000
   9298   9309   9314     1   110.1900474 564.840000
   9298   9316   9303     1   112.4800480 524.673600
   9299   9298   9309     1   111.5100476 526.347200
   9299   9298   9316     1   107.9700462 569.024000
   9299   9301   9302     1   111.5100476 526.347200
   9299   9301   9308     1   110.1900474 564.840000
   9301   9299   9319     1   110.1900474 564.840000
   9301   9302   9303     1   111.5100476 526.347200
   9301   9302   9321     1   111.0400475 552.288000
   9302   9301   9308     1   110.1900474 564.840000
   9302   9303   9307     1   110.1900474 564.840000
   9302   9303   9316     1   107.9700462 569.024000
   9303   9302   9321     1   111.0400475 552.288000
   9307   9303   9316     1   109.3800466 607.516800
   9309   9298   9316     1   107.9700462 569.024000
   9322   9323   9325     1   111.5100476 526.347200
   9322   9323   9343     1   110.1900474 564.840000
   9322   9333   9338     1   110.1900474 564.840000
   9322   9340   9327     1   112.4800480 524.673600
   9323   9322   9333     1   111.5100476 526.347200
   9323   9322   9340     1   107.9700462 569.024000
   9323   9325   9326     1   111.5100476 526.347200
   9323   9325   9332     1   110.1900474 564.840000
   9325   9323   9343     1   110.1900474 564.840000
   9325   9326   9327     1   111.5100476 526.347200
   9325   9326   9345     1   111.0400475 552.288000
   9326   9325   9332     1   110.1900474 564.840000
   9326   9327   9331     1   110.1900474 564.840000
   9326   9327   9340     1   107.9700462 569.024000
   9327   9326   9345     1   111.0400475 552.288000
   9331   9327   9340     1   109.3800466 607.516800
   9333   9322   9340     1   107.9700462 569.024000
   9346   9348   9350     1   111.6100477 551.451200
   9348   9350   9354     1   111.0400475 552.288000
   9350   9354   9355     1   112.3500484 533.878400
   9350   9354   9356     1   112.3500484 533.878400
   9354   9355   9366     1   111.0400475 552.288000
   9354   9356   9358     1   111.0400475 552.288000
   9355   9366   9369     1   111.0400475 529.694400
   9355   9354   9356     1   112.3500484 533.878400
   9356   9358   9362     1   111.0400475 529.694400
   9358   9362   9363     1   123.2000528 564.003200
   9358   9362   9394     1   112.2600482 538.062400
   9362   9394   9375     1   118.5150508 540.957728
   9363   9362   9394     1   118.8300510 581.576000
   9366   9369   9370     1   123.2000528 564.003200
   9366   9369   9418     1   112.2600482 538.062400
   9369   9418   9399     1   118.5150508 540.957728
   9370   9369   9418     1   118.8300510 581.576000
   9371   9372   9374     1   111.5100476 526.347200
   9371   9372   9392     1   110.1900474 564.840000
   9371   9382   9387     1   110.1900474 564.840000
   9371   9389   9376     1   112.4800480 524.673600
   9372   9374   9375     1   111.5100476 526.347200
   9372   9374   9381     1   110.1900474 564.840000
   9372   9371   9382     1   111.5100476 526.347200
   9372   9371   9389     1   107.9700462 569.024000
   9374   9375   9376     1   111.5100476 526.347200
   9374   9375   9394     1   111.0400475 552.288000
   9374   9372   9392     1   110.1900474 564.840000
   9375   9376   9380     1   110.1900474 564.840000
   9375   9376   9389     1   107.9700462 569.024000
   9375   9374   9381     1   110.1900474 564.840000
   9376   9375   9394     1   111.0400475 552.288000
   9380   9376   9389     1   109.3800466 607.516800
   9382   9371   9389     1   107.9700462 569.024000
   9395   9396   9398     1   111.5100476 526.347200
   9395   9396   9416     1   110.1900474 564.840000
   9395   9406   9411     1   110.1900474 564.840000
   9395   9413   9400     1   112.4800480 524.673600
   9396   9398   9399     1   111.5100476 526.347200
   9396   9398   9405     1   110.1900474 564.840000
   9396   9395   9406     1   111.5100476 526.347200
   9396   9395   9413     1   107.9700462 569.024000
   9398   9399   9400     1   111.5100476 526.347200
   9398   9399   9418     1   111.0400475 552.288000
   9398   9396   9416     1   110.1900474 564.840000
   9399   9400   9404     1   110.1900474 564.840000
   9399   9400   9413     1   107.9700462 569.024000
   9399   9398   9405     1   110.1900474 564.840000
   9400   9399   9418     1   111.0400475 552.288000
   9404   9400   9413     1   109.3800466 607.516800
   9406   9395   9413     1   107.9700462 569.024000
   9419   9421   9423     1   111.6100477 551.451200
   9421   9423   9427     1   111.0400475 552.288000
   9423   9427   9428     1   112.3500484 533.878400
   9423   9427   9429     1   112.3500484 533.878400
   9427   9428   9439     1   111.0400475 552.288000
   9427   9429   9431     1   111.0400475 552.288000
   9428   9427   9429     1   112.3500484 533.878400
   9428   9439   9442     1   111.0400475 529.694400
   9429   9431   9435     1   111.0400475 529.694400
   9431   9435   9436     1   123.2000528 564.003200
   9431   9435   9467     1   112.2600482 538.062400
   9435   9467   9448     1   118.5150508 540.957728
   9436   9435   9467     1   118.8300510 581.576000
   9439   9442   9443     1   123.2000528 564.003200
   9439   9442   9491     1   112.2600482 538.062400
   9442   9491   9472     1   118.5150508 540.957728
   9443   9442   9491     1   118.8300510 581.576000
   9444   9445   9447     1   111.5100476 526.347200
   9444   9445   9465     1   110.1900474 564.840000
   9444   9455   9460     1   110.1900474 564.840000
   9444   9462   9449     1   112.4800480 524.673600
   9445   9444   9455     1   111.5100476 526.347200
   9445   9444   9462     1   107.9700462 569.024000
   9445   9447   9448     1   111.5100476 526.347200
   9445   9447   9454     1   110.1900474 564.840000
   9447   9445   9465     1   110.1900474 564.840000
   9447   9448   9449     1   111.5100476 526.347200
   9447   9448   9467     1   111.0400475 552.288000
   9448   9447   9454     1   110.1900474 564.840000
   9448   9449   9453     1   110.1900474 564.840000
   9448   9449   9462     1   107.9700462 569.024000
   9449   9448   9467     1   111.0400475 552.288000
   9453   9449   9462     1   109.3800466 607.516800
   9455   9444   9462     1   107.9700462 569.024000
   9468   9469   9471     1   111.5100476 526.347200
   9468   9469   9489     1   110.1900474 564.840000
   9468   9479   9484     1   110.1900474 564.840000
   9468   9486   9473     1   112.4800480 524.673600
   9469   9468   9479     1   111.5100476 526.347200
   9469   9468   9486     1   107.9700462 569.024000
   9469   9471   9472     1   111.5100476 526.347200
   9469   9471   9478     1   110.1900474 564.840000
   9471   9469   9489     1   110.1900474 564.840000
   9471   9472   9473     1   111.5100476 526.347200
   9471   9472   9491     1   111.0400475 552.288000
   9472   9471   9478     1   110.1900474 564.840000
   9472   9473   9477     1   110.1900474 564.840000
   9472   9473   9486     1   107.9700462 569.024000
   9473   9472   9491     1   111.0400475 552.288000
   9477   9473   9486     1   109.3800466 607.516800
   9479   9468   9486     1   107.9700462 569.024000
   9492   9494   9496     1   111.6100477 551.451200
   9494   9496   9500     1   111.0400475 552.288000
   9496   9500   9501     1   112.3500484 533.878400
   9496   9500   9502     1   112.3500484 533.878400
   9500   9501   9512     1   111.0400475 552.288000
   9500   9502   9504     1   111.0400475 552.288000
   9501   9512   9515     1   111.0400475 529.694400
   9501   9500   9502     1   112.3500484 533.878400
   9502   9504   9508     1   111.0400475 529.694400
   9504   9508   9509     1   123.2000528 564.003200
   9504   9508   9540     1   112.2600482 538.062400
   9508   9540   9521     1   118.5150508 540.957728
   9509   9508   9540     1   118.8300510 581.576000
   9512   9515   9516     1   123.2000528 564.003200
   9512   9515   9564     1   112.2600482 538.062400
   9515   9564   9545     1   118.5150508 540.957728
   9516   9515   9564     1   118.8300510 581.576000
   9517   9518   9520     1   111.5100476 526.347200
   9517   9518   9538     1   110.1900474 564.840000
   9517   9528   9533     1   110.1900474 564.840000
   9517   9535   9522     1   112.4800480 524.673600
   9518   9520   9521     1   111.5100476 526.347200
   9518   9520   9527     1   110.1900474 564.840000
   9518   9517   9528     1   111.5100476 526.347200
   9518   9517   9535     1   107.9700462 569.024000
   9520   9521   9522     1   111.5100476 526.347200
   9520   9521   9540     1   111.0400475 552.288000
   9520   9518   9538     1   110.1900474 564.840000
   9521   9522   9526     1   110.1900474 564.840000
   9521   9522   9535     1   107.9700462 569.024000
   9521   9520   9527     1   110.1900474 564.840000
   9522   9521   9540     1   111.0400475 552.288000
   9526   9522   9535     1   109.3800466 607.516800
   9528   9517   9535     1   107.9700462 569.024000
   9541   9542   9544     1   111.5100476 526.347200
   9541   9542   9562     1   110.1900474 564.840000
   9541   9552   9557     1   110.1900474 564.840000
   9541   9559   9546     1   112.4800480 524.673600
   9542   9544   9545     1   111.5100476 526.347200
   9542   9544   9551     1   110.1900474 564.840000
   9542   9541   9552     1   111.5100476 526.347200
   9542   9541   9559     1   107.9700462 569.024000
   9544   9545   9546     1   111.5100476 526.347200
   9544   9545   9564     1   111.0400475 552.288000
   9544   9542   9562     1   110.1900474 564.840000
   9545   9546   9550     1   110.1900474 564.840000
   9545   9546   9559     1   107.9700462 569.024000
   9545   9544   9551     1   110.1900474 564.840000
   9546   9545   9564     1   111.0400475 552.288000
   9550   9546   9559     1   109.3800466 607.516800
   9552   9541   9559     1   107.9700462 569.024000
   9565   9567   9569     1   111.6100477 551.451200
   9567   9569   9573     1   111.0400475 552.288000
   9569   9573   9574     1   112.3500484 533.878400
   9569   9573   9575     1   112.3500484 533.878400
   9573   9574   9585     1   111.0400475 552.288000
   9573   9575   9577     1   111.0400475 552.288000
   9574   9573   9575     1   112.3500484 533.878400
   9574   9585   9588     1   111.0400475 529.694400
   9575   9577   9581     1   111.0400475 529.694400
   9577   9581   9582     1   123.2000528 564.003200
   9577   9581   9613     1   112.2600482 538.062400
   9581   9613   9594     1   118.5150508 540.957728
   9582   9581   9613     1   118.8300510 581.576000
   9585   9588   9589     1   123.2000528 564.003200
   9585   9588   9637     1   112.2600482 538.062400
   9588   9637   9618     1   118.5150508 540.957728
   9589   9588   9637     1   118.8300510 581.576000
   9590   9591   9593     1   111.5100476 526.347200
   9590   9591   9611     1   110.1900474 564.840000
   9590   9601   9606     1   110.1900474 564.840000
   9590   9608   9595     1   112.4800480 524.673600
   9591   9590   9601     1   111.5100476 526.347200
   9591   9590   9608     1   107.9700462 569.024000
   9591   9593   9594     1   111.5100476 526.347200
   9591   9593   9600     1   110.1900474 564.840000
   9593   9591   9611     1   110.1900474 564.840000
   9593   9594   9595     1   111.5100476 526.347200
   9593   9594   9613     1   111.0400475 552.288000
   9594   9593   9600     1   110.1900474 564.840000
   9594   9595   9599     1   110.1900474 564.840000
   9594   9595   9608     1   107.9700462 569.024000
   9595   9594   9613     1   111.0400475 552.288000
   9599   9595   9608     1   109.3800466 607.516800
   9601   9590   9608     1   107.9700462 569.024000
   9614   9615   9617     1   111.5100476 526.347200
   9614   9615   9635     1   110.1900474 564.840000
   9614   9625   9630     1   110.1900474 564.840000
   9614   9632   9619     1   112.4800480 524.673600
   9615   9614   9625     1   111.5100476 526.347200
   9615   9614   9632     1   107.9700462 569.024000
   9615   9617   9618     1   111.5100476 526.347200
   9615   9617   9624     1   110.1900474 564.840000
   9617   9615   9635     1   110.1900474 564.840000
   9617   9618   9619     1   111.5100476 526.347200
   9617   9618   9637     1   111.0400475 552.288000
   9618   9617   9624     1   110.1900474 564.840000
   9618   9619   9623     1   110.1900474 564.840000
   9618   9619   9632     1   107.9700462 569.024000
   9619   9618   9637     1   111.0400475 552.288000
   9623   9619   9632     1   109.3800466 607.516800
   9625   9614   9632     1   107.9700462 569.024000
   9638   9640   9642     1   111.6100477 551.451200
   9640   9642   9646     1   111.0400475 552.288000
   9642   9646   9647     1   112.3500484 533.878400
   9642   9646   9648     1   112.3500484 533.878400
   9646   9647   9658     1   111.0400475 552.288000
   9646   9648   9650     1   111.0400475 552.288000
   9647   9658   9661     1   111.0400475 529.694400
   9647   9646   9648     1   112.3500484 533.878400
   9648   9650   9654     1   111.0400475 529.694400
   9650   9654   9655     1   123.2000528 564.003200
   9650   9654   9686     1   112.2600482 538.062400
   9654   9686   9667     1   118.5150508 540.957728
   9655   9654   9686     1   118.8300510 581.576000
   9658   9661   9662     1   123.2000528 564.003200
   9658   9661   9710     1   112.2600482 538.062400
   9661   9710   9691     1   118.5150508 540.957728
   9662   9661   9710     1   118.8300510 581.576000
   9663   9664   9666     1   111.5100476 526.347200
   9663   9664   9684     1   110.1900474 564.840000
   9663   9674   9679     1   110.1900474 564.840000
   9663   9681   9668     1   112.4800480 524.673600
   9664   9666   9667     1   111.5100476 526.347200
   9664   9666   9673     1   110.1900474 564.840000
   9664   9663   9674     1   111.5100476 526.347200
   9664   9663   9681     1   107.9700462 569.024000
   9666   9667   9668     1   111.5100476 526.347200
   9666   9667   9686     1   111.0400475 552.288000
   9666   9664   9684     1   110.1900474 564.840000
   9667   9668   9672     1   110.1900474 564.840000
   9667   9668   9681     1   107.9700462 569.024000
   9667   9666   9673     1   110.1900474 564.840000
   9668   9667   9686     1   111.0400475 552.288000
   9672   9668   9681     1   109.3800466 607.516800
   9674   9663   9681     1   107.9700462 569.024000
   9687   9688   9690     1   111.5100476 526.347200
   9687   9688   9708     1   110.1900474 564.840000
   9687   9698   9703     1   110.1900474 564.840000
   9687   9705   9692     1   112.4800480 524.673600
   9688   9690   9691     1   111.5100476 526.347200
   9688   9690   9697     1   110.1900474 564.840000
   9688   9687   9698     1   111.5100476 526.347200
   9688   9687   9705     1   107.9700462 569.024000
   9690   9691   9692     1   111.5100476 526.347200
   9690   9691   9710     1   111.0400475 552.288000
   9690   9688   9708     1   110.1900474 564.840000
   9691   9692   9696     1   110.1900474 564.840000
   9691   9692   9705     1   107.9700462 569.024000
   9691   9690   9697     1   110.1900474 564.840000
   9692   9691   9710     1   111.0400475 552.288000
   9696   9692   9705     1   109.3800466 607.516800
   9698   9687   9705     1   107.9700462 569.024000
   9711   9713   9715     1   111.6100477 551.451200
   9713   9715   9719     1   111.0400475 552.288000
   9715   9719   9720     1   112.3500484 533.878400
   9715   9719   9721     1   112.3500484 533.878400
   9719   9720   9731     1   111.0400475 552.288000
   9719   9721   9723     1   111.0400475 552.288000
   9720   9719   9721     1   112.3500484 533.878400
   9720   9731   9734     1   111.0400475 529.694400
   9721   9723   9727     1   111.0400475 529.694400
   9723   9727   9728     1   123.2000528 564.003200
   9723   9727   9759     1   112.2600482 538.062400
   9727   9759   9740     1   118.5150508 540.957728
   9728   9727   9759     1   118.8300510 581.576000
   9731   9734   9735     1   123.2000528 564.003200
   9731   9734   9783     1   112.2600482 538.062400
   9734   9783   9764     1   118.5150508 540.957728
   9735   9734   9783     1   118.8300510 581.576000
   9736   9737   9739     1   111.5100476 526.347200
   9736   9737   9757     1   110.1900474 564.840000
   9736   9747   9752     1   110.1900474 564.840000
   9736   9754   9741     1   112.4800480 524.673600
   9737   9736   9747     1   111.5100476 526.347200
   9737   9736   9754     1   107.9700462 569.024000
   9737   9739   9740     1   111.5100476 526.347200
   9737   9739   9746     1   110.1900474 564.840000
   9739   9737   9757     1   110.1900474 564.840000
   9739   9740   9741     1   111.5100476 526.347200
   9739   9740   9759     1   111.0400475 552.288000
   9740   9739   9746     1   110.1900474 564.840000
   9740   9741   9745     1   110.1900474 564.840000
   9740   9741   9754     1   107.9700462 569.024000
   9741   9740   9759     1   111.0400475 552.288000
   9745   9741   9754     1   109.3800466 607.516800
   9747   9736   9754     1   107.9700462 569.024000
   9760   9761   9763     1   111.5100476 526.347200
   9760   9761   9781     1   110.1900474 564.840000
   9760   9771   9776     1   110.1900474 564.840000
   9760   9778   9765     1   112.4800480 524.673600
   9761   9760   9771     1   111.5100476 526.347200
   9761   9760   9778     1   107.9700462 569.024000
   9761   9763   9764     1   111.5100476 526.347200
   9761   9763   9770     1   110.1900474 564.840000
   9763   9761   9781     1   110.1900474 564.840000
   9763   9764   9765     1   111.5100476 526.347200
   9763   9764   9783     1   111.0400475 552.288000
   9764   9763   9770     1   110.1900474 564.840000
   9764   9765   9769     1   110.1900474 564.840000
   9764   9765   9778     1   107.9700462 569.024000
   9765   9764   9783     1   111.0400475 552.288000
   9769   9765   9778     1   109.3800466 607.516800
   9771   9760   9778     1   107.9700462 569.024000
   9784   9786   9788     1   111.6100477 551.451200
   9786   9788   9792     1   111.0400475 552.288000
   9788   9792   9793     1   112.3500484 533.878400
   9788   9792   9794     1   112.3500484 533.878400
   9792   9793   9804     1   111.0400475 552.288000
   9792   9794   9796     1   111.0400475 552.288000
   9793   9804   9807     1   111.0400475 529.694400
   9793   9792   9794     1   112.3500484 533.878400
   9794   9796   9800     1   111.0400475 529.694400
   9796   9800   9801     1   123.2000528 564.003200
   9796   9800   9832     1   112.2600482 538.062400
   9800   9832   9813     1   118.5150508 540.957728
   9801   9800   9832     1   118.8300510 581.576000
   9804   9807   9808     1   123.2000528 564.003200
   9804   9807   9856     1   112.2600482 538.062400
   9807   9856   9837     1   118.5150508 540.957728
   9808   9807   9856     1   118.8300510 581.576000
   9809   9810   9812     1   111.5100476 526.347200
   9809   9810   9830     1   110.1900474 564.840000
   9809   9820   9825     1   110.1900474 564.840000
   9809   9827   9814     1   112.4800480 524.673600
   9810   9812   9813     1   111.5100476 526.347200
   9810   9812   9819     1   110.1900474 564.840000
   9810   9809   9820     1   111.5100476 526.347200
   9810   9809   9827     1   107.9700462 569.024000
   9812   9813   9814     1   111.5100476 526.347200
   9812   9813   9832     1   111.0400475 552.288000
   9812   9810   9830     1   110.1900474 564.840000
   9813   9814   9818     1   110.1900474 564.840000
   9813   9814   9827     1   107.9700462 569.024000
   9813   9812   9819     1   110.1900474 564.840000
   9814   9813   9832     1   111.0400475 552.288000
   9818   9814   9827     1   109.3800466 607.516800
   9820   9809   9827     1   107.9700462 569.024000
   9833   9834   9836     1   111.5100476 526.347200
   9833   9834   9854     1   110.1900474 564.840000
   9833   9844   9849     1   110.1900474 564.840000
   9833   9851   9838     1   112.4800480 524.673600
   9834   9836   9837     1   111.5100476 526.347200
   9834   9836   9843     1   110.1900474 564.840000
   9834   9833   9844     1   111.5100476 526.347200
   9834   9833   9851     1   107.9700462 569.024000
   9836   9837   9838     1   111.5100476 526.347200
   9836   9837   9856     1   111.0400475 552.288000
   9836   9834   9854     1   110.1900474 564.840000
   9837   9838   9842     1   110.1900474 564.840000
   9837   9838   9851     1   107.9700462 569.024000
   9837   9836   9843     1   110.1900474 564.840000
   9838   9837   9856     1   111.0400475 552.288000
   9842   9838   9851     1   109.3800466 607.516800
   9844   9833   9851     1   107.9700462 569.024000
   9857   9859   9861     1   111.6100477 551.451200
   9859   9861   9865     1   111.0400475 552.288000
   9861   9865   9866     1   112.3500484 533.878400
   9861   9865   9867     1   112.3500484 533.878400
   9865   9866   9877     1   111.0400475 552.288000
   9865   9867   9869     1   111.0400475 552.288000
   9866   9865   9867     1   112.3500484 533.878400
   9866   9877   9880     1   111.0400475 529.694400
   9867   9869   9873     1   111.0400475 529.694400
   9869   9873   9874     1   123.2000528 564.003200
   9869   9873   9905     1   112.2600482 538.062400
   9873   9905   9886     1   118.5150508 540.957728
   9874   9873   9905     1   118.8300510 581.576000
   9877   9880   9881     1   123.2000528 564.003200
   9877   9880   9929     1   112.2600482 538.062400
   9880   9929   9910     1   118.5150508 540.957728
   9881   9880   9929     1   118.8300510 581.576000
   9882   9883   9885     1   111.5100476 526.347200
   9882   9883   9903     1   110.1900474 564.840000
   9882   9893   9898     1   110.1900474 564.840000
   9882   9900   9887     1   112.4800480 524.673600
   9883   9882   9893     1   111.5100476 526.347200
   9883   9882   9900     1   107.9700462 569.024000
   9883   9885   9886     1   111.5100476 526.347200
   9883   9885   9892     1   110.1900474 564.840000
   9885   9883   9903     1   110.1900474 564.840000
   9885   9886   9887     1   111.5100476 526.347200
   9885   9886   9905     1   111.0400475 552.288000
   9886   9885   9892     1   110.1900474 564.840000
   9886   9887   9891     1   110.1900474 564.840000
   9886   9887   9900     1   107.9700462 569.024000
   9887   9886   9905     1   111.0400475 552.288000
   9891   9887   9900     1   109.3800466 607.516800
   9893   9882   9900     1   107.9700462 569.024000
   9906   9907   9909     1   111.5100476 526.347200
   9906   9907   9927     1   110.1900474 564.840000
   9906   9917   9922     1   110.1900474 564.840000
   9906   9924   9911     1   112.4800480 524.673600
   9907   9906   9917     1   111.5100476 526.347200
   9907   9906   9924     1   107.9700462 569.024000
   9907   9909   9910     1   111.5100476 526.347200
   9907   9909   9916     1   110.1900474 564.840000
   9909   9907   9927     1   110.1900474 564.840000
   9909   9910   9911     1   111.5100476 526.347200
   9909   9910   9929     1   111.0400475 552.288000
   9910   9909   9916     1   110.1900474 564.840000
   9910   9911   9915     1   110.1900474 564.840000
   9910   9911   9924     1   107.9700462 569.024000
   9911   9910   9929     1   111.0400475 552.288000
   9915   9911   9924     1   109.3800466 607.516800
   9917   9906   9924     1   107.9700462 569.024000
   9930   9932   9934     1   111.6100477 551.451200
   9932   9934   9938     1   111.0400475 552.288000
   9934   9938   9939     1   112.3500484 533.878400
   9934   9938   9940     1   112.3500484 533.878400
   9938   9939   9950     1   111.0400475 552.288000
   9938   9940   9942     1   111.0400475 552.288000
   9939   9950   9953     1   111.0400475 529.694400
   9939   9938   9940     1   112.3500484 533.878400
   9940   9942   9946     1   111.0400475 529.694400
   9942   9946   9947     1   123.2000528 564.003200
   9942   9946   9978     1   112.2600482 538.062400
   9946   9978   9959     1   118.5150508 540.957728
   9947   9946   9978     1   118.8300510 581.576000
   9950   9953   9954     1   123.2000528 564.003200
   9950   9953  10002     1   112.2600482 538.062400
   9953  10002   9983     1   118.5150508 540.957728
   9954   9953  10002     1   118.8300510 581.576000
   9955   9956   9958     1   111.5100476 526.347200
   9955   9956   9976     1   110.1900474 564.840000
   9955   9966   9971     1   110.1900474 564.840000
   9955   9973   9960     1   112.4800480 524.673600
   9956   9958   9959     1   111.5100476 526.347200
   9956   9958   9965     1   110.1900474 564.840000
   9956   9955   9966     1   111.5100476 526.347200
   9956   9955   9973     1   107.9700462 569.024000
   9958   9959   9960     1   111.5100476 526.347200
   9958   9959   9978     1   111.0400475 552.288000
   9958   9956   9976     1   110.1900474 564.840000
   9959   9960   9964     1   110.1900474 564.840000
   9959   9960   9973     1   107.9700462 569.024000
   9959   9958   9965     1   110.1900474 564.840000
   9960   9959   9978     1   111.0400475 552.288000
   9964   9960   9973     1   109.3800466 607.516800
   9966   9955   9973     1   107.9700462 569.024000
   9979   9980   9982     1   111.5100476 526.347200
   9979   9980  10000     1   110.1900474 564.840000
   9979   9990   9995     1   110.1900474 564.840000
   9979   9997   9984     1   112.4800480 524.673600
   9980   9982   9983     1   111.5100476 526.347200
   9980   9982   9989     1   110.1900474 564.840000
   9980   9979   9990     1   111.5100476 526.347200
   9980   9979   9997     1   107.9700462 569.024000
   9982   9983   9984     1   111.5100476 526.347200
   9982   9983  10002     1   111.0400475 552.288000
   9982   9980  10000     1   110.1900474 564.840000
   9983   9984   9988     1   110.1900474 564.840000
   9983   9984   9997     1   107.9700462 569.024000
   9983   9982   9989     1   110.1900474 564.840000
   9984   9983  10002     1   111.0400475 552.288000
   9988   9984   9997     1   109.3800466 607.516800
   9990   9979   9997     1   107.9700462 569.024000
  10003  10005  10007     1   111.6100477 551.451200
  10005  10007  10011     1   111.0400475 552.288000
  10007  10011  10012     1   112.3500484 533.878400
  10007  10011  10013     1   112.3500484 533.878400
  10011  10012  10023     1   111.0400475 552.288000
  10011  10013  10015     1   111.0400475 552.288000
  10012  10011  10013     1   112.3500484 533.878400
  10012  10023  10026     1   111.0400475 529.694400
  10013  10015  10019     1   111.0400475 529.694400
  10015  10019  10020     1   123.2000528 564.003200
  10015  10019  10051     1   112.2600482 538.062400
  10019  10051  10032     1   118.5150508 540.957728
  10020  10019  10051     1   118.8300510 581.576000
  10023  10026  10027     1   123.2000528 564.003200
  10023  10026  10075     1   112.2600482 538.062400
  10026  10075  10056     1   118.5150508 540.957728
  10027  10026  10075     1   118.8300510 581.576000
  10028  10029  10031     1   111.5100476 526.347200
  10028  10029  10049     1   110.1900474 564.840000
  10028  10039  10044     1   110.1900474 564.840000
  10028  10046  10033     1   112.4800480 524.673600
  10029  10028  10039     1   111.5100476 526.347200
  10029  10028  10046     1   107.9700462 569.024000
  10029  10031  10032     1   111.5100476 526.347200
  10029  10031  10038     1   110.1900474 564.840000
  10031  10029  10049     1   110.1900474 564.840000
  10031  10032  10033     1   111.5100476 526.347200
  10031  10032  10051     1   111.0400475 552.288000
  10032  10031  10038     1   110.1900474 564.840000
  10032  10033  10037     1   110.1900474 564.840000
  10032  10033  10046     1   107.9700462 569.024000
  10033  10032  10051     1   111.0400475 552.288000
  10037  10033  10046     1   109.3800466 607.516800
  10039  10028  10046     1   107.9700462 569.024000
  10052  10053  10055     1   111.5100476 526.347200
  10052  10053  10073     1   110.1900474 564.840000
  10052  10063  10068     1   110.1900474 564.840000
  10052  10070  10057     1   112.4800480 524.673600
  10053  10052  10063     1   111.5100476 526.347200
  10053  10052  10070     1   107.9700462 569.024000
  10053  10055  10056     1   111.5100476 526.347200
  10053  10055  10062     1   110.1900474 564.840000
  10055  10053  10073     1   110.1900474 564.840000
  10055  10056  10057     1   111.5100476 526.347200
  10055  10056  10075     1   111.0400475 552.288000
  10056  10055  10062     1   110.1900474 564.840000
  10056  10057  10061     1   110.1900474 564.840000
  10056  10057  10070     1   107.9700462 569.024000
  10057  10056  10075     1   111.0400475 552.288000
  10061  10057  10070     1   109.3800466 607.516800
  10063  10052  10070     1   107.9700462 569.024000
  10076  10078  10080     1   111.6100477 551.451200
  10078  10080  10084     1   111.0400475 552.288000
  10080  10084  10085     1   112.3500484 533.878400
  10080  10084  10086     1   112.3500484 533.878400
  10084  10085  10096     1   111.0400475 552.288000
  10084  10086  10088     1   111.0400475 552.288000
  10085  10096  10099     1   111.0400475 529.694400
  10085  10084  10086     1   112.3500484 533.878400
  10086  10088  10092     1   111.0400475 529.694400
  10088  10092  10093     1   123.2000528 564.003200
  10088  10092  10124     1   112.2600482 538.062400
  10092  10124  10105     1   118.5150508 540.957728
  10093  10092  10124     1   118.8300510 581.576000
  10096  10099  10100     1   123.2000528 564.003200
  10096  10099  10148     1   112.2600482 538.062400
  10099  10148  10129     1   118.5150508 540.957728
  10100  10099  10148     1   118.8300510 581.576000
  10101  10102  10104     1   111.5100476 526.347200
  10101  10102  10122     1   110.1900474 564.840000
  10101  10112  10117     1   110.1900474 564.840000
  10101  10119  10106     1   112.4800480 524.673600
  10102  10104  10105     1   111.5100476 526.347200
  10102  10104  10111     1   110.1900474 564.840000
  10102  10101  10112     1   111.5100476 526.347200
  10102  10101  10119     1   107.9700462 569.024000
  10104  10105  10106     1   111.5100476 526.347200
  10104  10105  10124     1   111.0400475 552.288000
  10104  10102  10122     1   110.1900474 564.840000
  10105  10106  10110     1   110.1900474 564.840000
  10105  10106  10119     1   107.9700462 569.024000
  10105  10104  10111     1   110.1900474 564.840000
  10106  10105  10124     1   111.0400475 552.288000
  10110  10106  10119     1   109.3800466 607.516800
  10112  10101  10119     1   107.9700462 569.024000
  10125  10126  10128     1   111.5100476 526.347200
  10125  10126  10146     1   110.1900474 564.840000
  10125  10136  10141     1   110.1900474 564.840000
  10125  10143  10130     1   112.4800480 524.673600
  10126  10128  10129     1   111.5100476 526.347200
  10126  10128  10135     1   110.1900474 564.840000
  10126  10125  10136     1   111.5100476 526.347200
  10126  10125  10143     1   107.9700462 569.024000
  10128  10129  10130     1   111.5100476 526.347200
  10128  10129  10148     1   111.0400475 552.288000
  10128  10126  10146     1   110.1900474 564.840000
  10129  10130  10134     1   110.1900474 564.840000
  10129  10130  10143     1   107.9700462 569.024000
  10129  10128  10135     1   110.1900474 564.840000
  10130  10129  10148     1   111.0400475 552.288000
  10134  10130  10143     1   109.3800466 607.516800
  10136  10125  10143     1   107.9700462 569.024000
  10149  10151  10153     1   111.6100477 551.451200
  10151  10153  10157     1   111.0400475 552.288000
  10153  10157  10158     1   112.3500484 533.878400
  10153  10157  10159     1   112.3500484 533.878400
  10157  10158  10169     1   111.0400475 552.288000
  10157  10159  10161     1   111.0400475 552.288000
  10158  10157  10159     1   112.3500484 533.878400
  10158  10169  10172     1   111.0400475 529.694400
  10159  10161  10165     1   111.0400475 529.694400
  10161  10165  10166     1   123.2000528 564.003200
  10161  10165  10197     1   112.2600482 538.062400
  10165  10197  10178     1   118.5150508 540.957728
  10166  10165  10197     1   118.8300510 581.576000
  10169  10172  10173     1   123.2000528 564.003200
  10169  10172  10221     1   112.2600482 538.062400
  10172  10221  10202     1   118.5150508 540.957728
  10173  10172  10221     1   118.8300510 581.576000
  10174  10175  10177     1   111.5100476 526.347200
  10174  10175  10195     1   110.1900474 564.840000
  10174  10185  10190     1   110.1900474 564.840000
  10174  10192  10179     1   112.4800480 524.673600
  10175  10174  10185     1   111.5100476 526.347200
  10175  10174  10192     1   107.9700462 569.024000
  10175  10177  10178     1   111.5100476 526.347200
  10175  10177  10184     1   110.1900474 564.840000
  10177  10175  10195     1   110.1900474 564.840000
  10177  10178  10179     1   111.5100476 526.347200
  10177  10178  10197     1   111.0400475 552.288000
  10178  10177  10184     1   110.1900474 564.840000
  10178  10179  10183     1   110.1900474 564.840000
  10178  10179  10192     1   107.9700462 569.024000
  10179  10178  10197     1   111.0400475 552.288000
  10183  10179  10192     1   109.3800466 607.516800
  10185  10174  10192     1   107.9700462 569.024000
  10198  10199  10201     1   111.5100476 526.347200
  10198  10199  10219     1   110.1900474 564.840000
  10198  10209  10214     1   110.1900474 564.840000
  10198  10216  10203     1   112.4800480 524.673600
  10199  10198  10209     1   111.5100476 526.347200
  10199  10198  10216     1   107.9700462 569.024000
  10199  10201  10202     1   111.5100476 526.347200
  10199  10201  10208     1   110.1900474 564.840000
  10201  10199  10219     1   110.1900474 564.840000
  10201  10202  10203     1   111.5100476 526.347200
  10201  10202  10221     1   111.0400475 552.288000
  10202  10201  10208     1   110.1900474 564.840000
  10202  10203  10207     1   110.1900474 564.840000
  10202  10203  10216     1   107.9700462 569.024000
  10203  10202  10221     1   111.0400475 552.288000
  10207  10203  10216     1   109.3800466 607.516800
  10209  10198  10216     1   107.9700462 569.024000
  10222  10224  10226     1   111.6100477 551.451200
  10224  10226  10230     1   111.0400475 552.288000
  10226  10230  10231     1   112.3500484 533.878400
  10226  10230  10232     1   112.3500484 533.878400
  10230  10231  10242     1   111.0400475 552.288000
  10230  10232  10234     1   111.0400475 552.288000
  10231  10242  10245     1   111.0400475 529.694400
  10231  10230  10232     1   112.3500484 533.878400
  10232  10234  10238     1   111.0400475 529.694400
  10234  10238  10239     1   123.2000528 564.003200
  10234  10238  10270     1   112.2600482 538.062400
  10238  10270  10251     1   118.5150508 540.957728
  10239  10238  10270     1   118.8300510 581.576000
  10242  10245  10246     1   123.2000528 564.003200
  10242  10245  10294     1   112.2600482 538.062400
  10245  10294  10275     1   118.5150508 540.957728
  10246  10245  10294     1   118.8300510 581.576000
  10247  10248  10250     1   111.5100476 526.347200
  10247  10248  10268     1   110.1900474 564.840000
  10247  10258  10263     1   110.1900474 564.840000
  10247  10265  10252     1   112.4800480 524.673600
  10248  10250  10251     1   111.5100476 526.347200
  10248  10250  10257     1   110.1900474 564.840000
  10248  10247  10258     1   111.5100476 526.347200
  10248  10247  10265     1   107.9700462 569.024000
  10250  10251  10252     1   111.5100476 526.347200
  10250  10251  10270     1   111.0400475 552.288000
  10250  10248  10268     1   110.1900474 564.840000
  10251  10252  10256     1   110.1900474 564.840000
  10251  10252  10265     1   107.9700462 569.024000
  10251  10250  10257     1   110.1900474 564.840000
  10252  10251  10270     1   111.0400475 552.288000
  10256  10252  10265     1   109.3800466 607.516800
  10258  10247  10265     1   107.9700462 569.024000
  10271  10272  10274     1   111.5100476 526.347200
  10271  10272  10292     1   110.1900474 564.840000
  10271  10282  10287     1   110.1900474 564.840000
  10271  10289  10276     1   112.4800480 524.673600
  10272  10274  10275     1   111.5100476 526.347200
  10272  10274  10281     1   110.1900474 564.840000
  10272  10271  10282     1   111.5100476 526.347200
  10272  10271  10289     1   107.9700462 569.024000
  10274  10275  10276     1   111.5100476 526.347200
  10274  10275  10294     1   111.0400475 552.288000
  10274  10272  10292     1   110.1900474 564.840000
  10275  10276  10280     1   110.1900474 564.840000
  10275  10276  10289     1   107.9700462 569.024000
  10275  10274  10281     1   110.1900474 564.840000
  10276  10275  10294     1   111.0400475 552.288000
  10280  10276  10289     1   109.3800466 607.516800
  10282  10271  10289     1   107.9700462 569.024000
  10295  10297  10299     1   111.6100477 551.451200
  10297  10299  10303     1   111.0400475 552.288000
  10299  10303  10304     1   112.3500484 533.878400
  10299  10303  10305     1   112.3500484 533.878400
  10303  10304  10315     1   111.0400475 552.288000
  10303  10305  10307     1   111.0400475 552.288000
  10304  10303  10305     1   112.3500484 533.878400
  10304  10315  10318     1   111.0400475 529.694400
  10305  10307  10311     1   111.0400475 529.694400
  10307  10311  10312     1   123.2000528 564.003200
  10307  10311  10343     1   112.2600482 538.062400
  10311  10343  10324     1   118.5150508 540.957728
  10312  10311  10343     1   118.8300510 581.576000
  10315  10318  10319     1   123.2000528 564.003200
  10315  10318  10367     1   112.2600482 538.062400
  10318  10367  10348     1   118.5150508 540.957728
  10319  10318  10367     1   118.8300510 581.576000
  10320  10321  10323     1   111.5100476 526.347200
  10320  10321  10341     1   110.1900474 564.840000
  10320  10331  10336     1   110.1900474 564.840000
  10320  10338  10325     1   112.4800480 524.673600
  10321  10320  10331     1   111.5100476 526.347200
  10321  10320  10338     1   107.9700462 569.024000
  10321  10323  10324     1   111.5100476 526.347200
  10321  10323  10330     1   110.1900474 564.840000
  10323  10321  10341     1   110.1900474 564.840000
  10323  10324  10325     1   111.5100476 526.347200
  10323  10324  10343     1   111.0400475 552.288000
  10324  10323  10330     1   110.1900474 564.840000
  10324  10325  10329     1   110.1900474 564.840000
  10324  10325  10338     1   107.9700462 569.024000
  10325  10324  10343     1   111.0400475 552.288000
  10329  10325  10338     1   109.3800466 607.516800
  10331  10320  10338     1   107.9700462 569.024000
  10344  10345  10347     1   111.5100476 526.347200
  10344  10345  10365     1   110.1900474 564.840000
  10344  10355  10360     1   110.1900474 564.840000
  10344  10362  10349     1   112.4800480 524.673600
  10345  10344  10355     1   111.5100476 526.347200
  10345  10344  10362     1   107.9700462 569.024000
  10345  10347  10348     1   111.5100476 526.347200
  10345  10347  10354     1   110.1900474 564.840000
  10347  10345  10365     1   110.1900474 564.840000
  10347  10348  10349     1   111.5100476 526.347200
  10347  10348  10367     1   111.0400475 552.288000
  10348  10347  10354     1   110.1900474 564.840000
  10348  10349  10353     1   110.1900474 564.840000
  10348  10349  10362     1   107.9700462 569.024000
  10349  10348  10367     1   111.0400475 552.288000
  10353  10349  10362     1   109.3800466 607.516800
  10355  10344  10362     1   107.9700462 569.024000
  10368  10370  10372     1   111.6100477 551.451200
  10370  10372  10376     1   111.0400475 552.288000
  10372  10376  10377     1   112.3500484 533.878400
  10372  10376  10378     1   112.3500484 533.878400
  10376  10377  10388     1   111.0400475 552.288000
  10376  10378  10380     1   111.0400475 552.288000
  10377  10388  10391     1   111.0400475 529.694400
  10377  10376  10378     1   112.3500484 533.878400
  10378  10380  10384     1   111.0400475 529.694400
  10380  10384  10385     1   123.2000528 564.003200
  10380  10384  10416     1   112.2600482 538.062400
  10384  10416  10397     1   118.5150508 540.957728
  10385  10384  10416     1   118.8300510 581.576000
  10388  10391  10392     1   123.2000528 564.003200
  10388  10391  10440     1   112.2600482 538.062400
  10391  10440  10421     1   118.5150508 540.957728
  10392  10391  10440     1   118.8300510 581.576000
  10393  10394  10396     1   111.5100476 526.347200
  10393  10394  10414     1   110.1900474 564.840000
  10393  10404  10409     1   110.1900474 564.840000
  10393  10411  10398     1   112.4800480 524.673600
  10394  10396  10397     1   111.5100476 526.347200
  10394  10396  10403     1   110.1900474 564.840000
  10394  10393  10404     1   111.5100476 526.347200
  10394  10393  10411     1   107.9700462 569.024000
  10396  10397  10398     1   111.5100476 526.347200
  10396  10397  10416     1   111.0400475 552.288000
  10396  10394  10414     1   110.1900474 564.840000
  10397  10398  10402     1   110.1900474 564.840000
  10397  10398  10411     1   107.9700462 569.024000
  10397  10396  10403     1   110.1900474 564.840000
  10398  10397  10416     1   111.0400475 552.288000
  10402  10398  10411     1   109.3800466 607.516800
  10404  10393  10411     1   107.9700462 569.024000
  10417  10418  10420     1   111.5100476 526.347200
  10417  10418  10438     1   110.1900474 564.840000
  10417  10428  10433     1   110.1900474 564.840000
  10417  10435  10422     1   112.4800480 524.673600
  10418  10420  10421     1   111.5100476 526.347200
  10418  10420  10427     1   110.1900474 564.840000
  10418  10417  10428     1   111.5100476 526.347200
  10418  10417  10435     1   107.9700462 569.024000
  10420  10421  10422     1   111.5100476 526.347200
  10420  10421  10440     1   111.0400475 552.288000
  10420  10418  10438     1   110.1900474 564.840000
  10421  10422  10426     1   110.1900474 564.840000
  10421  10422  10435     1   107.9700462 569.024000
  10421  10420  10427     1   110.1900474 564.840000
  10422  10421  10440     1   111.0400475 552.288000
  10426  10422  10435     1   109.3800466 607.516800
  10428  10417  10435     1   107.9700462 569.024000
  10441  10443  10445     1   111.6100477 551.451200
  10443  10445  10449     1   111.0400475 552.288000
  10445  10449  10450     1   112.3500484 533.878400
  10445  10449  10451     1   112.3500484 533.878400
  10449  10450  10461     1   111.0400475 552.288000
  10449  10451  10453     1   111.0400475 552.288000
  10450  10449  10451     1   112.3500484 533.878400
  10450  10461  10464     1   111.0400475 529.694400
  10451  10453  10457     1   111.0400475 529.694400
  10453  10457  10458     1   123.2000528 564.003200
  10453  10457  10489     1   112.2600482 538.062400
  10457  10489  10470     1   118.5150508 540.957728
  10458  10457  10489     1   118.8300510 581.576000
  10461  10464  10465     1   123.2000528 564.003200
  10461  10464  10513     1   112.2600482 538.062400
  10464  10513  10494     1   118.5150508 540.957728
  10465  10464  10513     1   118.8300510 581.576000
  10466  10467  10469     1   111.5100476 526.347200
  10466  10467  10487     1   110.1900474 564.840000
  10466  10477  10482     1   110.1900474 564.840000
  10466  10484  10471     1   112.4800480 524.673600
  10467  10466  10477     1   111.5100476 526.347200
  10467  10466  10484     1   107.9700462 569.024000
  10467  10469  10470     1   111.5100476 526.347200
  10467  10469  10476     1   110.1900474 564.840000
  10469  10467  10487     1   110.1900474 564.840000
  10469  10470  10471     1   111.5100476 526.347200
  10469  10470  10489     1   111.0400475 552.288000
  10470  10469  10476     1   110.1900474 564.840000
  10470  10471  10475     1   110.1900474 564.840000
  10470  10471  10484     1   107.9700462 569.024000
  10471  10470  10489     1   111.0400475 552.288000
  10475  10471  10484     1   109.3800466 607.516800
  10477  10466  10484     1   107.9700462 569.024000
  10490  10491  10493     1   111.5100476 526.347200
  10490  10491  10511     1   110.1900474 564.840000
  10490  10501  10506     1   110.1900474 564.840000
  10490  10508  10495     1   112.4800480 524.673600
  10491  10490  10501     1   111.5100476 526.347200
  10491  10490  10508     1   107.9700462 569.024000
  10491  10493  10494     1   111.5100476 526.347200
  10491  10493  10500     1   110.1900474 564.840000
  10493  10491  10511     1   110.1900474 564.840000
  10493  10494  10495     1   111.5100476 526.347200
  10493  10494  10513     1   111.0400475 552.288000
  10494  10493  10500     1   110.1900474 564.840000
  10494  10495  10499     1   110.1900474 564.840000
  10494  10495  10508     1   107.9700462 569.024000
  10495  10494  10513     1   111.0400475 552.288000
  10499  10495  10508     1   109.3800466 607.516800
  10501  10490  10508     1   107.9700462 569.024000
  10514  10516  10518     1   111.6100477 551.451200
  10516  10518  10522     1   111.0400475 552.288000
  10518  10522  10523     1   112.3500484 533.878400
  10518  10522  10524     1   112.3500484 533.878400
  10522  10523  10534     1   111.0400475 552.288000
  10522  10524  10526     1   111.0400475 552.288000
  10523  10534  10537     1   111.0400475 529.694400
  10523  10522  10524     1   112.3500484 533.878400
  10524  10526  10530     1   111.0400475 529.694400
  10526  10530  10531     1   123.2000528 564.003200
  10526  10530  10562     1   112.2600482 538.062400
  10530  10562  10543     1   118.5150508 540.957728
  10531  10530  10562     1   118.8300510 581.576000
  10534  10537  10538     1   123.2000528 564.003200
  10534  10537  10586     1   112.2600482 538.062400
  10537  10586  10567     1   118.5150508 540.957728
  10538  10537  10586     1   118.8300510 581.576000
  10539  10540  10542     1   111.5100476 526.347200
  10539  10540  10560     1   110.1900474 564.840000
  10539  10550  10555     1   110.1900474 564.840000
  10539  10557  10544     1   112.4800480 524.673600
  10540  10542  10543     1   111.5100476 526.347200
  10540  10542  10549     1   110.1900474 564.840000
  10540  10539  10550     1   111.5100476 526.347200
  10540  10539  10557     1   107.9700462 569.024000
  10542  10543  10544     1   111.5100476 526.347200
  10542  10543  10562     1   111.0400475 552.288000
  10542  10540  10560     1   110.1900474 564.840000
  10543  10544  10548     1   110.1900474 564.840000
  10543  10544  10557     1   107.9700462 569.024000
  10543  10542  10549     1   110.1900474 564.840000
  10544  10543  10562     1   111.0400475 552.288000
  10548  10544  10557     1   109.3800466 607.516800
  10550  10539  10557     1   107.9700462 569.024000
  10563  10564  10566     1   111.5100476 526.347200
  10563  10564  10584     1   110.1900474 564.840000
  10563  10574  10579     1   110.1900474 564.840000
  10563  10581  10568     1   112.4800480 524.673600
  10564  10566  10567     1   111.5100476 526.347200
  10564  10566  10573     1   110.1900474 564.840000
  10564  10563  10574     1   111.5100476 526.347200
  10564  10563  10581     1   107.9700462 569.024000
  10566  10567  10568     1   111.5100476 526.347200
  10566  10567  10586     1   111.0400475 552.288000
  10566  10564  10584     1   110.1900474 564.840000
  10567  10568  10572     1   110.1900474 564.840000
  10567  10568  10581     1   107.9700462 569.024000
  10567  10566  10573     1   110.1900474 564.840000
  10568  10567  10586     1   111.0400475 552.288000
  10572  10568  10581     1   109.3800466 607.516800
  10574  10563  10581     1   107.9700462 569.024000
  10587  10589  10591     1   111.6100477 551.451200
  10589  10591  10595     1   111.0400475 552.288000
  10591  10595  10596     1   112.3500484 533.878400
  10591  10595  10597     1   112.3500484 533.878400
  10595  10596  10607     1   111.0400475 552.288000
  10595  10597  10599     1   111.0400475 552.288000
  10596  10595  10597     1   112.3500484 533.878400
  10596  10607  10610     1   111.0400475 529.694400
  10597  10599  10603     1   111.0400475 529.694400
  10599  10603  10604     1   123.2000528 564.003200
  10599  10603  10635     1   112.2600482 538.062400
  10603  10635  10616     1   118.5150508 540.957728
  10604  10603  10635     1   118.8300510 581.576000
  10607  10610  10611     1   123.2000528 564.003200
  10607  10610  10659     1   112.2600482 538.062400
  10610  10659  10640     1   118.5150508 540.957728
  10611  10610  10659     1   118.8300510 581.576000
  10612  10613  10615     1   111.5100476 526.347200
  10612  10613  10633     1   110.1900474 564.840000
  10612  10623  10628     1   110.1900474 564.840000
  10612  10630  10617     1   112.4800480 524.673600
  10613  10612  10623     1   111.5100476 526.347200
  10613  10612  10630     1   107.9700462 569.024000
  10613  10615  10616     1   111.5100476 526.347200
  10613  10615  10622     1   110.1900474 564.840000
  10615  10613  10633     1   110.1900474 564.840000
  10615  10616  10617     1   111.5100476 526.347200
  10615  10616  10635     1   111.0400475 552.288000
  10616  10615  10622     1   110.1900474 564.840000
  10616  10617  10621     1   110.1900474 564.840000
  10616  10617  10630     1   107.9700462 569.024000
  10617  10616  10635     1   111.0400475 552.288000
  10621  10617  10630     1   109.3800466 607.516800
  10623  10612  10630     1   107.9700462 569.024000
  10636  10637  10639     1   111.5100476 526.347200
  10636  10637  10657     1   110.1900474 564.840000
  10636  10647  10652     1   110.1900474 564.840000
  10636  10654  10641     1   112.4800480 524.673600
  10637  10636  10647     1   111.5100476 526.347200
  10637  10636  10654     1   107.9700462 569.024000
  10637  10639  10640     1   111.5100476 526.347200
  10637  10639  10646     1   110.1900474 564.840000
  10639  10637  10657     1   110.1900474 564.840000
  10639  10640  10641     1   111.5100476 526.347200
  10639  10640  10659     1   111.0400475 552.288000
  10640  10639  10646     1   110.1900474 564.840000
  10640  10641  10645     1   110.1900474 564.840000
  10640  10641  10654     1   107.9700462 569.024000
  10641  10640  10659     1   111.0400475 552.288000
  10645  10641  10654     1   109.3800466 607.516800
  10647  10636  10654     1   107.9700462 569.024000
  10660  10662  10664     1   111.6100477 551.451200
  10662  10664  10668     1   111.0400475 552.288000
  10664  10668  10669     1   112.3500484 533.878400
  10664  10668  10670     1   112.3500484 533.878400
  10668  10669  10680     1   111.0400475 552.288000
  10668  10670  10672     1   111.0400475 552.288000
  10669  10680  10683     1   111.0400475 529.694400
  10669  10668  10670     1   112.3500484 533.878400
  10670  10672  10676     1   111.0400475 529.694400
  10672  10676  10677     1   123.2000528 564.003200
  10672  10676  10708     1   112.2600482 538.062400
  10676  10708  10689     1   118.5150508 540.957728
  10677  10676  10708     1   118.8300510 581.576000
  10680  10683  10684     1   123.2000528 564.003200
  10680  10683  10732     1   112.2600482 538.062400
  10683  10732  10713     1   118.5150508 540.957728
  10684  10683  10732     1   118.8300510 581.576000
  10685  10686  10688     1   111.5100476 526.347200
  10685  10686  10706     1   110.1900474 564.840000
  10685  10696  10701     1   110.1900474 564.840000
  10685  10703  10690     1   112.4800480 524.673600
  10686  10688  10689     1   111.5100476 526.347200
  10686  10688  10695     1   110.1900474 564.840000
  10686  10685  10696     1   111.5100476 526.347200
  10686  10685  10703     1   107.9700462 569.024000
  10688  10689  10690     1   111.5100476 526.347200
  10688  10689  10708     1   111.0400475 552.288000
  10688  10686  10706     1   110.1900474 564.840000
  10689  10690  10694     1   110.1900474 564.840000
  10689  10690  10703     1   107.9700462 569.024000
  10689  10688  10695     1   110.1900474 564.840000
  10690  10689  10708     1   111.0400475 552.288000
  10694  10690  10703     1   109.3800466 607.516800
  10696  10685  10703     1   107.9700462 569.024000
  10709  10710  10712     1   111.5100476 526.347200
  10709  10710  10730     1   110.1900474 564.840000
  10709  10720  10725     1   110.1900474 564.840000
  10709  10727  10714     1   112.4800480 524.673600
  10710  10712  10713     1   111.5100476 526.347200
  10710  10712  10719     1   110.1900474 564.840000
  10710  10709  10720     1   111.5100476 526.347200
  10710  10709  10727     1   107.9700462 569.024000
  10712  10713  10714     1   111.5100476 526.347200
  10712  10713  10732     1   111.0400475 552.288000
  10712  10710  10730     1   110.1900474 564.840000
  10713  10714  10718     1   110.1900474 564.840000
  10713  10714  10727     1   107.9700462 569.024000
  10713  10712  10719     1   110.1900474 564.840000
  10714  10713  10732     1   111.0400475 552.288000
  10718  10714  10727     1   109.3800466 607.516800
  10720  10709  10727     1   107.9700462 569.024000
  10733  10735  10737     1   111.6100477 551.451200
  10735  10737  10741     1   111.0400475 552.288000
  10737  10741  10742     1   112.3500484 533.878400
  10737  10741  10743     1   112.3500484 533.878400
  10741  10742  10753     1   111.0400475 552.288000
  10741  10743  10745     1   111.0400475 552.288000
  10742  10741  10743     1   112.3500484 533.878400
  10742  10753  10756     1   111.0400475 529.694400
  10743  10745  10749     1   111.0400475 529.694400
  10745  10749  10750     1   123.2000528 564.003200
  10745  10749  10781     1   112.2600482 538.062400
  10749  10781  10762     1   118.5150508 540.957728
  10750  10749  10781     1   118.8300510 581.576000
  10753  10756  10757     1   123.2000528 564.003200
  10753  10756  10805     1   112.2600482 538.062400
  10756  10805  10786     1   118.5150508 540.957728
  10757  10756  10805     1   118.8300510 581.576000
  10758  10759  10761     1   111.5100476 526.347200
  10758  10759  10779     1   110.1900474 564.840000
  10758  10769  10774     1   110.1900474 564.840000
  10758  10776  10763     1   112.4800480 524.673600
  10759  10758  10769     1   111.5100476 526.347200
  10759  10758  10776     1   107.9700462 569.024000
  10759  10761  10762     1   111.5100476 526.347200
  10759  10761  10768     1   110.1900474 564.840000
  10761  10759  10779     1   110.1900474 564.840000
  10761  10762  10763     1   111.5100476 526.347200
  10761  10762  10781     1   111.0400475 552.288000
  10762  10761  10768     1   110.1900474 564.840000
  10762  10763  10767     1   110.1900474 564.840000
  10762  10763  10776     1   107.9700462 569.024000
  10763  10762  10781     1   111.0400475 552.288000
  10767  10763  10776     1   109.3800466 607.516800
  10769  10758  10776     1   107.9700462 569.024000
  10782  10783  10785     1   111.5100476 526.347200
  10782  10783  10803     1   110.1900474 564.840000
  10782  10793  10798     1   110.1900474 564.840000
  10782  10800  10787     1   112.4800480 524.673600
  10783  10782  10793     1   111.5100476 526.347200
  10783  10782  10800     1   107.9700462 569.024000
  10783  10785  10786     1   111.5100476 526.347200
  10783  10785  10792     1   110.1900474 564.840000
  10785  10783  10803     1   110.1900474 564.840000
  10785  10786  10787     1   111.5100476 526.347200
  10785  10786  10805     1   111.0400475 552.288000
  10786  10785  10792     1   110.1900474 564.840000
  10786  10787  10791     1   110.1900474 564.840000
  10786  10787  10800     1   107.9700462 569.024000
  10787  10786  10805     1   111.0400475 552.288000
  10791  10787  10800     1   109.3800466 607.516800
  10793  10782  10800     1   107.9700462 569.024000
  10806  10808  10810     1   111.6100477 551.451200
  10808  10810  10814     1   111.0400475 552.288000
  10810  10814  10815     1   112.3500484 533.878400
  10810  10814  10816     1   112.3500484 533.878400
  10814  10815  10826     1   111.0400475 552.288000
  10814  10816  10818     1   111.0400475 552.288000
  10815  10826  10829     1   111.0400475 529.694400
  10815  10814  10816     1   112.3500484 533.878400
  10816  10818  10822     1   111.0400475 529.694400
  10818  10822  10823     1   123.2000528 564.003200
  10818  10822  10854     1   112.2600482 538.062400
  10822  10854  10835     1   118.5150508 540.957728
  10823  10822  10854     1   118.8300510 581.576000
  10826  10829  10830     1   123.2000528 564.003200
  10826  10829  10878     1   112.2600482 538.062400
  10829  10878  10859     1   118.5150508 540.957728
  10830  10829  10878     1   118.8300510 581.576000
  10831  10832  10834     1   111.5100476 526.347200
  10831  10832  10852     1   110.1900474 564.840000
  10831  10842  10847     1   110.1900474 564.840000
  10831  10849  10836     1   112.4800480 524.673600
  10832  10834  10835     1   111.5100476 526.347200
  10832  10834  10841     1   110.1900474 564.840000
  10832  10831  10842     1   111.5100476 526.347200
  10832  10831  10849     1   107.9700462 569.024000
  10834  10835  10836     1   111.5100476 526.347200
  10834  10835  10854     1   111.0400475 552.288000
  10834  10832  10852     1   110.1900474 564.840000
  10835  10836  10840     1   110.1900474 564.840000
  10835  10836  10849     1   107.9700462 569.024000
  10835  10834  10841     1   110.1900474 564.840000
  10836  10835  10854     1   111.0400475 552.288000
  10840  10836  10849     1   109.3800466 607.516800
  10842  10831  10849     1   107.9700462 569.024000
  10855  10856  10858     1   111.5100476 526.347200
  10855  10856  10876     1   110.1900474 564.840000
  10855  10866  10871     1   110.1900474 564.840000
  10855  10873  10860     1   112.4800480 524.673600
  10856  10858  10859     1   111.5100476 526.347200
  10856  10858  10865     1   110.1900474 564.840000
  10856  10855  10866     1   111.5100476 526.347200
  10856  10855  10873     1   107.9700462 569.024000
  10858  10859  10860     1   111.5100476 526.347200
  10858  10859  10878     1   111.0400475 552.288000
  10858  10856  10876     1   110.1900474 564.840000
  10859  10860  10864     1   110.1900474 564.840000
  10859  10860  10873     1   107.9700462 569.024000
  10859  10858  10865     1   110.1900474 564.840000
  10860  10859  10878     1   111.0400475 552.288000
  10864  10860  10873     1   109.3800466 607.516800
  10866  10855  10873     1   107.9700462 569.024000
  10879  10881  10883     1   111.6100477 551.451200
  10881  10883  10887     1   111.0400475 552.288000
  10883  10887  10888     1   112.3500484 533.878400
  10883  10887  10889     1   112.3500484 533.878400
  10887  10888  10899     1   111.0400475 552.288000
  10887  10889  10891     1   111.0400475 552.288000
  10888  10887  10889     1   112.3500484 533.878400
  10888  10899  10902     1   111.0400475 529.694400
  10889  10891  10895     1   111.0400475 529.694400
  10891  10895  10896     1   123.2000528 564.003200
  10891  10895  10927     1   112.2600482 538.062400
  10895  10927  10908     1   118.5150508 540.957728
  10896  10895  10927     1   118.8300510 581.576000
  10899  10902  10903     1   123.2000528 564.003200
  10899  10902  10951     1   112.2600482 538.062400
  10902  10951  10932     1   118.5150508 540.957728
  10903  10902  10951     1   118.8300510 581.576000
  10904  10905  10907     1   111.5100476 526.347200
  10904  10905  10925     1   110.1900474 564.840000
  10904  10915  10920     1   110.1900474 564.840000
  10904  10922  10909     1   112.4800480 524.673600
  10905  10904  10915     1   111.5100476 526.347200
  10905  10904  10922     1   107.9700462 569.024000
  10905  10907  10908     1   111.5100476 526.347200
  10905  10907  10914     1   110.1900474 564.840000
  10907  10905  10925     1   110.1900474 564.840000
  10907  10908  10909     1   111.5100476 526.347200
  10907  10908  10927     1   111.0400475 552.288000
  10908  10907  10914     1   110.1900474 564.840000
  10908  10909  10913     1   110.1900474 564.840000
  10908  10909  10922     1   107.9700462 569.024000
  10909  10908  10927     1   111.0400475 552.288000
  10913  10909  10922     1   109.3800466 607.516800
  10915  10904  10922     1   107.9700462 569.024000
  10928  10929  10931     1   111.5100476 526.347200
  10928  10929  10949     1   110.1900474 564.840000
  10928  10939  10944     1   110.1900474 564.840000
  10928  10946  10933     1   112.4800480 524.673600
  10929  10928  10939     1   111.5100476 526.347200
  10929  10928  10946     1   107.9700462 569.024000
  10929  10931  10932     1   111.5100476 526.347200
  10929  10931  10938     1   110.1900474 564.840000
  10931  10929  10949     1   110.1900474 564.840000
  10931  10932  10933     1   111.5100476 526.347200
  10931  10932  10951     1   111.0400475 552.288000
  10932  10931  10938     1   110.1900474 564.840000
  10932  10933  10937     1   110.1900474 564.840000
  10932  10933  10946     1   107.9700462 569.024000
  10933  10932  10951     1   111.0400475 552.288000
  10937  10933  10946     1   109.3800466 607.516800
  10939  10928  10946     1   107.9700462 569.024000
  10952  10954  10956     1   111.6100477 551.451200
  10954  10956  10960     1   111.0400475 552.288000
  10956  10960  10961     1   112.3500484 533.878400
  10956  10960  10962     1   112.3500484 533.878400
  10960  10961  10972     1   111.0400475 552.288000
  10960  10962  10964     1   111.0400475 552.288000
  10961  10972  10975     1   111.0400475 529.694400
  10961  10960  10962     1   112.3500484 533.878400
  10962  10964  10968     1   111.0400475 529.694400
  10964  10968  10969     1   123.2000528 564.003200
  10964  10968  11000     1   112.2600482 538.062400
  10968  11000  10981     1   118.5150508 540.957728
  10969  10968  11000     1   118.8300510 581.576000
  10972  10975  10976     1   123.2000528 564.003200
  10972  10975  11024     1   112.2600482 538.062400
  10975  11024  11005     1   118.5150508 540.957728
  10976  10975  11024     1   118.8300510 581.576000
  10977  10978  10980     1   111.5100476 526.347200
  10977  10978  10998     1   110.1900474 564.840000
  10977  10988  10993     1   110.1900474 564.840000
  10977  10995  10982     1   112.4800480 524.673600
  10978  10980  10981     1   111.5100476 526.347200
  10978  10980  10987     1   110.1900474 564.840000
  10978  10977  10988     1   111.5100476 526.347200
  10978  10977  10995     1   107.9700462 569.024000
  10980  10981  10982     1   111.5100476 526.347200
  10980  10981  11000     1   111.0400475 552.288000
  10980  10978  10998     1   110.1900474 564.840000
  10981  10982  10986     1   110.1900474 564.840000
  10981  10982  10995     1   107.9700462 569.024000
  10981  10980  10987     1   110.1900474 564.840000
  10982  10981  11000     1   111.0400475 552.288000
  10986  10982  10995     1   109.3800466 607.516800
  10988  10977  10995     1   107.9700462 569.024000
  11001  11002  11004     1   111.5100476 526.347200
  11001  11002  11022     1   110.1900474 564.840000
  11001  11012  11017     1   110.1900474 564.840000
  11001  11019  11006     1   112.4800480 524.673600
  11002  11004  11005     1   111.5100476 526.347200
  11002  11004  11011     1   110.1900474 564.840000
  11002  11001  11012     1   111.5100476 526.347200
  11002  11001  11019     1   107.9700462 569.024000
  11004  11005  11006     1   111.5100476 526.347200
  11004  11005  11024     1   111.0400475 552.288000
  11004  11002  11022     1   110.1900474 564.840000
  11005  11006  11010     1   110.1900474 564.840000
  11005  11006  11019     1   107.9700462 569.024000
  11005  11004  11011     1   110.1900474 564.840000
  11006  11005  11024     1   111.0400475 552.288000
  11010  11006  11019     1   109.3800466 607.516800
  11012  11001  11019     1   107.9700462 569.024000
  11025  11027  11029     1   111.6100477 551.451200
  11027  11029  11033     1   111.0400475 552.288000
  11029  11033  11034     1   112.3500484 533.878400
  11029  11033  11035     1   112.3500484 533.878400
  11033  11034  11045     1   111.0400475 552.288000
  11033  11035  11037     1   111.0400475 552.288000
  11034  11033  11035     1   112.3500484 533.878400
  11034  11045  11048     1   111.0400475 529.694400
  11035  11037  11041     1   111.0400475 529.694400
  11037  11041  11042     1   123.2000528 564.003200
  11037  11041  11073     1   112.2600482 538.062400
  11041  11073  11054     1   118.5150508 540.957728
  11042  11041  11073     1   118.8300510 581.576000
  11045  11048  11049     1   123.2000528 564.003200
  11045  11048  11097     1   112.2600482 538.062400
  11048  11097  11078     1   118.5150508 540.957728
  11049  11048  11097     1   118.8300510 581.576000
  11050  11051  11053     1   111.5100476 526.347200
  11050  11051  11071     1   110.1900474 564.840000
  11050  11061  11066     1   110.1900474 564.840000
  11050  11068  11055     1   112.4800480 524.673600
  11051  11050  11061     1   111.5100476 526.347200
  11051  11050  11068     1   107.9700462 569.024000
  11051  11053  11054     1   111.5100476 526.347200
  11051  11053  11060     1   110.1900474 564.840000
  11053  11051  11071     1   110.1900474 564.840000
  11053  11054  11055     1   111.5100476 526.347200
  11053  11054  11073     1   111.0400475 552.288000
  11054  11053  11060     1   110.1900474 564.840000
  11054  11055  11059     1   110.1900474 564.840000
  11054  11055  11068     1   107.9700462 569.024000
  11055  11054  11073     1   111.0400475 552.288000
  11059  11055  11068     1   109.3800466 607.516800
  11061  11050  11068     1   107.9700462 569.024000
  11074  11075  11077     1   111.5100476 526.347200
  11074  11075  11095     1   110.1900474 564.840000
  11074  11085  11090     1   110.1900474 564.840000
  11074  11092  11079     1   112.4800480 524.673600
  11075  11074  11085     1   111.5100476 526.347200
  11075  11074  11092     1   107.9700462 569.024000
  11075  11077  11078     1   111.5100476 526.347200
  11075  11077  11084     1   110.1900474 564.840000
  11077  11075  11095     1   110.1900474 564.840000
  11077  11078  11079     1   111.5100476 526.347200
  11077  11078  11097     1   111.0400475 552.288000
  11078  11077  11084     1   110.1900474 564.840000
  11078  11079  11083     1   110.1900474 564.840000
  11078  11079  11092     1   107.9700462 569.024000
  11079  11078  11097     1   111.0400475 552.288000
  11083  11079  11092     1   109.3800466 607.516800
  11085  11074  11092     1   107.9700462 569.024000
  11098  11100  11102     1   111.6100477 551.451200
  11100  11102  11106     1   111.0400475 552.288000
  11102  11106  11107     1   112.3500484 533.878400
  11102  11106  11108     1   112.3500484 533.878400
  11106  11107  11118     1   111.0400475 552.288000
  11106  11108  11110     1   111.0400475 552.288000
  11107  11118  11121     1   111.0400475 529.694400
  11107  11106  11108     1   112.3500484 533.878400
  11108  11110  11114     1   111.0400475 529.694400
  11110  11114  11115     1   123.2000528 564.003200
  11110  11114  11146     1   112.2600482 538.062400
  11114  11146  11127     1   118.5150508 540.957728
  11115  11114  11146     1   118.8300510 581.576000
  11118  11121  11122     1   123.2000528 564.003200
  11118  11121  11170     1   112.2600482 538.062400
  11121  11170  11151     1   118.5150508 540.957728
  11122  11121  11170     1   118.8300510 581.576000
  11123  11124  11126     1   111.5100476 526.347200
  11123  11124  11144     1   110.1900474 564.840000
  11123  11134  11139     1   110.1900474 564.840000
  11123  11141  11128     1   112.4800480 524.673600
  11124  11126  11127     1   111.5100476 526.347200
  11124  11126  11133     1   110.1900474 564.840000
  11124  11123  11134     1   111.5100476 526.347200
  11124  11123  11141     1   107.9700462 569.024000
  11126  11127  11128     1   111.5100476 526.347200
  11126  11127  11146     1   111.0400475 552.288000
  11126  11124  11144     1   110.1900474 564.840000
  11127  11128  11132     1   110.1900474 564.840000
  11127  11128  11141     1   107.9700462 569.024000
  11127  11126  11133     1   110.1900474 564.840000
  11128  11127  11146     1   111.0400475 552.288000
  11132  11128  11141     1   109.3800466 607.516800
  11134  11123  11141     1   107.9700462 569.024000
  11147  11148  11150     1   111.5100476 526.347200
  11147  11148  11168     1   110.1900474 564.840000
  11147  11158  11163     1   110.1900474 564.840000
  11147  11165  11152     1   112.4800480 524.673600
  11148  11150  11151     1   111.5100476 526.347200
  11148  11150  11157     1   110.1900474 564.840000
  11148  11147  11158     1   111.5100476 526.347200
  11148  11147  11165     1   107.9700462 569.024000
  11150  11151  11152     1   111.5100476 526.347200
  11150  11151  11170     1   111.0400475 552.288000
  11150  11148  11168     1   110.1900474 564.840000
  11151  11152  11156     1   110.1900474 564.840000
  11151  11152  11165     1   107.9700462 569.024000
  11151  11150  11157     1   110.1900474 564.840000
  11152  11151  11170     1   111.0400475 552.288000
  11156  11152  11165     1   109.3800466 607.516800
  11158  11147  11165     1   107.9700462 569.024000
  11171  11173  11175     1   111.6100477 551.451200
  11173  11175  11179     1   111.0400475 552.288000
  11175  11179  11180     1   112.3500484 533.878400
  11175  11179  11181     1   112.3500484 533.878400
  11179  11180  11191     1   111.0400475 552.288000
  11179  11181  11183     1   111.0400475 552.288000
  11180  11179  11181     1   112.3500484 533.878400
  11180  11191  11194     1   111.0400475 529.694400
  11181  11183  11187     1   111.0400475 529.694400
  11183  11187  11188     1   123.2000528 564.003200
  11183  11187  11219     1   112.2600482 538.062400
  11187  11219  11200     1   118.5150508 540.957728
  11188  11187  11219     1   118.8300510 581.576000
  11191  11194  11195     1   123.2000528 564.003200
  11191  11194  11243     1   112.2600482 538.062400
  11194  11243  11224     1   118.5150508 540.957728
  11195  11194  11243     1   118.8300510 581.576000
  11196  11197  11199     1   111.5100476 526.347200
  11196  11197  11217     1   110.1900474 564.840000
  11196  11207  11212     1   110.1900474 564.840000
  11196  11214  11201     1   112.4800480 524.673600
  11197  11196  11207     1   111.5100476 526.347200
  11197  11196  11214     1   107.9700462 569.024000
  11197  11199  11200     1   111.5100476 526.347200
  11197  11199  11206     1   110.1900474 564.840000
  11199  11197  11217     1   110.1900474 564.840000
  11199  11200  11201     1   111.5100476 526.347200
  11199  11200  11219     1   111.0400475 552.288000
  11200  11199  11206     1   110.1900474 564.840000
  11200  11201  11205     1   110.1900474 564.840000
  11200  11201  11214     1   107.9700462 569.024000
  11201  11200  11219     1   111.0400475 552.288000
  11205  11201  11214     1   109.3800466 607.516800
  11207  11196  11214     1   107.9700462 569.024000
  11220  11221  11223     1   111.5100476 526.347200
  11220  11221  11241     1   110.1900474 564.840000
  11220  11231  11236     1   110.1900474 564.840000
  11220  11238  11225     1   112.4800480 524.673600
  11221  11220  11231     1   111.5100476 526.347200
  11221  11220  11238     1   107.9700462 569.024000
  11221  11223  11224     1   111.5100476 526.347200
  11221  11223  11230     1   110.1900474 564.840000
  11223  11221  11241     1   110.1900474 564.840000
  11223  11224  11225     1   111.5100476 526.347200
  11223  11224  11243     1   111.0400475 552.288000
  11224  11223  11230     1   110.1900474 564.840000
  11224  11225  11229     1   110.1900474 564.840000
  11224  11225  11238     1   107.9700462 569.024000
  11225  11224  11243     1   111.0400475 552.288000
  11229  11225  11238     1   109.3800466 607.516800
  11231  11220  11238     1   107.9700462 569.024000
  11244  11246  11248     1   111.6100477 551.451200
  11246  11248  11252     1   111.0400475 552.288000
  11248  11252  11253     1   112.3500484 533.878400
  11248  11252  11254     1   112.3500484 533.878400
  11252  11253  11264     1   111.0400475 552.288000
  11252  11254  11256     1   111.0400475 552.288000
  11253  11264  11267     1   111.0400475 529.694400
  11253  11252  11254     1   112.3500484 533.878400
  11254  11256  11260     1   111.0400475 529.694400
  11256  11260  11261     1   123.2000528 564.003200
  11256  11260  11292     1   112.2600482 538.062400
  11260  11292  11273     1   118.5150508 540.957728
  11261  11260  11292     1   118.8300510 581.576000
  11264  11267  11268     1   123.2000528 564.003200
  11264  11267  11316     1   112.2600482 538.062400
  11267  11316  11297     1   118.5150508 540.957728
  11268  11267  11316     1   118.8300510 581.576000
  11269  11270  11272     1   111.5100476 526.347200
  11269  11270  11290     1   110.1900474 564.840000
  11269  11280  11285     1   110.1900474 564.840000
  11269  11287  11274     1   112.4800480 524.673600
  11270  11272  11273     1   111.5100476 526.347200
  11270  11272  11279     1   110.1900474 564.840000
  11270  11269  11280     1   111.5100476 526.347200
  11270  11269  11287     1   107.9700462 569.024000
  11272  11273  11274     1   111.5100476 526.347200
  11272  11273  11292     1   111.0400475 552.288000
  11272  11270  11290     1   110.1900474 564.840000
  11273  11274  11278     1   110.1900474 564.840000
  11273  11274  11287     1   107.9700462 569.024000
  11273  11272  11279     1   110.1900474 564.840000
  11274  11273  11292     1   111.0400475 552.288000
  11278  11274  11287     1   109.3800466 607.516800
  11280  11269  11287     1   107.9700462 569.024000
  11293  11294  11296     1   111.5100476 526.347200
  11293  11294  11314     1   110.1900474 564.840000
  11293  11304  11309     1   110.1900474 564.840000
  11293  11311  11298     1   112.4800480 524.673600
  11294  11296  11297     1   111.5100476 526.347200
  11294  11296  11303     1   110.1900474 564.840000
  11294  11293  11304     1   111.5100476 526.347200
  11294  11293  11311     1   107.9700462 569.024000
  11296  11297  11298     1   111.5100476 526.347200
  11296  11297  11316     1   111.0400475 552.288000
  11296  11294  11314     1   110.1900474 564.840000
  11297  11298  11302     1   110.1900474 564.840000
  11297  11298  11311     1   107.9700462 569.024000
  11297  11296  11303     1   110.1900474 564.840000
  11298  11297  11316     1   111.0400475 552.288000
  11302  11298  11311     1   109.3800466 607.516800
  11304  11293  11311     1   107.9700462 569.024000
  11317  11319  11321     1   111.6100477 551.451200
  11319  11321  11325     1   111.0400475 552.288000
  11321  11325  11326     1   112.3500484 533.878400
  11321  11325  11327     1   112.3500484 533.878400
  11325  11326  11337     1   111.0400475 552.288000
  11325  11327  11329     1   111.0400475 552.288000
  11326  11325  11327     1   112.3500484 533.878400
  11326  11337  11340     1   111.0400475 529.694400
  11327  11329  11333     1   111.0400475 529.694400
  11329  11333  11334     1   123.2000528 564.003200
  11329  11333  11365     1   112.2600482 538.062400
  11333  11365  11346     1   118.5150508 540.957728
  11334  11333  11365     1   118.8300510 581.576000
  11337  11340  11341     1   123.2000528 564.003200
  11337  11340  11389     1   112.2600482 538.062400
  11340  11389  11370     1   118.5150508 540.957728
  11341  11340  11389     1   118.8300510 581.576000
  11342  11343  11345     1   111.5100476 526.347200
  11342  11343  11363     1   110.1900474 564.840000
  11342  11353  11358     1   110.1900474 564.840000
  11342  11360  11347     1   112.4800480 524.673600
  11343  11342  11353     1   111.5100476 526.347200
  11343  11342  11360     1   107.9700462 569.024000
  11343  11345  11346     1   111.5100476 526.347200
  11343  11345  11352     1   110.1900474 564.840000
  11345  11343  11363     1   110.1900474 564.840000
  11345  11346  11347     1   111.5100476 526.347200
  11345  11346  11365     1   111.0400475 552.288000
  11346  11345  11352     1   110.1900474 564.840000
  11346  11347  11351     1   110.1900474 564.840000
  11346  11347  11360     1   107.9700462 569.024000
  11347  11346  11365     1   111.0400475 552.288000
  11351  11347  11360     1   109.3800466 607.516800
  11353  11342  11360     1   107.9700462 569.024000
  11366  11367  11369     1   111.5100476 526.347200
  11366  11367  11387     1   110.1900474 564.840000
  11366  11377  11382     1   110.1900474 564.840000
  11366  11384  11371     1   112.4800480 524.673600
  11367  11366  11377     1   111.5100476 526.347200
  11367  11366  11384     1   107.9700462 569.024000
  11367  11369  11370     1   111.5100476 526.347200
  11367  11369  11376     1   110.1900474 564.840000
  11369  11367  11387     1   110.1900474 564.840000
  11369  11370  11371     1   111.5100476 526.347200
  11369  11370  11389     1   111.0400475 552.288000
  11370  11369  11376     1   110.1900474 564.840000
  11370  11371  11375     1   110.1900474 564.840000
  11370  11371  11384     1   107.9700462 569.024000
  11371  11370  11389     1   111.0400475 552.288000
  11375  11371  11384     1   109.3800466 607.516800
  11377  11366  11384     1   107.9700462 569.024000
  11390  11392  11394     1   111.6100477 551.451200
  11392  11394  11398     1   111.0400475 552.288000
  11394  11398  11399     1   112.3500484 533.878400
  11394  11398  11400     1   112.3500484 533.878400
  11398  11399  11410     1   111.0400475 552.288000
  11398  11400  11402     1   111.0400475 552.288000
  11399  11410  11413     1   111.0400475 529.694400
  11399  11398  11400     1   112.3500484 533.878400
  11400  11402  11406     1   111.0400475 529.694400
  11402  11406  11407     1   123.2000528 564.003200
  11402  11406  11438     1   112.2600482 538.062400
  11406  11438  11419     1   118.5150508 540.957728
  11407  11406  11438     1   118.8300510 581.576000
  11410  11413  11414     1   123.2000528 564.003200
  11410  11413  11462     1   112.2600482 538.062400
  11413  11462  11443     1   118.5150508 540.957728
  11414  11413  11462     1   118.8300510 581.576000
  11415  11416  11418     1   111.5100476 526.347200
  11415  11416  11436     1   110.1900474 564.840000
  11415  11426  11431     1   110.1900474 564.840000
  11415  11433  11420     1   112.4800480 524.673600
  11416  11418  11419     1   111.5100476 526.347200
  11416  11418  11425     1   110.1900474 564.840000
  11416  11415  11426     1   111.5100476 526.347200
  11416  11415  11433     1   107.9700462 569.024000
  11418  11419  11420     1   111.5100476 526.347200
  11418  11419  11438     1   111.0400475 552.288000
  11418  11416  11436     1   110.1900474 564.840000
  11419  11420  11424     1   110.1900474 564.840000
  11419  11420  11433     1   107.9700462 569.024000
  11419  11418  11425     1   110.1900474 564.840000
  11420  11419  11438     1   111.0400475 552.288000
  11424  11420  11433     1   109.3800466 607.516800
  11426  11415  11433     1   107.9700462 569.024000
  11439  11440  11442     1   111.5100476 526.347200
  11439  11440  11460     1   110.1900474 564.840000
  11439  11450  11455     1   110.1900474 564.840000
  11439  11457  11444     1   112.4800480 524.673600
  11440  11442  11443     1   111.5100476 526.347200
  11440  11442  11449     1   110.1900474 564.840000
  11440  11439  11450     1   111.5100476 526.347200
  11440  11439  11457     1   107.9700462 569.024000
  11442  11443  11444     1   111.5100476 526.347200
  11442  11443  11462     1   111.0400475 552.288000
  11442  11440  11460     1   110.1900474 564.840000
  11443  11444  11448     1   110.1900474 564.840000
  11443  11444  11457     1   107.9700462 569.024000
  11443  11442  11449     1   110.1900474 564.840000
  11444  11443  11462     1   111.0400475 552.288000
  11448  11444  11457     1   109.3800466 607.516800
  11450  11439  11457     1   107.9700462 569.024000
  11463  11465  11467     1   111.6100477 551.451200
  11465  11467  11471     1   111.0400475 552.288000
  11467  11471  11472     1   112.3500484 533.878400
  11467  11471  11473     1   112.3500484 533.878400
  11471  11472  11483     1   111.0400475 552.288000
  11471  11473  11475     1   111.0400475 552.288000
  11472  11471  11473     1   112.3500484 533.878400
  11472  11483  11486     1   111.0400475 529.694400
  11473  11475  11479     1   111.0400475 529.694400
  11475  11479  11480     1   123.2000528 564.003200
  11475  11479  11511     1   112.2600482 538.062400
  11479  11511  11492     1   118.5150508 540.957728
  11480  11479  11511     1   118.8300510 581.576000
  11483  11486  11487     1   123.2000528 564.003200
  11483  11486  11535     1   112.2600482 538.062400
  11486  11535  11516     1   118.5150508 540.957728
  11487  11486  11535     1   118.8300510 581.576000
  11488  11489  11491     1   111.5100476 526.347200
  11488  11489  11509     1   110.1900474 564.840000
  11488  11499  11504     1   110.1900474 564.840000
  11488  11506  11493     1   112.4800480 524.673600
  11489  11488  11499     1   111.5100476 526.347200
  11489  11488  11506     1   107.9700462 569.024000
  11489  11491  11492     1   111.5100476 526.347200
  11489  11491  11498     1   110.1900474 564.840000
  11491  11489  11509     1   110.1900474 564.840000
  11491  11492  11493     1   111.5100476 526.347200
  11491  11492  11511     1   111.0400475 552.288000
  11492  11491  11498     1   110.1900474 564.840000
  11492  11493  11497     1   110.1900474 564.840000
  11492  11493  11506     1   107.9700462 569.024000
  11493  11492  11511     1   111.0400475 552.288000
  11497  11493  11506     1   109.3800466 607.516800
  11499  11488  11506     1   107.9700462 569.024000
  11512  11513  11515     1   111.5100476 526.347200
  11512  11513  11533     1   110.1900474 564.840000
  11512  11523  11528     1   110.1900474 564.840000
  11512  11530  11517     1   112.4800480 524.673600
  11513  11512  11523     1   111.5100476 526.347200
  11513  11512  11530     1   107.9700462 569.024000
  11513  11515  11516     1   111.5100476 526.347200
  11513  11515  11522     1   110.1900474 564.840000
  11515  11513  11533     1   110.1900474 564.840000
  11515  11516  11517     1   111.5100476 526.347200
  11515  11516  11535     1   111.0400475 552.288000
  11516  11515  11522     1   110.1900474 564.840000
  11516  11517  11521     1   110.1900474 564.840000
  11516  11517  11530     1   107.9700462 569.024000
  11517  11516  11535     1   111.0400475 552.288000
  11521  11517  11530     1   109.3800466 607.516800
  11523  11512  11530     1   107.9700462 569.024000
  11536  11538  11540     1   111.6100477 551.451200
  11538  11540  11544     1   111.0400475 552.288000
  11540  11544  11545     1   112.3500484 533.878400
  11540  11544  11546     1   112.3500484 533.878400
  11544  11545  11556     1   111.0400475 552.288000
  11544  11546  11548     1   111.0400475 552.288000
  11545  11556  11559     1   111.0400475 529.694400
  11545  11544  11546     1   112.3500484 533.878400
  11546  11548  11552     1   111.0400475 529.694400
  11548  11552  11553     1   123.2000528 564.003200
  11548  11552  11584     1   112.2600482 538.062400
  11552  11584  11565     1   118.5150508 540.957728
  11553  11552  11584     1   118.8300510 581.576000
  11556  11559  11560     1   123.2000528 564.003200
  11556  11559  11608     1   112.2600482 538.062400
  11559  11608  11589     1   118.5150508 540.957728
  11560  11559  11608     1   118.8300510 581.576000
  11561  11562  11564     1   111.5100476 526.347200
  11561  11562  11582     1   110.1900474 564.840000
  11561  11572  11577     1   110.1900474 564.840000
  11561  11579  11566     1   112.4800480 524.673600
  11562  11564  11565     1   111.5100476 526.347200
  11562  11564  11571     1   110.1900474 564.840000
  11562  11561  11572     1   111.5100476 526.347200
  11562  11561  11579     1   107.9700462 569.024000
  11564  11565  11566     1   111.5100476 526.347200
  11564  11565  11584     1   111.0400475 552.288000
  11564  11562  11582     1   110.1900474 564.840000
  11565  11566  11570     1   110.1900474 564.840000
  11565  11566  11579     1   107.9700462 569.024000
  11565  11564  11571     1   110.1900474 564.840000
  11566  11565  11584     1   111.0400475 552.288000
  11570  11566  11579     1   109.3800466 607.516800
  11572  11561  11579     1   107.9700462 569.024000
  11585  11586  11588     1   111.5100476 526.347200
  11585  11586  11606     1   110.1900474 564.840000
  11585  11596  11601     1   110.1900474 564.840000
  11585  11603  11590     1   112.4800480 524.673600
  11586  11588  11589     1   111.5100476 526.347200
  11586  11588  11595     1   110.1900474 564.840000
  11586  11585  11596     1   111.5100476 526.347200
  11586  11585  11603     1   107.9700462 569.024000
  11588  11589  11590     1   111.5100476 526.347200
  11588  11589  11608     1   111.0400475 552.288000
  11588  11586  11606     1   110.1900474 564.840000
  11589  11590  11594     1   110.1900474 564.840000
  11589  11590  11603     1   107.9700462 569.024000
  11589  11588  11595     1   110.1900474 564.840000
  11590  11589  11608     1   111.0400475 552.288000
  11594  11590  11603     1   109.3800466 607.516800
  11596  11585  11603     1   107.9700462 569.024000
  11609  11611  11613     1   111.6100477 551.451200
  11611  11613  11617     1   111.0400475 552.288000
  11613  11617  11618     1   112.3500484 533.878400
  11613  11617  11619     1   112.3500484 533.878400
  11617  11618  11629     1   111.0400475 552.288000
  11617  11619  11621     1   111.0400475 552.288000
  11618  11617  11619     1   112.3500484 533.878400
  11618  11629  11632     1   111.0400475 529.694400
  11619  11621  11625     1   111.0400475 529.694400
  11621  11625  11626     1   123.2000528 564.003200
  11621  11625  11657     1   112.2600482 538.062400
  11625  11657  11638     1   118.5150508 540.957728
  11626  11625  11657     1   118.8300510 581.576000
  11629  11632  11633     1   123.2000528 564.003200
  11629  11632  11681     1   112.2600482 538.062400
  11632  11681  11662     1   118.5150508 540.957728
  11633  11632  11681     1   118.8300510 581.576000
  11634  11635  11637     1   111.5100476 526.347200
  11634  11635  11655     1   110.1900474 564.840000
  11634  11645  11650     1   110.1900474 564.840000
  11634  11652  11639     1   112.4800480 524.673600
  11635  11634  11645     1   111.5100476 526.347200
  11635  11634  11652     1   107.9700462 569.024000
  11635  11637  11638     1   111.5100476 526.347200
  11635  11637  11644     1   110.1900474 564.840000
  11637  11635  11655     1   110.1900474 564.840000
  11637  11638  11639     1   111.5100476 526.347200
  11637  11638  11657     1   111.0400475 552.288000
  11638  11637  11644     1   110.1900474 564.840000
  11638  11639  11643     1   110.1900474 564.840000
  11638  11639  11652     1   107.9700462 569.024000
  11639  11638  11657     1   111.0400475 552.288000
  11643  11639  11652     1   109.3800466 607.516800
  11645  11634  11652     1   107.9700462 569.024000
  11658  11659  11661     1   111.5100476 526.347200
  11658  11659  11679     1   110.1900474 564.840000
  11658  11669  11674     1   110.1900474 564.840000
  11658  11676  11663     1   112.4800480 524.673600
  11659  11658  11669     1   111.5100476 526.347200
  11659  11658  11676     1   107.9700462 569.024000
  11659  11661  11662     1   111.5100476 526.347200
  11659  11661  11668     1   110.1900474 564.840000
  11661  11659  11679     1   110.1900474 564.840000
  11661  11662  11663     1   111.5100476 526.347200
  11661  11662  11681     1   111.0400475 552.288000
  11662  11661  11668     1   110.1900474 564.840000
  11662  11663  11667     1   110.1900474 564.840000
  11662  11663  11676     1   107.9700462 569.024000
  11663  11662  11681     1   111.0400475 552.288000
  11667  11663  11676     1   109.3800466 607.516800
  11669  11658  11676     1   107.9700462 569.024000
  11682  11684  11686     1   111.6100477 551.451200
  11684  11686  11690     1   111.0400475 552.288000
  11686  11690  11691     1   112.3500484 533.878400
  11686  11690  11692     1   112.3500484 533.878400
  11690  11691  11702     1   111.0400475 552.288000
  11690  11692  11694     1   111.0400475 552.288000
  11691  11702  11705     1   111.0400475 529.694400
  11691  11690  11692     1   112.3500484 533.878400
  11692  11694  11698     1   111.0400475 529.694400
  11694  11698  11699     1   123.2000528 564.003200
  11694  11698  11730     1   112.2600482 538.062400
  11698  11730  11711     1   118.5150508 540.957728
  11699  11698  11730     1   118.8300510 581.576000
  11702  11705  11706     1   123.2000528 564.003200
  11702  11705  11754     1   112.2600482 538.062400
  11705  11754  11735     1   118.5150508 540.957728
  11706  11705  11754     1   118.8300510 581.576000
  11707  11708  11710     1   111.5100476 526.347200
  11707  11708  11728     1   110.1900474 564.840000
  11707  11718  11723     1   110.1900474 564.840000
  11707  11725  11712     1   112.4800480 524.673600
  11708  11710  11711     1   111.5100476 526.347200
  11708  11710  11717     1   110.1900474 564.840000
  11708  11707  11718     1   111.5100476 526.347200
  11708  11707  11725     1   107.9700462 569.024000
  11710  11711  11712     1   111.5100476 526.347200
  11710  11711  11730     1   111.0400475 552.288000
  11710  11708  11728     1   110.1900474 564.840000
  11711  11712  11716     1   110.1900474 564.840000
  11711  11712  11725     1   107.9700462 569.024000
  11711  11710  11717     1   110.1900474 564.840000
  11712  11711  11730     1   111.0400475 552.288000
  11716  11712  11725     1   109.3800466 607.516800
  11718  11707  11725     1   107.9700462 569.024000
  11731  11732  11734     1   111.5100476 526.347200
  11731  11732  11752     1   110.1900474 564.840000
  11731  11742  11747     1   110.1900474 564.840000
  11731  11749  11736     1   112.4800480 524.673600
  11732  11734  11735     1   111.5100476 526.347200
  11732  11734  11741     1   110.1900474 564.840000
  11732  11731  11742     1   111.5100476 526.347200
  11732  11731  11749     1   107.9700462 569.024000
  11734  11735  11736     1   111.5100476 526.347200
  11734  11735  11754     1   111.0400475 552.288000
  11734  11732  11752     1   110.1900474 564.840000
  11735  11736  11740     1   110.1900474 564.840000
  11735  11736  11749     1   107.9700462 569.024000
  11735  11734  11741     1   110.1900474 564.840000
  11736  11735  11754     1   111.0400475 552.288000
  11740  11736  11749     1   109.3800466 607.516800
  11742  11731  11749     1   107.9700462 569.024000
  11755  11757  11759     1   111.6100477 551.451200
  11757  11759  11763     1   111.0400475 552.288000
  11759  11763  11764     1   112.3500484 533.878400
  11759  11763  11765     1   112.3500484 533.878400
  11763  11764  11775     1   111.0400475 552.288000
  11763  11765  11767     1   111.0400475 552.288000
  11764  11763  11765     1   112.3500484 533.878400
  11764  11775  11778     1   111.0400475 529.694400
  11765  11767  11771     1   111.0400475 529.694400
  11767  11771  11772     1   123.2000528 564.003200
  11767  11771  11803     1   112.2600482 538.062400
  11771  11803  11784     1   118.5150508 540.957728
  11772  11771  11803     1   118.8300510 581.576000
  11775  11778  11779     1   123.2000528 564.003200
  11775  11778  11827     1   112.2600482 538.062400
  11778  11827  11808     1   118.5150508 540.957728
  11779  11778  11827     1   118.8300510 581.576000
  11780  11781  11783     1   111.5100476 526.347200
  11780  11781  11801     1   110.1900474 564.840000
  11780  11791  11796     1   110.1900474 564.840000
  11780  11798  11785     1   112.4800480 524.673600
  11781  11780  11791     1   111.5100476 526.347200
  11781  11780  11798     1   107.9700462 569.024000
  11781  11783  11784     1   111.5100476 526.347200
  11781  11783  11790     1   110.1900474 564.840000
  11783  11781  11801     1   110.1900474 564.840000
  11783  11784  11785     1   111.5100476 526.347200
  11783  11784  11803     1   111.0400475 552.288000
  11784  11783  11790     1   110.1900474 564.840000
  11784  11785  11789     1   110.1900474 564.840000
  11784  11785  11798     1   107.9700462 569.024000
  11785  11784  11803     1   111.0400475 552.288000
  11789  11785  11798     1   109.3800466 607.516800
  11791  11780  11798     1   107.9700462 569.024000
  11804  11805  11807     1   111.5100476 526.347200
  11804  11805  11825     1   110.1900474 564.840000
  11804  11815  11820     1   110.1900474 564.840000
  11804  11822  11809     1   112.4800480 524.673600
  11805  11804  11815     1   111.5100476 526.347200
  11805  11804  11822     1   107.9700462 569.024000
  11805  11807  11808     1   111.5100476 526.347200
  11805  11807  11814     1   110.1900474 564.840000
  11807  11805  11825     1   110.1900474 564.840000
  11807  11808  11809     1   111.5100476 526.347200
  11807  11808  11827     1   111.0400475 552.288000
  11808  11807  11814     1   110.1900474 564.840000
  11808  11809  11813     1   110.1900474 564.840000
  11808  11809  11822     1   107.9700462 569.024000
  11809  11808  11827     1   111.0400475 552.288000
  11813  11809  11822     1   109.3800466 607.516800
  11815  11804  11822     1   107.9700462 569.024000
  11828  11830  11832     1   111.6100477 551.451200
  11830  11832  11836     1   111.0400475 552.288000
  11832  11836  11837     1   112.3500484 533.878400
  11832  11836  11838     1   112.3500484 533.878400
  11836  11837  11848     1   111.0400475 552.288000
  11836  11838  11840     1   111.0400475 552.288000
  11837  11848  11851     1   111.0400475 529.694400
  11837  11836  11838     1   112.3500484 533.878400
  11838  11840  11844     1   111.0400475 529.694400
  11840  11844  11845     1   123.2000528 564.003200
  11840  11844  11876     1   112.2600482 538.062400
  11844  11876  11857     1   118.5150508 540.957728
  11845  11844  11876     1   118.8300510 581.576000
  11848  11851  11852     1   123.2000528 564.003200
  11848  11851  11900     1   112.2600482 538.062400
  11851  11900  11881     1   118.5150508 540.957728
  11852  11851  11900     1   118.8300510 581.576000
  11853  11854  11856     1   111.5100476 526.347200
  11853  11854  11874     1   110.1900474 564.840000
  11853  11864  11869     1   110.1900474 564.840000
  11853  11871  11858     1   112.4800480 524.673600
  11854  11856  11857     1   111.5100476 526.347200
  11854  11856  11863     1   110.1900474 564.840000
  11854  11853  11864     1   111.5100476 526.347200
  11854  11853  11871     1   107.9700462 569.024000
  11856  11857  11858     1   111.5100476 526.347200
  11856  11857  11876     1   111.0400475 552.288000
  11856  11854  11874     1   110.1900474 564.840000
  11857  11858  11862     1   110.1900474 564.840000
  11857  11858  11871     1   107.9700462 569.024000
  11857  11856  11863     1   110.1900474 564.840000
  11858  11857  11876     1   111.0400475 552.288000
  11862  11858  11871     1   109.3800466 607.516800
  11864  11853  11871     1   107.9700462 569.024000
  11877  11878  11880     1   111.5100476 526.347200
  11877  11878  11898     1   110.1900474 564.840000
  11877  11888  11893     1   110.1900474 564.840000
  11877  11895  11882     1   112.4800480 524.673600
  11878  11880  11881     1   111.5100476 526.347200
  11878  11880  11887     1   110.1900474 564.840000
  11878  11877  11888     1   111.5100476 526.347200
  11878  11877  11895     1   107.9700462 569.024000
  11880  11881  11882     1   111.5100476 526.347200
  11880  11881  11900     1   111.0400475 552.288000
  11880  11878  11898     1   110.1900474 564.840000
  11881  11882  11886     1   110.1900474 564.840000
  11881  11882  11895     1   107.9700462 569.024000
  11881  11880  11887     1   110.1900474 564.840000
  11882  11881  11900     1   111.0400475 552.288000
  11886  11882  11895     1   109.3800466 607.516800
  11888  11877  11895     1   107.9700462 569.024000
  11901  11903  11905     1   111.6100477 551.451200
  11903  11905  11909     1   111.0400475 552.288000
  11905  11909  11910     1   112.3500484 533.878400
  11905  11909  11911     1   112.3500484 533.878400
  11909  11910  11921     1   111.0400475 552.288000
  11909  11911  11913     1   111.0400475 552.288000
  11910  11909  11911     1   112.3500484 533.878400
  11910  11921  11924     1   111.0400475 529.694400
  11911  11913  11917     1   111.0400475 529.694400
  11913  11917  11918     1   123.2000528 564.003200
  11913  11917  11949     1   112.2600482 538.062400
  11917  11949  11930     1   118.5150508 540.957728
  11918  11917  11949     1   118.8300510 581.576000
  11921  11924  11925     1   123.2000528 564.003200
  11921  11924  11973     1   112.2600482 538.062400
  11924  11973  11954     1   118.5150508 540.957728
  11925  11924  11973     1   118.8300510 581.576000
  11926  11927  11929     1   111.5100476 526.347200
  11926  11927  11947     1   110.1900474 564.840000
  11926  11937  11942     1   110.1900474 564.840000
  11926  11944  11931     1   112.4800480 524.673600
  11927  11926  11937     1   111.5100476 526.347200
  11927  11926  11944     1   107.9700462 569.024000
  11927  11929  11930     1   111.5100476 526.347200
  11927  11929  11936     1   110.1900474 564.840000
  11929  11927  11947     1   110.1900474 564.840000
  11929  11930  11931     1   111.5100476 526.347200
  11929  11930  11949     1   111.0400475 552.288000
  11930  11929  11936     1   110.1900474 564.840000
  11930  11931  11935     1   110.1900474 564.840000
  11930  11931  11944     1   107.9700462 569.024000
  11931  11930  11949     1   111.0400475 552.288000
  11935  11931  11944     1   109.3800466 607.516800
  11937  11926  11944     1   107.9700462 569.024000
  11950  11951  11953     1   111.5100476 526.347200
  11950  11951  11971     1   110.1900474 564.840000
  11950  11961  11966     1   110.1900474 564.840000
  11950  11968  11955     1   112.4800480 524.673600
  11951  11950  11961     1   111.5100476 526.347200
  11951  11950  11968     1   107.9700462 569.024000
  11951  11953  11954     1   111.5100476 526.347200
  11951  11953  11960     1   110.1900474 564.840000
  11953  11951  11971     1   110.1900474 564.840000
  11953  11954  11955     1   111.5100476 526.347200
  11953  11954  11973     1   111.0400475 552.288000
  11954  11953  11960     1   110.1900474 564.840000
  11954  11955  11959     1   110.1900474 564.840000
  11954  11955  11968     1   107.9700462 569.024000
  11955  11954  11973     1   111.0400475 552.288000
  11959  11955  11968     1   109.3800466 607.516800
  11961  11950  11968     1   107.9700462 569.024000
  11974  11976  11978     1   111.6100477 551.451200
  11976  11978  11982     1   111.0400475 552.288000
  11978  11982  11983     1   112.3500484 533.878400
  11978  11982  11984     1   112.3500484 533.878400
  11982  11983  11994     1   111.0400475 552.288000
  11982  11984  11986     1   111.0400475 552.288000
  11983  11994  11997     1   111.0400475 529.694400
  11983  11982  11984     1   112.3500484 533.878400
  11984  11986  11990     1   111.0400475 529.694400
  11986  11990  11991     1   123.2000528 564.003200
  11986  11990  12022     1   112.2600482 538.062400
  11990  12022  12003     1   118.5150508 540.957728
  11991  11990  12022     1   118.8300510 581.576000
  11994  11997  11998     1   123.2000528 564.003200
  11994  11997  12046     1   112.2600482 538.062400
  11997  12046  12027     1   118.5150508 540.957728
  11998  11997  12046     1   118.8300510 581.576000
  11999  12000  12002     1   111.5100476 526.347200
  11999  12000  12020     1   110.1900474 564.840000
  11999  12010  12015     1   110.1900474 564.840000
  11999  12017  12004     1   112.4800480 524.673600
  12000  12002  12003     1   111.5100476 526.347200
  12000  12002  12009     1   110.1900474 564.840000
  12000  11999  12010     1   111.5100476 526.347200
  12000  11999  12017     1   107.9700462 569.024000
  12002  12003  12004     1   111.5100476 526.347200
  12002  12003  12022     1   111.0400475 552.288000
  12002  12000  12020     1   110.1900474 564.840000
  12003  12004  12008     1   110.1900474 564.840000
  12003  12004  12017     1   107.9700462 569.024000
  12003  12002  12009     1   110.1900474 564.840000
  12004  12003  12022     1   111.0400475 552.288000
  12008  12004  12017     1   109.3800466 607.516800
  12010  11999  12017     1   107.9700462 569.024000
  12023  12024  12026     1   111.5100476 526.347200
  12023  12024  12044     1   110.1900474 564.840000
  12023  12034  12039     1   110.1900474 564.840000
  12023  12041  12028     1   112.4800480 524.673600
  12024  12026  12027     1   111.5100476 526.347200
  12024  12026  12033     1   110.1900474 564.840000
  12024  12023  12034     1   111.5100476 526.347200
  12024  12023  12041     1   107.9700462 569.024000
  12026  12027  12028     1   111.5100476 526.347200
  12026  12027  12046     1   111.0400475 552.288000
  12026  12024  12044     1   110.1900474 564.840000
  12027  12028  12032     1   110.1900474 564.840000
  12027  12028  12041     1   107.9700462 569.024000
  12027  12026  12033     1   110.1900474 564.840000
  12028  12027  12046     1   111.0400475 552.288000
  12032  12028  12041     1   109.3800466 607.516800
  12034  12023  12041     1   107.9700462 569.024000
  12047  12049  12051     1   111.6100477 551.451200
  12049  12051  12055     1   111.0400475 552.288000
  12051  12055  12056     1   112.3500484 533.878400
  12051  12055  12057     1   112.3500484 533.878400
  12055  12056  12067     1   111.0400475 552.288000
  12055  12057  12059     1   111.0400475 552.288000
  12056  12055  12057     1   112.3500484 533.878400
  12056  12067  12070     1   111.0400475 529.694400
  12057  12059  12063     1   111.0400475 529.694400
  12059  12063  12064     1   123.2000528 564.003200
  12059  12063  12095     1   112.2600482 538.062400
  12063  12095  12076     1   118.5150508 540.957728
  12064  12063  12095     1   118.8300510 581.576000
  12067  12070  12071     1   123.2000528 564.003200
  12067  12070  12119     1   112.2600482 538.062400
  12070  12119  12100     1   118.5150508 540.957728
  12071  12070  12119     1   118.8300510 581.576000
  12072  12073  12075     1   111.5100476 526.347200
  12072  12073  12093     1   110.1900474 564.840000
  12072  12083  12088     1   110.1900474 564.840000
  12072  12090  12077     1   112.4800480 524.673600
  12073  12072  12083     1   111.5100476 526.347200
  12073  12072  12090     1   107.9700462 569.024000
  12073  12075  12076     1   111.5100476 526.347200
  12073  12075  12082     1   110.1900474 564.840000
  12075  12073  12093     1   110.1900474 564.840000
  12075  12076  12077     1   111.5100476 526.347200
  12075  12076  12095     1   111.0400475 552.288000
  12076  12075  12082     1   110.1900474 564.840000
  12076  12077  12081     1   110.1900474 564.840000
  12076  12077  12090     1   107.9700462 569.024000
  12077  12076  12095     1   111.0400475 552.288000
  12081  12077  12090     1   109.3800466 607.516800
  12083  12072  12090     1   107.9700462 569.024000
  12096  12097  12099     1   111.5100476 526.347200
  12096  12097  12117     1   110.1900474 564.840000
  12096  12107  12112     1   110.1900474 564.840000
  12096  12114  12101     1   112.4800480 524.673600
  12097  12096  12107     1   111.5100476 526.347200
  12097  12096  12114     1   107.9700462 569.024000
  12097  12099  12100     1   111.5100476 526.347200
  12097  12099  12106     1   110.1900474 564.840000
  12099  12097  12117     1   110.1900474 564.840000
  12099  12100  12101     1   111.5100476 526.347200
  12099  12100  12119     1   111.0400475 552.288000
  12100  12099  12106     1   110.1900474 564.840000
  12100  12101  12105     1   110.1900474 564.840000
  12100  12101  12114     1   107.9700462 569.024000
  12101  12100  12119     1   111.0400475 552.288000
  12105  12101  12114     1   109.3800466 607.516800
  12107  12096  12114     1   107.9700462 569.024000
  12120  12122  12124     1   111.6100477 551.451200
  12122  12124  12128     1   111.0400475 552.288000
  12124  12128  12129     1   112.3500484 533.878400
  12124  12128  12130     1   112.3500484 533.878400
  12128  12129  12140     1   111.0400475 552.288000
  12128  12130  12132     1   111.0400475 552.288000
  12129  12140  12143     1   111.0400475 529.694400
  12129  12128  12130     1   112.3500484 533.878400
  12130  12132  12136     1   111.0400475 529.694400
  12132  12136  12137     1   123.2000528 564.003200
  12132  12136  12168     1   112.2600482 538.062400
  12136  12168  12149     1   118.5150508 540.957728
  12137  12136  12168     1   118.8300510 581.576000
  12140  12143  12144     1   123.2000528 564.003200
  12140  12143  12192     1   112.2600482 538.062400
  12143  12192  12173     1   118.5150508 540.957728
  12144  12143  12192     1   118.8300510 581.576000
  12145  12146  12148     1   111.5100476 526.347200
  12145  12146  12166     1   110.1900474 564.840000
  12145  12156  12161     1   110.1900474 564.840000
  12145  12163  12150     1   112.4800480 524.673600
  12146  12148  12149     1   111.5100476 526.347200
  12146  12148  12155     1   110.1900474 564.840000
  12146  12145  12156     1   111.5100476 526.347200
  12146  12145  12163     1   107.9700462 569.024000
  12148  12149  12150     1   111.5100476 526.347200
  12148  12149  12168     1   111.0400475 552.288000
  12148  12146  12166     1   110.1900474 564.840000
  12149  12150  12154     1   110.1900474 564.840000
  12149  12150  12163     1   107.9700462 569.024000
  12149  12148  12155     1   110.1900474 564.840000
  12150  12149  12168     1   111.0400475 552.288000
  12154  12150  12163     1   109.3800466 607.516800
  12156  12145  12163     1   107.9700462 569.024000
  12169  12170  12172     1   111.5100476 526.347200
  12169  12170  12190     1   110.1900474 564.840000
  12169  12180  12185     1   110.1900474 564.840000
  12169  12187  12174     1   112.4800480 524.673600
  12170  12172  12173     1   111.5100476 526.347200
  12170  12172  12179     1   110.1900474 564.840000
  12170  12169  12180     1   111.5100476 526.347200
  12170  12169  12187     1   107.9700462 569.024000
  12172  12173  12174     1   111.5100476 526.347200
  12172  12173  12192     1   111.0400475 552.288000
  12172  12170  12190     1   110.1900474 564.840000
  12173  12174  12178     1   110.1900474 564.840000
  12173  12174  12187     1   107.9700462 569.024000
  12173  12172  12179     1   110.1900474 564.840000
  12174  12173  12192     1   111.0400475 552.288000
  12178  12174  12187     1   109.3800466 607.516800
  12180  12169  12187     1   107.9700462 569.024000
  12193  12195  12197     1   111.6100477 551.451200
  12195  12197  12201     1   111.0400475 552.288000
  12197  12201  12202     1   112.3500484 533.878400
  12197  12201  12203     1   112.3500484 533.878400
  12201  12202  12213     1   111.0400475 552.288000
  12201  12203  12205     1   111.0400475 552.288000
  12202  12201  12203     1   112.3500484 533.878400
  12202  12213  12216     1   111.0400475 529.694400
  12203  12205  12209     1   111.0400475 529.694400
  12205  12209  12210     1   123.2000528 564.003200
  12205  12209  12241     1   112.2600482 538.062400
  12209  12241  12222     1   118.5150508 540.957728
  12210  12209  12241     1   118.8300510 581.576000
  12213  12216  12217     1   123.2000528 564.003200
  12213  12216  12265     1   112.2600482 538.062400
  12216  12265  12246     1   118.5150508 540.957728
  12217  12216  12265     1   118.8300510 581.576000
  12218  12219  12221     1   111.5100476 526.347200
  12218  12219  12239     1   110.1900474 564.840000
  12218  12229  12234     1   110.1900474 564.840000
  12218  12236  12223     1   112.4800480 524.673600
  12219  12218  12229     1   111.5100476 526.347200
  12219  12218  12236     1   107.9700462 569.024000
  12219  12221  12222     1   111.5100476 526.347200
  12219  12221  12228     1   110.1900474 564.840000
  12221  12219  12239     1   110.1900474 564.840000
  12221  12222  12223     1   111.5100476 526.347200
  12221  12222  12241     1   111.0400475 552.288000
  12222  12221  12228     1   110.1900474 564.840000
  12222  12223  12227     1   110.1900474 564.840000
  12222  12223  12236     1   107.9700462 569.024000
  12223  12222  12241     1   111.0400475 552.288000
  12227  12223  12236     1   109.3800466 607.516800
  12229  12218  12236     1   107.9700462 569.024000
  12242  12243  12245     1   111.5100476 526.347200
  12242  12243  12263     1   110.1900474 564.840000
  12242  12253  12258     1   110.1900474 564.840000
  12242  12260  12247     1   112.4800480 524.673600
  12243  12242  12253     1   111.5100476 526.347200
  12243  12242  12260     1   107.9700462 569.024000
  12243  12245  12246     1   111.5100476 526.347200
  12243  12245  12252     1   110.1900474 564.840000
  12245  12243  12263     1   110.1900474 564.840000
  12245  12246  12247     1   111.5100476 526.347200
  12245  12246  12265     1   111.0400475 552.288000
  12246  12245  12252     1   110.1900474 564.840000
  12246  12247  12251     1   110.1900474 564.840000
  12246  12247  12260     1   107.9700462 569.024000
  12247  12246  12265     1   111.0400475 552.288000
  12251  12247  12260     1   109.3800466 607.516800
  12253  12242  12260     1   107.9700462 569.024000
  12266  12268  12270     1   111.6100477 551.451200
  12268  12270  12274     1   111.0400475 552.288000
  12270  12274  12275     1   112.3500484 533.878400
  12270  12274  12276     1   112.3500484 533.878400
  12274  12275  12286     1   111.0400475 552.288000
  12274  12276  12278     1   111.0400475 552.288000
  12275  12286  12289     1   111.0400475 529.694400
  12275  12274  12276     1   112.3500484 533.878400
  12276  12278  12282     1   111.0400475 529.694400
  12278  12282  12283     1   123.2000528 564.003200
  12278  12282  12314     1   112.2600482 538.062400
  12282  12314  12295     1   118.5150508 540.957728
  12283  12282  12314     1   118.8300510 581.576000
  12286  12289  12290     1   123.2000528 564.003200
  12286  12289  12338     1   112.2600482 538.062400
  12289  12338  12319     1   118.5150508 540.957728
  12290  12289  12338     1   118.8300510 581.576000
  12291  12292  12294     1   111.5100476 526.347200
  12291  12292  12312     1   110.1900474 564.840000
  12291  12302  12307     1   110.1900474 564.840000
  12291  12309  12296     1   112.4800480 524.673600
  12292  12294  12295     1   111.5100476 526.347200
  12292  12294  12301     1   110.1900474 564.840000
  12292  12291  12302     1   111.5100476 526.347200
  12292  12291  12309     1   107.9700462 569.024000
  12294  12295  12296     1   111.5100476 526.347200
  12294  12295  12314     1   111.0400475 552.288000
  12294  12292  12312     1   110.1900474 564.840000
  12295  12296  12300     1   110.1900474 564.840000
  12295  12296  12309     1   107.9700462 569.024000
  12295  12294  12301     1   110.1900474 564.840000
  12296  12295  12314     1   111.0400475 552.288000
  12300  12296  12309     1   109.3800466 607.516800
  12302  12291  12309     1   107.9700462 569.024000
  12315  12316  12318     1   111.5100476 526.347200
  12315  12316  12336     1   110.1900474 564.840000
  12315  12326  12331     1   110.1900474 564.840000
  12315  12333  12320     1   112.4800480 524.673600
  12316  12318  12319     1   111.5100476 526.347200
  12316  12318  12325     1   110.1900474 564.840000
  12316  12315  12326     1   111.5100476 526.347200
  12316  12315  12333     1   107.9700462 569.024000
  12318  12319  12320     1   111.5100476 526.347200
  12318  12319  12338     1   111.0400475 552.288000
  12318  12316  12336     1   110.1900474 564.840000
  12319  12320  12324     1   110.1900474 564.840000
  12319  12320  12333     1   107.9700462 569.024000
  12319  12318  12325     1   110.1900474 564.840000
  12320  12319  12338     1   111.0400475 552.288000
  12324  12320  12333     1   109.3800466 607.516800
  12326  12315  12333     1   107.9700462 569.024000
  12339  12341  12343     1   111.6100477 551.451200
  12341  12343  12347     1   111.0400475 552.288000
  12343  12347  12348     1   112.3500484 533.878400
  12343  12347  12349     1   112.3500484 533.878400
  12347  12348  12359     1   111.0400475 552.288000
  12347  12349  12351     1   111.0400475 552.288000
  12348  12347  12349     1   112.3500484 533.878400
  12348  12359  12362     1   111.0400475 529.694400
  12349  12351  12355     1   111.0400475 529.694400
  12351  12355  12356     1   123.2000528 564.003200
  12351  12355  12387     1   112.2600482 538.062400
  12355  12387  12368     1   118.5150508 540.957728
  12356  12355  12387     1   118.8300510 581.576000
  12359  12362  12363     1   123.2000528 564.003200
  12359  12362  12411     1   112.2600482 538.062400
  12362  12411  12392     1   118.5150508 540.957728
  12363  12362  12411     1   118.8300510 581.576000
  12364  12365  12367     1   111.5100476 526.347200
  12364  12365  12385     1   110.1900474 564.840000
  12364  12375  12380     1   110.1900474 564.840000
  12364  12382  12369     1   112.4800480 524.673600
  12365  12364  12375     1   111.5100476 526.347200
  12365  12364  12382     1   107.9700462 569.024000
  12365  12367  12368     1   111.5100476 526.347200
  12365  12367  12374     1   110.1900474 564.840000
  12367  12365  12385     1   110.1900474 564.840000
  12367  12368  12369     1   111.5100476 526.347200
  12367  12368  12387     1   111.0400475 552.288000
  12368  12367  12374     1   110.1900474 564.840000
  12368  12369  12373     1   110.1900474 564.840000
  12368  12369  12382     1   107.9700462 569.024000
  12369  12368  12387     1   111.0400475 552.288000
  12373  12369  12382     1   109.3800466 607.516800
  12375  12364  12382     1   107.9700462 569.024000
  12388  12389  12391     1   111.5100476 526.347200
  12388  12389  12409     1   110.1900474 564.840000
  12388  12399  12404     1   110.1900474 564.840000
  12388  12406  12393     1   112.4800480 524.673600
  12389  12388  12399     1   111.5100476 526.347200
  12389  12388  12406     1   107.9700462 569.024000
  12389  12391  12392     1   111.5100476 526.347200
  12389  12391  12398     1   110.1900474 564.840000
  12391  12389  12409     1   110.1900474 564.840000
  12391  12392  12393     1   111.5100476 526.347200
  12391  12392  12411     1   111.0400475 552.288000
  12392  12391  12398     1   110.1900474 564.840000
  12392  12393  12397     1   110.1900474 564.840000
  12392  12393  12406     1   107.9700462 569.024000
  12393  12392  12411     1   111.0400475 552.288000
  12397  12393  12406     1   109.3800466 607.516800
  12399  12388  12406     1   107.9700462 569.024000
  12412  12414  12416     1   111.6100477 551.451200
  12414  12416  12420     1   111.0400475 552.288000
  12416  12420  12421     1   112.3500484 533.878400
  12416  12420  12422     1   112.3500484 533.878400
  12420  12421  12432     1   111.0400475 552.288000
  12420  12422  12424     1   111.0400475 552.288000
  12421  12432  12435     1   111.0400475 529.694400
  12421  12420  12422     1   112.3500484 533.878400
  12422  12424  12428     1   111.0400475 529.694400
  12424  12428  12429     1   123.2000528 564.003200
  12424  12428  12460     1   112.2600482 538.062400
  12428  12460  12441     1   118.5150508 540.957728
  12429  12428  12460     1   118.8300510 581.576000
  12432  12435  12436     1   123.2000528 564.003200
  12432  12435  12484     1   112.2600482 538.062400
  12435  12484  12465     1   118.5150508 540.957728
  12436  12435  12484     1   118.8300510 581.576000
  12437  12438  12440     1   111.5100476 526.347200
  12437  12438  12458     1   110.1900474 564.840000
  12437  12448  12453     1   110.1900474 564.840000
  12437  12455  12442     1   112.4800480 524.673600
  12438  12440  12441     1   111.5100476 526.347200
  12438  12440  12447     1   110.1900474 564.840000
  12438  12437  12448     1   111.5100476 526.347200
  12438  12437  12455     1   107.9700462 569.024000
  12440  12441  12442     1   111.5100476 526.347200
  12440  12441  12460     1   111.0400475 552.288000
  12440  12438  12458     1   110.1900474 564.840000
  12441  12442  12446     1   110.1900474 564.840000
  12441  12442  12455     1   107.9700462 569.024000
  12441  12440  12447     1   110.1900474 564.840000
  12442  12441  12460     1   111.0400475 552.288000
  12446  12442  12455     1   109.3800466 607.516800
  12448  12437  12455     1   107.9700462 569.024000
  12461  12462  12464     1   111.5100476 526.347200
  12461  12462  12482     1   110.1900474 564.840000
  12461  12472  12477     1   110.1900474 564.840000
  12461  12479  12466     1   112.4800480 524.673600
  12462  12464  12465     1   111.5100476 526.347200
  12462  12464  12471     1   110.1900474 564.840000
  12462  12461  12472     1   111.5100476 526.347200
  12462  12461  12479     1   107.9700462 569.024000
  12464  12465  12466     1   111.5100476 526.347200
  12464  12465  12484     1   111.0400475 552.288000
  12464  12462  12482     1   110.1900474 564.840000
  12465  12466  12470     1   110.1900474 564.840000
  12465  12466  12479     1   107.9700462 569.024000
  12465  12464  12471     1   110.1900474 564.840000
  12466  12465  12484     1   111.0400475 552.288000
  12470  12466  12479     1   109.3800466 607.516800
  12472  12461  12479     1   107.9700462 569.024000
      1      4      5     1   109.5600471 388.275200
      1      4      6     1   109.5600471 388.275200
      2      1      4     1   109.5600471 388.275200
      2      1      8     1   109.8800469 414.216000
      2      1      3     1   108.4600466 328.025600
      3      1      4     1   109.5600471 388.275200
      3      1      8     1   109.8800469 414.216000
      5      4      7     1   109.8800469 414.216000
      5      4      6     1   108.4600466 328.025600
      6      4      7     1   109.8800469 414.216000
      7     15     16     1   109.8800469 414.216000
      7     15     17     1   109.8800469 414.216000
      7     18     19     1   109.8800469 414.216000
      7     18     20     1   109.8800469 414.216000
      8      9     10     1   109.8800469 414.216000
      8      9     11     1   109.8800469 414.216000
      8     12     13     1   109.8800469 414.216000
      8     12     14     1   109.8800469 414.216000
      9     30     31     1   109.8000471 387.438400
      9     30     32     1   109.8000471 387.438400
     10      9     30     1   109.5600471 388.275200
     10      9     11     1   108.4600466 328.025600
     11      9     30     1   109.5600471 388.275200
     12     27     28     1   109.8000471 387.438400
     12     27     29     1   109.8000471 387.438400
     13     12     27     1   109.5600471 388.275200
     13     12     14     1   108.4600466 328.025600
     14     12     27     1   109.5600471 388.275200
     15     21     22     1   109.8000471 387.438400
     15     21     23     1   109.8000471 387.438400
     16     15     21     1   109.5600471 388.275200
     16     15     17     1   108.4600466 328.025600
     17     15     21     1   109.5600471 388.275200
     18     24     25     1   109.8000471 387.438400
     18     24     26     1   109.8000471 387.438400
     19     18     24     1   109.5600471 388.275200
     19     18     20     1   108.4600466 328.025600
     20     18     24     1   109.5600471 388.275200
     22     21     35     1   108.7700466 392.459200
     22     21     23     1   107.5800459 329.699200
     23     21     35     1   108.7700466 392.459200
     25     24     36     1   108.7700466 392.459200
     25     24     26     1   107.5800459 329.699200
     26     24     36     1   108.7700466 392.459200
     28     27     33     1   108.7700466 392.459200
     28     27     29     1   107.5800459 329.699200
     29     27     33     1   108.7700466 392.459200
     31     30     34     1   108.7700466 392.459200
     31     30     32     1   107.5800459 329.699200
     32     30     34     1   108.7700466 392.459200
     33     64     65     1   117.5500507 404.174400
     34     89     90     1   117.5500507 404.174400
     35    114    115     1   117.5500507 404.174400
     36    139    140     1   117.5500507 404.174400
     41     44     45     1   109.5600471 388.275200
     41     44     46     1   109.5600471 388.275200
     42     41     44     1   109.5600471 388.275200
     42     41     47     1   109.8800469 414.216000
     42     41     43     1   108.4600466 328.025600
     43     41     44     1   109.5600471 388.275200
     43     41     47     1   109.8800469 414.216000
     44     64     65     1   117.6800502 383.254400
     45     44     64     1   108.8800464 416.726400
     45     44     46     1   108.4600466 328.025600
     46     44     64     1   108.8800464 416.726400
     47     48     49     1   109.8800469 414.216000
     47     48     50     1   109.8800469 414.216000
     47     51     52     1   109.8800469 414.216000
     47     51     53     1   109.8800469 414.216000
     48     57     58     1   109.8000471 387.438400
     48     57     59     1   109.8000471 387.438400
     49     48     57     1   109.5600471 388.275200
     49     48     50     1   108.4600466 328.025600
     50     48     57     1   109.5600471 388.275200
     51     54     55     1   109.8000471 387.438400
     51     54     56     1   109.8000471 387.438400
     52     51     54     1   109.5600471 388.275200
     52     51     53     1   108.4600466 328.025600
     53     51     54     1   109.5600471 388.275200
     55     54     60     1   108.7700466 392.459200
     55     54     56     1   107.5800459 329.699200
     56     54     60     1   108.7700466 392.459200
     58     57     61     1   108.7700466 392.459200
     58     57     59     1   107.5800459 329.699200
     59     57     61     1   108.7700466 392.459200
     60    164    165     1   117.5500507 404.174400
     61    189    190     1   117.5500507 404.174400
     66     69     70     1   109.5600471 388.275200
     66     69     71     1   109.5600471 388.275200
     67     66     69     1   109.5600471 388.275200
     67     66     72     1   109.8800469 414.216000
     67     66     68     1   108.4600466 328.025600
     68     66     69     1   109.5600471 388.275200
     68     66     72     1   109.8800469 414.216000
     69     89     90     1   117.6800502 383.254400
     70     69     89     1   108.8800464 416.726400
     70     69     71     1   108.4600466 328.025600
     71     69     89     1   108.8800464 416.726400
     72     73     74     1   109.8800469 414.216000
     72     73     75     1   109.8800469 414.216000
     72     76     77     1   109.8800469 414.216000
     72     76     78     1   109.8800469 414.216000
     73     82     83     1   109.8000471 387.438400
     73     82     84     1   109.8000471 387.438400
     74     73     82     1   109.5600471 388.275200
     74     73     75     1   108.4600466 328.025600
     75     73     82     1   109.5600471 388.275200
     76     79     80     1   109.8000471 387.438400
     76     79     81     1   109.8000471 387.438400
     77     76     79     1   109.5600471 388.275200
     77     76     78     1   108.4600466 328.025600
     78     76     79     1   109.5600471 388.275200
     80     79     85     1   108.7700466 392.459200
     80     79     81     1   107.5800459 329.699200
     81     79     85     1   108.7700466 392.459200
     83     82     86     1   108.7700466 392.459200
     83     82     84     1   107.5800459 329.699200
     84     82     86     1   108.7700466 392.459200
     85    214    215     1   117.5500507 404.174400
     86    239    240     1   117.5500507 404.174400
     91     94     95     1   109.5600471 388.275200
     91     94     96     1   109.5600471 388.275200
     92     91     94     1   109.5600471 388.275200
     92     91     97     1   109.8800469 414.216000
     92     91     93     1   108.4600466 328.025600
     93     91     94     1   109.5600471 388.275200
     93     91     97     1   109.8800469 414.216000
     94    114    115     1   117.6800502 383.254400
     95     94    114     1   108.8800464 416.726400
     95     94     96     1   108.4600466 328.025600
     96     94    114     1   108.8800464 416.726400
     97     98     99     1   109.8800469 414.216000
     97     98    100     1   109.8800469 414.216000
     97    101    102     1   109.8800469 414.216000
     97    101    103     1   109.8800469 414.216000
     98    107    108     1   109.8000471 387.438400
     98    107    109     1   109.8000471 387.438400
     99     98    107     1   109.5600471 388.275200
     99     98    100     1   108.4600466 328.025600
    100     98    107     1   109.5600471 388.275200
    101    104    105     1   109.8000471 387.438400
    101    104    106     1   109.8000471 387.438400
    102    101    104     1   109.5600471 388.275200
    102    101    103     1   108.4600466 328.025600
    103    101    104     1   109.5600471 388.275200
    105    104    110     1   108.7700466 392.459200
    105    104    106     1   107.5800459 329.699200
    106    104    110     1   108.7700466 392.459200
    108    107    111     1   108.7700466 392.459200
    108    107    109     1   107.5800459 329.699200
    109    107    111     1   108.7700466 392.459200
    110    264    265     1   117.5500507 404.174400
    111    289    290     1   117.5500507 404.174400
    116    119    120     1   109.5600471 388.275200
    116    119    121     1   109.5600471 388.275200
    117    116    119     1   109.5600471 388.275200
    117    116    122     1   109.8800469 414.216000
    117    116    118     1   108.4600466 328.025600
    118    116    119     1   109.5600471 388.275200
    118    116    122     1   109.8800469 414.216000
    119    139    140     1   117.6800502 383.254400
    120    119    139     1   108.8800464 416.726400
    120    119    121     1   108.4600466 328.025600
    121    119    139     1   108.8800464 416.726400
    122    123    124     1   109.8800469 414.216000
    122    123    125     1   109.8800469 414.216000
    122    126    127     1   109.8800469 414.216000
    122    126    128     1   109.8800469 414.216000
    123    132    133     1   109.8000471 387.438400
    123    132    134     1   109.8000471 387.438400
    124    123    132     1   109.5600471 388.275200
    124    123    125     1   108.4600466 328.025600
    125    123    132     1   109.5600471 388.275200
    126    129    130     1   109.8000471 387.438400
    126    129    131     1   109.8000471 387.438400
    127    126    129     1   109.5600471 388.275200
    127    126    128     1   108.4600466 328.025600
    128    126    129     1   109.5600471 388.275200
    130    129    135     1   108.7700466 392.459200
    130    129    131     1   107.5800459 329.699200
    131    129    135     1   108.7700466 392.459200
    133    132    136     1   108.7700466 392.459200
    133    132    134     1   107.5800459 329.699200
    134    132    136     1   108.7700466 392.459200
    135    314    315     1   117.5500507 404.174400
    136    339    340     1   117.5500507 404.174400
    141    144    145     1   109.5600471 388.275200
    141    144    146     1   109.5600471 388.275200
    142    141    144     1   109.5600471 388.275200
    142    141    147     1   109.8800469 414.216000
    142    141    143     1   108.4600466 328.025600
    143    141    144     1   109.5600471 388.275200
    143    141    147     1   109.8800469 414.216000
    144    164    165     1   117.6800502 383.254400
    145    144    164     1   108.8800464 416.726400
    145    144    146     1   108.4600466 328.025600
    146    144    164     1   108.8800464 416.726400
    147    148    149     1   109.8800469 414.216000
    147    148    150     1   109.8800469 414.216000
    147    151    152     1   109.8800469 414.216000
    147    151    153     1   109.8800469 414.216000
    148    157    158     1   109.8000471 387.438400
    148    157    159     1   109.8000471 387.438400
    149    148    157     1   109.5600471 388.275200
    149    148    150     1   108.4600466 328.025600
    150    148    157     1   109.5600471 388.275200
    151    154    155     1   109.8000471 387.438400
    151    154    156     1   109.8000471 387.438400
    152    151    154     1   109.5600471 388.275200
    152    151    153     1   108.4600466 328.025600
    153    151    154     1   109.5600471 388.275200
    155    154    160     1   108.7700466 392.459200
    155    154    156     1   107.5800459 329.699200
    156    154    160     1   108.7700466 392.459200
    158    157    161     1   108.7700466 392.459200
    158    157    159     1   107.5800459 329.699200
    159    157    161     1   108.7700466 392.459200
    160    364    365     1   117.5500507 404.174400
    161    389    390     1   117.5500507 404.174400
    166    169    170     1   109.5600471 388.275200
    166    169    171     1   109.5600471 388.275200
    167    166    169     1   109.5600471 388.275200
    167    166    172     1   109.8800469 414.216000
    167    166    168     1   108.4600466 328.025600
    168    166    169     1   109.5600471 388.275200
    168    166    172     1   109.8800469 414.216000
    169    189    190     1   117.6800502 383.254400
    170    169    189     1   108.8800464 416.726400
    170    169    171     1   108.4600466 328.025600
    171    169    189     1   108.8800464 416.726400
    172    173    174     1   109.8800469 414.216000
    172    173    175     1   109.8800469 414.216000
    172    176    177     1   109.8800469 414.216000
    172    176    178     1   109.8800469 414.216000
    173    182    183     1   109.8000471 387.438400
    173    182    184     1   109.8000471 387.438400
    174    173    182     1   109.5600471 388.275200
    174    173    175     1   108.4600466 328.025600
    175    173    182     1   109.5600471 388.275200
    176    179    180     1   109.8000471 387.438400
    176    179    181     1   109.8000471 387.438400
    177    176    179     1   109.5600471 388.275200
    177    176    178     1   108.4600466 328.025600
    178    176    179     1   109.5600471 388.275200
    180    179    185     1   108.7700466 392.459200
    180    179    181     1   107.5800459 329.699200
    181    179    185     1   108.7700466 392.459200
    183    182    186     1   108.7700466 392.459200
    183    182    184     1   107.5800459 329.699200
    184    182    186     1   108.7700466 392.459200
    185    414    415     1   117.5500507 404.174400
    186    439    440     1   117.5500507 404.174400
    191    194    195     1   109.5600471 388.275200
    191    194    196     1   109.5600471 388.275200
    192    191    194     1   109.5600471 388.275200
    192    191    197     1   109.8800469 414.216000
    192    191    193     1   108.4600466 328.025600
    193    191    194     1   109.5600471 388.275200
    193    191    197     1   109.8800469 414.216000
    194    214    215     1   117.6800502 383.254400
    195    194    214     1   108.8800464 416.726400
    195    194    196     1   108.4600466 328.025600
    196    194    214     1   108.8800464 416.726400
    197    198    199     1   109.8800469 414.216000
    197    198    200     1   109.8800469 414.216000
    197    201    202     1   109.8800469 414.216000
    197    201    203     1   109.8800469 414.216000
    198    207    208     1   109.8000471 387.438400
    198    207    209     1   109.8000471 387.438400
    199    198    207     1   109.5600471 388.275200
    199    198    200     1   108.4600466 328.025600
    200    198    207     1   109.5600471 388.275200
    201    204    205     1   109.8000471 387.438400
    201    204    206     1   109.8000471 387.438400
    202    201    204     1   109.5600471 388.275200
    202    201    203     1   108.4600466 328.025600
    203    201    204     1   109.5600471 388.275200
    205    204    210     1   108.7700466 392.459200
    205    204    206     1   107.5800459 329.699200
    206    204    210     1   108.7700466 392.459200
    208    207    211     1   108.7700466 392.459200
    208    207    209     1   107.5800459 329.699200
    209    207    211     1   108.7700466 392.459200
    210    464    465     1   117.5500507 404.174400
    211    489    490     1   117.5500507 404.174400
    216    219    220     1   109.5600471 388.275200
    216    219    221     1   109.5600471 388.275200
    217    216    219     1   109.5600471 388.275200
    217    216    222     1   109.8800469 414.216000
    217    216    218     1   108.4600466 328.025600
    218    216    219     1   109.5600471 388.275200
    218    216    222     1   109.8800469 414.216000
    219    239    240     1   117.6800502 383.254400
    220    219    239     1   108.8800464 416.726400
    220    219    221     1   108.4600466 328.025600
    221    219    239     1   108.8800464 416.726400
    222    223    224     1   109.8800469 414.216000
    222    223    225     1   109.8800469 414.216000
    222    226    227     1   109.8800469 414.216000
    222    226    228     1   109.8800469 414.216000
    223    232    233     1   109.8000471 387.438400
    223    232    234     1   109.8000471 387.438400
    224    223    232     1   109.5600471 388.275200
    224    223    225     1   108.4600466 328.025600
    225    223    232     1   109.5600471 388.275200
    226    229    230     1   109.8000471 387.438400
    226    229    231     1   109.8000471 387.438400
    227    226    229     1   109.5600471 388.275200
    227    226    228     1   108.4600466 328.025600
    228    226    229     1   109.5600471 388.275200
    230    229    235     1   108.7700466 392.459200
    230    229    231     1   107.5800459 329.699200
    231    229    235     1   108.7700466 392.459200
    233    232    236     1   108.7700466 392.459200
    233    232    234     1   107.5800459 329.699200
    234    232    236     1   108.7700466 392.459200
    235    514    515     1   117.5500507 404.174400
    236    539    540     1   117.5500507 404.174400
    241    244    245     1   109.5600471 388.275200
    241    244    246     1   109.5600471 388.275200
    242    241    244     1   109.5600471 388.275200
    242    241    247     1   109.8800469 414.216000
    242    241    243     1   108.4600466 328.025600
    243    241    244     1   109.5600471 388.275200
    243    241    247     1   109.8800469 414.216000
    244    264    265     1   117.6800502 383.254400
    245    244    264     1   108.8800464 416.726400
    245    244    246     1   108.4600466 328.025600
    246    244    264     1   108.8800464 416.726400
    247    248    249     1   109.8800469 414.216000
    247    248    250     1   109.8800469 414.216000
    247    251    252     1   109.8800469 414.216000
    247    251    253     1   109.8800469 414.216000
    248    257    258     1   109.8000471 387.438400
    248    257    259     1   109.8000471 387.438400
    249    248    257     1   109.5600471 388.275200
    249    248    250     1   108.4600466 328.025600
    250    248    257     1   109.5600471 388.275200
    251    254    255     1   109.8000471 387.438400
    251    254    256     1   109.8000471 387.438400
    252    251    254     1   109.5600471 388.275200
    252    251    253     1   108.4600466 328.025600
    253    251    254     1   109.5600471 388.275200
    255    254    260     1   108.7700466 392.459200
    255    254    256     1   107.5800459 329.699200
    256    254    260     1   108.7700466 392.459200
    258    257    261     1   108.7700466 392.459200
    258    257    259     1   107.5800459 329.699200
    259    257    261     1   108.7700466 392.459200
    260    564    565     1   117.5500507 404.174400
    261    589    590     1   117.5500507 404.174400
    266    269    270     1   109.5600471 388.275200
    266    269    271     1   109.5600471 388.275200
    267    266    269     1   109.5600471 388.275200
    267    266    272     1   109.8800469 414.216000
    267    266    268     1   108.4600466 328.025600
    268    266    269     1   109.5600471 388.275200
    268    266    272     1   109.8800469 414.216000
    269    289    290     1   117.6800502 383.254400
    270    269    289     1   108.8800464 416.726400
    270    269    271     1   108.4600466 328.025600
    271    269    289     1   108.8800464 416.726400
    272    273    274     1   109.8800469 414.216000
    272    273    275     1   109.8800469 414.216000
    272    276    277     1   109.8800469 414.216000
    272    276    278     1   109.8800469 414.216000
    273    282    283     1   109.8000471 387.438400
    273    282    284     1   109.8000471 387.438400
    274    273    282     1   109.5600471 388.275200
    274    273    275     1   108.4600466 328.025600
    275    273    282     1   109.5600471 388.275200
    276    279    280     1   109.8000471 387.438400
    276    279    281     1   109.8000471 387.438400
    277    276    279     1   109.5600471 388.275200
    277    276    278     1   108.4600466 328.025600
    278    276    279     1   109.5600471 388.275200
    280    279    285     1   108.7700466 392.459200
    280    279    281     1   107.5800459 329.699200
    281    279    285     1   108.7700466 392.459200
    283    282    286     1   108.7700466 392.459200
    283    282    284     1   107.5800459 329.699200
    284    282    286     1   108.7700466 392.459200
    285    614    615     1   117.5500507 404.174400
    286    639    640     1   117.5500507 404.174400
    291    294    295     1   109.5600471 388.275200
    291    294    296     1   109.5600471 388.275200
    292    291    294     1   109.5600471 388.275200
    292    291    297     1   109.8800469 414.216000
    292    291    293     1   108.4600466 328.025600
    293    291    294     1   109.5600471 388.275200
    293    291    297     1   109.8800469 414.216000
    294    314    315     1   117.6800502 383.254400
    295    294    314     1   108.8800464 416.726400
    295    294    296     1   108.4600466 328.025600
    296    294    314     1   108.8800464 416.726400
    297    298    299     1   109.8800469 414.216000
    297    298    300     1   109.8800469 414.216000
    297    301    302     1   109.8800469 414.216000
    297    301    303     1   109.8800469 414.216000
    298    307    308     1   109.8000471 387.438400
    298    307    309     1   109.8000471 387.438400
    299    298    307     1   109.5600471 388.275200
    299    298    300     1   108.4600466 328.025600
    300    298    307     1   109.5600471 388.275200
    301    304    305     1   109.8000471 387.438400
    301    304    306     1   109.8000471 387.438400
    302    301    304     1   109.5600471 388.275200
    302    301    303     1   108.4600466 328.025600
    303    301    304     1   109.5600471 388.275200
    305    304    310     1   108.7700466 392.459200
    305    304    306     1   107.5800459 329.699200
    306    304    310     1   108.7700466 392.459200
    308    307    311     1   108.7700466 392.459200
    308    307    309     1   107.5800459 329.699200
    309    307    311     1   108.7700466 392.459200
    310    664    665     1   117.5500507 404.174400
    311    689    690     1   117.5500507 404.174400
    316    319    320     1   109.5600471 388.275200
    316    319    321     1   109.5600471 388.275200
    317    316    319     1   109.5600471 388.275200
    317    316    322     1   109.8800469 414.216000
    317    316    318     1   108.4600466 328.025600
    318    316    319     1   109.5600471 388.275200
    318    316    322     1   109.8800469 414.216000
    319    339    340     1   117.6800502 383.254400
    320    319    339     1   108.8800464 416.726400
    320    319    321     1   108.4600466 328.025600
    321    319    339     1   108.8800464 416.726400
    322    323    324     1   109.8800469 414.216000
    322    323    325     1   109.8800469 414.216000
    322    326    327     1   109.8800469 414.216000
    322    326    328     1   109.8800469 414.216000
    323    332    333     1   109.8000471 387.438400
    323    332    334     1   109.8000471 387.438400
    324    323    332     1   109.5600471 388.275200
    324    323    325     1   108.4600466 328.025600
    325    323    332     1   109.5600471 388.275200
    326    329    330     1   109.8000471 387.438400
    326    329    331     1   109.8000471 387.438400
    327    326    329     1   109.5600471 388.275200
    327    326    328     1   108.4600466 328.025600
    328    326    329     1   109.5600471 388.275200
    330    329    335     1   108.7700466 392.459200
    330    329    331     1   107.5800459 329.699200
    331    329    335     1   108.7700466 392.459200
    333    332    336     1   108.7700466 392.459200
    333    332    334     1   107.5800459 329.699200
    334    332    336     1   108.7700466 392.459200
    335    714    715     1   117.5500507 404.174400
    336    739    740     1   117.5500507 404.174400
    341    344    345     1   109.5600471 388.275200
    341    344    346     1   109.5600471 388.275200
    342    341    344     1   109.5600471 388.275200
    342    341    347     1   109.8800469 414.216000
    342    341    343     1   108.4600466 328.025600
    343    341    344     1   109.5600471 388.275200
    343    341    347     1   109.8800469 414.216000
    344    364    365     1   117.6800502 383.254400
    345    344    364     1   108.8800464 416.726400
    345    344    346     1   108.4600466 328.025600
    346    344    364     1   108.8800464 416.726400
    347    348    349     1   109.8800469 414.216000
    347    348    350     1   109.8800469 414.216000
    347    351    352     1   109.8800469 414.216000
    347    351    353     1   109.8800469 414.216000
    348    357    358     1   109.8000471 387.438400
    348    357    359     1   109.8000471 387.438400
    349    348    357     1   109.5600471 388.275200
    349    348    350     1   108.4600466 328.025600
    350    348    357     1   109.5600471 388.275200
    351    354    355     1   109.8000471 387.438400
    351    354    356     1   109.8000471 387.438400
    352    351    354     1   109.5600471 388.275200
    352    351    353     1   108.4600466 328.025600
    353    351    354     1   109.5600471 388.275200
    355    354    360     1   108.7700466 392.459200
    355    354    356     1   107.5800459 329.699200
    356    354    360     1   108.7700466 392.459200
    358    357    361     1   108.7700466 392.459200
    358    357    359     1   107.5800459 329.699200
    359    357    361     1   108.7700466 392.459200
    360    764    765     1   117.5500507 404.174400
    361    789    790     1   117.5500507 404.174400
    366    369    370     1   109.5600471 388.275200
    366    369    371     1   109.5600471 388.275200
    367    366    369     1   109.5600471 388.275200
    367    366    372     1   109.8800469 414.216000
    367    366    368     1   108.4600466 328.025600
    368    366    369     1   109.5600471 388.275200
    368    366    372     1   109.8800469 414.216000
    369    389    390     1   117.6800502 383.254400
    370    369    389     1   108.8800464 416.726400
    370    369    371     1   108.4600466 328.025600
    371    369    389     1   108.8800464 416.726400
    372    373    374     1   109.8800469 414.216000
    372    373    375     1   109.8800469 414.216000
    372    376    377     1   109.8800469 414.216000
    372    376    378     1   109.8800469 414.216000
    373    382    383     1   109.8000471 387.438400
    373    382    384     1   109.8000471 387.438400
    374    373    382     1   109.5600471 388.275200
    374    373    375     1   108.4600466 328.025600
    375    373    382     1   109.5600471 388.275200
    376    379    380     1   109.8000471 387.438400
    376    379    381     1   109.8000471 387.438400
    377    376    379     1   109.5600471 388.275200
    377    376    378     1   108.4600466 328.025600
    378    376    379     1   109.5600471 388.275200
    380    379    385     1   108.7700466 392.459200
    380    379    381     1   107.5800459 329.699200
    381    379    385     1   108.7700466 392.459200
    383    382    386     1   108.7700466 392.459200
    383    382    384     1   107.5800459 329.699200
    384    382    386     1   108.7700466 392.459200
    385    814    815     1   117.5500507 404.174400
    386    839    840     1   117.5500507 404.174400
    391    394    395     1   109.5600471 388.275200
    391    394    396     1   109.5600471 388.275200
    392    391    394     1   109.5600471 388.275200
    392    391    397     1   109.8800469 414.216000
    392    391    393     1   108.4600466 328.025600
    393    391    394     1   109.5600471 388.275200
    393    391    397     1   109.8800469 414.216000
    394    414    415     1   117.6800502 383.254400
    395    394    414     1   108.8800464 416.726400
    395    394    396     1   108.4600466 328.025600
    396    394    414     1   108.8800464 416.726400
    397    398    399     1   109.8800469 414.216000
    397    398    400     1   109.8800469 414.216000
    397    401    402     1   109.8800469 414.216000
    397    401    403     1   109.8800469 414.216000
    398    407    408     1   109.8000471 387.438400
    398    407    409     1   109.8000471 387.438400
    399    398    407     1   109.5600471 388.275200
    399    398    400     1   108.4600466 328.025600
    400    398    407     1   109.5600471 388.275200
    401    404    405     1   109.8000471 387.438400
    401    404    406     1   109.8000471 387.438400
    402    401    404     1   109.5600471 388.275200
    402    401    403     1   108.4600466 328.025600
    403    401    404     1   109.5600471 388.275200
    405    404    410     1   108.7700466 392.459200
    405    404    406     1   107.5800459 329.699200
    406    404    410     1   108.7700466 392.459200
    408    407    411     1   108.7700466 392.459200
    408    407    409     1   107.5800459 329.699200
    409    407    411     1   108.7700466 392.459200
    410    864    865     1   117.5500507 404.174400
    411    889    890     1   117.5500507 404.174400
    416    419    420     1   109.5600471 388.275200
    416    419    421     1   109.5600471 388.275200
    417    416    419     1   109.5600471 388.275200
    417    416    422     1   109.8800469 414.216000
    417    416    418     1   108.4600466 328.025600
    418    416    419     1   109.5600471 388.275200
    418    416    422     1   109.8800469 414.216000
    419    439    440     1   117.6800502 383.254400
    420    419    439     1   108.8800464 416.726400
    420    419    421     1   108.4600466 328.025600
    421    419    439     1   108.8800464 416.726400
    422    423    424     1   109.8800469 414.216000
    422    423    425     1   109.8800469 414.216000
    422    426    427     1   109.8800469 414.216000
    422    426    428     1   109.8800469 414.216000
    423    432    433     1   109.8000471 387.438400
    423    432    434     1   109.8000471 387.438400
    424    423    432     1   109.5600471 388.275200
    424    423    425     1   108.4600466 328.025600
    425    423    432     1   109.5600471 388.275200
    426    429    430     1   109.8000471 387.438400
    426    429    431     1   109.8000471 387.438400
    427    426    429     1   109.5600471 388.275200
    427    426    428     1   108.4600466 328.025600
    428    426    429     1   109.5600471 388.275200
    430    429    435     1   108.7700466 392.459200
    430    429    431     1   107.5800459 329.699200
    431    429    435     1   108.7700466 392.459200
    433    432    436     1   108.7700466 392.459200
    433    432    434     1   107.5800459 329.699200
    434    432    436     1   108.7700466 392.459200
    435    914    915     1   117.5500507 404.174400
    436    939    940     1   117.5500507 404.174400
    441    444    445     1   109.5600471 388.275200
    441    444    446     1   109.5600471 388.275200
    442    441    444     1   109.5600471 388.275200
    442    441    447     1   109.8800469 414.216000
    442    441    443     1   108.4600466 328.025600
    443    441    444     1   109.5600471 388.275200
    443    441    447     1   109.8800469 414.216000
    444    464    465     1   117.6800502 383.254400
    445    444    464     1   108.8800464 416.726400
    445    444    446     1   108.4600466 328.025600
    446    444    464     1   108.8800464 416.726400
    447    448    449     1   109.8800469 414.216000
    447    448    450     1   109.8800469 414.216000
    447    451    452     1   109.8800469 414.216000
    447    451    453     1   109.8800469 414.216000
    448    457    458     1   109.8000471 387.438400
    448    457    459     1   109.8000471 387.438400
    449    448    457     1   109.5600471 388.275200
    449    448    450     1   108.4600466 328.025600
    450    448    457     1   109.5600471 388.275200
    451    454    455     1   109.8000471 387.438400
    451    454    456     1   109.8000471 387.438400
    452    451    454     1   109.5600471 388.275200
    452    451    453     1   108.4600466 328.025600
    453    451    454     1   109.5600471 388.275200
    455    454    460     1   108.7700466 392.459200
    455    454    456     1   107.5800459 329.699200
    456    454    460     1   108.7700466 392.459200
    458    457    461     1   108.7700466 392.459200
    458    457    459     1   107.5800459 329.699200
    459    457    461     1   108.7700466 392.459200
    460    964    965     1   117.5500507 404.174400
    461    989    990     1   117.5500507 404.174400
    466    469    470     1   109.5600471 388.275200
    466    469    471     1   109.5600471 388.275200
    467    466    469     1   109.5600471 388.275200
    467    466    472     1   109.8800469 414.216000
    467    466    468     1   108.4600466 328.025600
    468    466    469     1   109.5600471 388.275200
    468    466    472     1   109.8800469 414.216000
    469    489    490     1   117.6800502 383.254400
    470    469    489     1   108.8800464 416.726400
    470    469    471     1   108.4600466 328.025600
    471    469    489     1   108.8800464 416.726400
    472    473    474     1   109.8800469 414.216000
    472    473    475     1   109.8800469 414.216000
    472    476    477     1   109.8800469 414.216000
    472    476    478     1   109.8800469 414.216000
    473    482    483     1   109.8000471 387.438400
    473    482    484     1   109.8000471 387.438400
    474    473    482     1   109.5600471 388.275200
    474    473    475     1   108.4600466 328.025600
    475    473    482     1   109.5600471 388.275200
    476    479    480     1   109.8000471 387.438400
    476    479    481     1   109.8000471 387.438400
    477    476    479     1   109.5600471 388.275200
    477    476    478     1   108.4600466 328.025600
    478    476    479     1   109.5600471 388.275200
    480    479    485     1   108.7700466 392.459200
    480    479    481     1   107.5800459 329.699200
    481    479    485     1   108.7700466 392.459200
    483    482    486     1   108.7700466 392.459200
    483    482    484     1   107.5800459 329.699200
    484    482    486     1   108.7700466 392.459200
    485   1014   1015     1   117.5500507 404.174400
    486   1039   1040     1   117.5500507 404.174400
    491    494    495     1   109.5600471 388.275200
    491    494    496     1   109.5600471 388.275200
    492    491    494     1   109.5600471 388.275200
    492    491    497     1   109.8800469 414.216000
    492    491    493     1   108.4600466 328.025600
    493    491    494     1   109.5600471 388.275200
    493    491    497     1   109.8800469 414.216000
    494    514    515     1   117.6800502 383.254400
    495    494    514     1   108.8800464 416.726400
    495    494    496     1   108.4600466 328.025600
    496    494    514     1   108.8800464 416.726400
    497    498    499     1   109.8800469 414.216000
    497    498    500     1   109.8800469 414.216000
    497    501    502     1   109.8800469 414.216000
    497    501    503     1   109.8800469 414.216000
    498    507    508     1   109.8000471 387.438400
    498    507    509     1   109.8000471 387.438400
    499    498    507     1   109.5600471 388.275200
    499    498    500     1   108.4600466 328.025600
    500    498    507     1   109.5600471 388.275200
    501    504    505     1   109.8000471 387.438400
    501    504    506     1   109.8000471 387.438400
    502    501    504     1   109.5600471 388.275200
    502    501    503     1   108.4600466 328.025600
    503    501    504     1   109.5600471 388.275200
    505    504    510     1   108.7700466 392.459200
    505    504    506     1   107.5800459 329.699200
    506    504    510     1   108.7700466 392.459200
    508    507    511     1   108.7700466 392.459200
    508    507    509     1   107.5800459 329.699200
    509    507    511     1   108.7700466 392.459200
    510   1064   1065     1   117.5500507 404.174400
    511   1089   1090     1   117.5500507 404.174400
    516    519    520     1   109.5600471 388.275200
    516    519    521     1   109.5600471 388.275200
    517    516    519     1   109.5600471 388.275200
    517    516    522     1   109.8800469 414.216000
    517    516    518     1   108.4600466 328.025600
    518    516    519     1   109.5600471 388.275200
    518    516    522     1   109.8800469 414.216000
    519    539    540     1   117.6800502 383.254400
    520    519    539     1   108.8800464 416.726400
    520    519    521     1   108.4600466 328.025600
    521    519    539     1   108.8800464 416.726400
    522    523    524     1   109.8800469 414.216000
    522    523    525     1   109.8800469 414.216000
    522    526    527     1   109.8800469 414.216000
    522    526    528     1   109.8800469 414.216000
    523    532    533     1   109.8000471 387.438400
    523    532    534     1   109.8000471 387.438400
    524    523    532     1   109.5600471 388.275200
    524    523    525     1   108.4600466 328.025600
    525    523    532     1   109.5600471 388.275200
    526    529    530     1   109.8000471 387.438400
    526    529    531     1   109.8000471 387.438400
    527    526    529     1   109.5600471 388.275200
    527    526    528     1   108.4600466 328.025600
    528    526    529     1   109.5600471 388.275200
    530    529    535     1   108.7700466 392.459200
    530    529    531     1   107.5800459 329.699200
    531    529    535     1   108.7700466 392.459200
    533    532    536     1   108.7700466 392.459200
    533    532    534     1   107.5800459 329.699200
    534    532    536     1   108.7700466 392.459200
    535   1114   1115     1   117.5500507 404.174400
    536   1139   1140     1   117.5500507 404.174400
    541    544    545     1   109.5600471 388.275200
    541    544    546     1   109.5600471 388.275200
    542    541    544     1   109.5600471 388.275200
    542    541    547     1   109.8800469 414.216000
    542    541    543     1   108.4600466 328.025600
    543    541    544     1   109.5600471 388.275200
    543    541    547     1   109.8800469 414.216000
    544    564    565     1   117.6800502 383.254400
    545    544    564     1   108.8800464 416.726400
    545    544    546     1   108.4600466 328.025600
    546    544    564     1   108.8800464 416.726400
    547    548    549     1   109.8800469 414.216000
    547    548    550     1   109.8800469 414.216000
    547    551    552     1   109.8800469 414.216000
    547    551    553     1   109.8800469 414.216000
    548    557    558     1   109.8000471 387.438400
    548    557    559     1   109.8000471 387.438400
    549    548    557     1   109.5600471 388.275200
    549    548    550     1   108.4600466 328.025600
    550    548    557     1   109.5600471 388.275200
    551    554    555     1   109.8000471 387.438400
    551    554    556     1   109.8000471 387.438400
    552    551    554     1   109.5600471 388.275200
    552    551    553     1   108.4600466 328.025600
    553    551    554     1   109.5600471 388.275200
    555    554    560     1   108.7700466 392.459200
    555    554    556     1   107.5800459 329.699200
    556    554    560     1   108.7700466 392.459200
    558    557    561     1   108.7700466 392.459200
    558    557    559     1   107.5800459 329.699200
    559    557    561     1   108.7700466 392.459200
    560   1164   1165     1   117.5500507 404.174400
    561   1189   1190     1   117.5500507 404.174400
    566    569    570     1   109.5600471 388.275200
    566    569    571     1   109.5600471 388.275200
    567    566    569     1   109.5600471 388.275200
    567    566    572     1   109.8800469 414.216000
    567    566    568     1   108.4600466 328.025600
    568    566    569     1   109.5600471 388.275200
    568    566    572     1   109.8800469 414.216000
    569    589    590     1   117.6800502 383.254400
    570    569    589     1   108.8800464 416.726400
    570    569    571     1   108.4600466 328.025600
    571    569    589     1   108.8800464 416.726400
    572    573    574     1   109.8800469 414.216000
    572    573    575     1   109.8800469 414.216000
    572    576    577     1   109.8800469 414.216000
    572    576    578     1   109.8800469 414.216000
    573    582    583     1   109.8000471 387.438400
    573    582    584     1   109.8000471 387.438400
    574    573    582     1   109.5600471 388.275200
    574    573    575     1   108.4600466 328.025600
    575    573    582     1   109.5600471 388.275200
    576    579    580     1   109.8000471 387.438400
    576    579    581     1   109.8000471 387.438400
    577    576    579     1   109.5600471 388.275200
    577    576    578     1   108.4600466 328.025600
    578    576    579     1   109.5600471 388.275200
    580    579    585     1   108.7700466 392.459200
    580    579    581     1   107.5800459 329.699200
    581    579    585     1   108.7700466 392.459200
    583    582    586     1   108.7700466 392.459200
    583    582    584     1   107.5800459 329.699200
    584    582    586     1   108.7700466 392.459200
    585   1214   1215     1   117.5500507 404.174400
    586   1239   1240     1   117.5500507 404.174400
    591    594    595     1   109.5600471 388.275200
    591    594    596     1   109.5600471 388.275200
    592    591    594     1   109.5600471 388.275200
    592    591    597     1   109.8800469 414.216000
    592    591    593     1   108.4600466 328.025600
    593    591    594     1   109.5600471 388.275200
    593    591    597     1   109.8800469 414.216000
    594    614    615     1   117.6800502 383.254400
    595    594    614     1   108.8800464 416.726400
    595    594    596     1   108.4600466 328.025600
    596    594    614     1   108.8800464 416.726400
    597    598    599     1   109.8800469 414.216000
    597    598    600     1   109.8800469 414.216000
    597    601    602     1   109.8800469 414.216000
    597    601    603     1   109.8800469 414.216000
    598    607    608     1   109.8000471 387.438400
    598    607    609     1   109.8000471 387.438400
    599    598    607     1   109.5600471 388.275200
    599    598    600     1   108.4600466 328.025600
    600    598    607     1   109.5600471 388.275200
    601    604    605     1   109.8000471 387.438400
    601    604    606     1   109.8000471 387.438400
    602    601    604     1   109.5600471 388.275200
    602    601    603     1   108.4600466 328.025600
    603    601    604     1   109.5600471 388.275200
    605    604    610     1   108.7700466 392.459200
    605    604    606     1   107.5800459 329.699200
    606    604    610     1   108.7700466 392.459200
    608    607    611     1   108.7700466 392.459200
    608    607    609     1   107.5800459 329.699200
    609    607    611     1   108.7700466 392.459200
    610   1264   1265     1   117.5500507 404.174400
    611   1289   1290     1   117.5500507 404.174400
    616    619    620     1   109.5600471 388.275200
    616    619    621     1   109.5600471 388.275200
    617    616    619     1   109.5600471 388.275200
    617    616    622     1   109.8800469 414.216000
    617    616    618     1   108.4600466 328.025600
    618    616    619     1   109.5600471 388.275200
    618    616    622     1   109.8800469 414.216000
    619    639    640     1   117.6800502 383.254400
    620    619    639     1   108.8800464 416.726400
    620    619    621     1   108.4600466 328.025600
    621    619    639     1   108.8800464 416.726400
    622    623    624     1   109.8800469 414.216000
    622    623    625     1   109.8800469 414.216000
    622    626    627     1   109.8800469 414.216000
    622    626    628     1   109.8800469 414.216000
    623    632    633     1   109.8000471 387.438400
    623    632    634     1   109.8000471 387.438400
    624    623    632     1   109.5600471 388.275200
    624    623    625     1   108.4600466 328.025600
    625    623    632     1   109.5600471 388.275200
    626    629    630     1   109.8000471 387.438400
    626    629    631     1   109.8000471 387.438400
    627    626    629     1   109.5600471 388.275200
    627    626    628     1   108.4600466 328.025600
    628    626    629     1   109.5600471 388.275200
    630    629    635     1   108.7700466 392.459200
    630    629    631     1   107.5800459 329.699200
    631    629    635     1   108.7700466 392.459200
    633    632    636     1   108.7700466 392.459200
    633    632    634     1   107.5800459 329.699200
    634    632    636     1   108.7700466 392.459200
    635   1314   1315     1   117.5500507 404.174400
    636   1339   1340     1   117.5500507 404.174400
    641    644    645     1   109.5600471 388.275200
    641    644    646     1   109.5600471 388.275200
    642    641    644     1   109.5600471 388.275200
    642    641    647     1   109.8800469 414.216000
    642    641    643     1   108.4600466 328.025600
    643    641    644     1   109.5600471 388.275200
    643    641    647     1   109.8800469 414.216000
    644    664    665     1   117.6800502 383.254400
    645    644    664     1   108.8800464 416.726400
    645    644    646     1   108.4600466 328.025600
    646    644    664     1   108.8800464 416.726400
    647    648    649     1   109.8800469 414.216000
    647    648    650     1   109.8800469 414.216000
    647    651    652     1   109.8800469 414.216000
    647    651    653     1   109.8800469 414.216000
    648    657    658     1   109.8000471 387.438400
    648    657    659     1   109.8000471 387.438400
    649    648    657     1   109.5600471 388.275200
    649    648    650     1   108.4600466 328.025600
    650    648    657     1   109.5600471 388.275200
    651    654    655     1   109.8000471 387.438400
    651    654    656     1   109.8000471 387.438400
    652    651    654     1   109.5600471 388.275200
    652    651    653     1   108.4600466 328.025600
    653    651    654     1   109.5600471 388.275200
    655    654    660     1   108.7700466 392.459200
    655    654    656     1   107.5800459 329.699200
    656    654    660     1   108.7700466 392.459200
    658    657    661     1   108.7700466 392.459200
    658    657    659     1   107.5800459 329.699200
    659    657    661     1   108.7700466 392.459200
    660   1364   1365     1   117.5500507 404.174400
    661   1389   1390     1   117.5500507 404.174400
    666    669    670     1   109.5600471 388.275200
    666    669    671     1   109.5600471 388.275200
    667    666    669     1   109.5600471 388.275200
    667    666    672     1   109.8800469 414.216000
    667    666    668     1   108.4600466 328.025600
    668    666    669     1   109.5600471 388.275200
    668    666    672     1   109.8800469 414.216000
    669    689    690     1   117.6800502 383.254400
    670    669    689     1   108.8800464 416.726400
    670    669    671     1   108.4600466 328.025600
    671    669    689     1   108.8800464 416.726400
    672    673    674     1   109.8800469 414.216000
    672    673    675     1   109.8800469 414.216000
    672    676    677     1   109.8800469 414.216000
    672    676    678     1   109.8800469 414.216000
    673    682    683     1   109.8000471 387.438400
    673    682    684     1   109.8000471 387.438400
    674    673    682     1   109.5600471 388.275200
    674    673    675     1   108.4600466 328.025600
    675    673    682     1   109.5600471 388.275200
    676    679    680     1   109.8000471 387.438400
    676    679    681     1   109.8000471 387.438400
    677    676    679     1   109.5600471 388.275200
    677    676    678     1   108.4600466 328.025600
    678    676    679     1   109.5600471 388.275200
    680    679    685     1   108.7700466 392.459200
    680    679    681     1   107.5800459 329.699200
    681    679    685     1   108.7700466 392.459200
    683    682    686     1   108.7700466 392.459200
    683    682    684     1   107.5800459 329.699200
    684    682    686     1   108.7700466 392.459200
    685   1414   1415     1   117.5500507 404.174400
    686   1439   1440     1   117.5500507 404.174400
    691    694    695     1   109.5600471 388.275200
    691    694    696     1   109.5600471 388.275200
    692    691    694     1   109.5600471 388.275200
    692    691    697     1   109.8800469 414.216000
    692    691    693     1   108.4600466 328.025600
    693    691    694     1   109.5600471 388.275200
    693    691    697     1   109.8800469 414.216000
    694    714    715     1   117.6800502 383.254400
    695    694    714     1   108.8800464 416.726400
    695    694    696     1   108.4600466 328.025600
    696    694    714     1   108.8800464 416.726400
    697    698    699     1   109.8800469 414.216000
    697    698    700     1   109.8800469 414.216000
    697    701    702     1   109.8800469 414.216000
    697    701    703     1   109.8800469 414.216000
    698    707    708     1   109.8000471 387.438400
    698    707    709     1   109.8000471 387.438400
    699    698    707     1   109.5600471 388.275200
    699    698    700     1   108.4600466 328.025600
    700    698    707     1   109.5600471 388.275200
    701    704    705     1   109.8000471 387.438400
    701    704    706     1   109.8000471 387.438400
    702    701    704     1   109.5600471 388.275200
    702    701    703     1   108.4600466 328.025600
    703    701    704     1   109.5600471 388.275200
    705    704    710     1   108.7700466 392.459200
    705    704    706     1   107.5800459 329.699200
    706    704    710     1   108.7700466 392.459200
    708    707    711     1   108.7700466 392.459200
    708    707    709     1   107.5800459 329.699200
    709    707    711     1   108.7700466 392.459200
    710   1464   1465     1   117.5500507 404.174400
    711   1489   1490     1   117.5500507 404.174400
    716    719    720     1   109.5600471 388.275200
    716    719    721     1   109.5600471 388.275200
    717    716    719     1   109.5600471 388.275200
    717    716    722     1   109.8800469 414.216000
    717    716    718     1   108.4600466 328.025600
    718    716    719     1   109.5600471 388.275200
    718    716    722     1   109.8800469 414.216000
    719    739    740     1   117.6800502 383.254400
    720    719    739     1   108.8800464 416.726400
    720    719    721     1   108.4600466 328.025600
    721    719    739     1   108.8800464 416.726400
    722    723    724     1   109.8800469 414.216000
    722    723    725     1   109.8800469 414.216000
    722    726    727     1   109.8800469 414.216000
    722    726    728     1   109.8800469 414.216000
    723    732    733     1   109.8000471 387.438400
    723    732    734     1   109.8000471 387.438400
    724    723    732     1   109.5600471 388.275200
    724    723    725     1   108.4600466 328.025600
    725    723    732     1   109.5600471 388.275200
    726    729    730     1   109.8000471 387.438400
    726    729    731     1   109.8000471 387.438400
    727    726    729     1   109.5600471 388.275200
    727    726    728     1   108.4600466 328.025600
    728    726    729     1   109.5600471 388.275200
    730    729    735     1   108.7700466 392.459200
    730    729    731     1   107.5800459 329.699200
    731    729    735     1   108.7700466 392.459200
    733    732    736     1   108.7700466 392.459200
    733    732    734     1   107.5800459 329.699200
    734    732    736     1   108.7700466 392.459200
    735   1514   1515     1   117.5500507 404.174400
    736   1539   1540     1   117.5500507 404.174400
    741    744    745     1   109.5600471 388.275200
    741    744    746     1   109.5600471 388.275200
    742    741    744     1   109.5600471 388.275200
    742    741    747     1   109.8800469 414.216000
    742    741    743     1   108.4600466 328.025600
    743    741    744     1   109.5600471 388.275200
    743    741    747     1   109.8800469 414.216000
    744    764    765     1   117.6800502 383.254400
    745    744    764     1   108.8800464 416.726400
    745    744    746     1   108.4600466 328.025600
    746    744    764     1   108.8800464 416.726400
    747    748    749     1   109.8800469 414.216000
    747    748    750     1   109.8800469 414.216000
    747    751    752     1   109.8800469 414.216000
    747    751    753     1   109.8800469 414.216000
    748    757    758     1   109.8000471 387.438400
    748    757    759     1   109.8000471 387.438400
    749    748    757     1   109.5600471 388.275200
    749    748    750     1   108.4600466 328.025600
    750    748    757     1   109.5600471 388.275200
    751    754    755     1   109.8000471 387.438400
    751    754    756     1   109.8000471 387.438400
    752    751    754     1   109.5600471 388.275200
    752    751    753     1   108.4600466 328.025600
    753    751    754     1   109.5600471 388.275200
    755    754    760     1   108.7700466 392.459200
    755    754    756     1   107.5800459 329.699200
    756    754    760     1   108.7700466 392.459200
    758    757    761     1   108.7700466 392.459200
    758    757    759     1   107.5800459 329.699200
    759    757    761     1   108.7700466 392.459200
    760   1564   1565     1   117.5500507 404.174400
    761   1589   1590     1   117.5500507 404.174400
    766    769    770     1   109.5600471 388.275200
    766    769    771     1   109.5600471 388.275200
    767    766    769     1   109.5600471 388.275200
    767    766    772     1   109.8800469 414.216000
    767    766    768     1   108.4600466 328.025600
    768    766    769     1   109.5600471 388.275200
    768    766    772     1   109.8800469 414.216000
    769    789    790     1   117.6800502 383.254400
    770    769    789     1   108.8800464 416.726400
    770    769    771     1   108.4600466 328.025600
    771    769    789     1   108.8800464 416.726400
    772    773    774     1   109.8800469 414.216000
    772    773    775     1   109.8800469 414.216000
    772    776    777     1   109.8800469 414.216000
    772    776    778     1   109.8800469 414.216000
    773    782    783     1   109.8000471 387.438400
    773    782    784     1   109.8000471 387.438400
    774    773    782     1   109.5600471 388.275200
    774    773    775     1   108.4600466 328.025600
    775    773    782     1   109.5600471 388.275200
    776    779    780     1   109.8000471 387.438400
    776    779    781     1   109.8000471 387.438400
    777    776    779     1   109.5600471 388.275200
    777    776    778     1   108.4600466 328.025600
    778    776    779     1   109.5600471 388.275200
    780    779    785     1   108.7700466 392.459200
    780    779    781     1   107.5800459 329.699200
    781    779    785     1   108.7700466 392.459200
    783    782    786     1   108.7700466 392.459200
    783    782    784     1   107.5800459 329.699200
    784    782    786     1   108.7700466 392.459200
    785   1614   1615     1   117.5500507 404.174400
    786   1639   1640     1   117.5500507 404.174400
    791    794    795     1   109.5600471 388.275200
    791    794    796     1   109.5600471 388.275200
    792    791    794     1   109.5600471 388.275200
    792    791    797     1   109.8800469 414.216000
    792    791    793     1   108.4600466 328.025600
    793    791    794     1   109.5600471 388.275200
    793    791    797     1   109.8800469 414.216000
    794    814    815     1   117.6800502 383.254400
    795    794    814     1   108.8800464 416.726400
    795    794    796     1   108.4600466 328.025600
    796    794    814     1   108.8800464 416.726400
    797    798    799     1   109.8800469 414.216000
    797    798    800     1   109.8800469 414.216000
    797    801    802     1   109.8800469 414.216000
    797    801    803     1   109.8800469 414.216000
    798    807    808     1   109.8000471 387.438400
    798    807    809     1   109.8000471 387.438400
    799    798    807     1   109.5600471 388.275200
    799    798    800     1   108.4600466 328.025600
    800    798    807     1   109.5600471 388.275200
    801    804    805     1   109.8000471 387.438400
    801    804    806     1   109.8000471 387.438400
    802    801    804     1   109.5600471 388.275200
    802    801    803     1   108.4600466 328.025600
    803    801    804     1   109.5600471 388.275200
    805    804    810     1   108.7700466 392.459200
    805    804    806     1   107.5800459 329.699200
    806    804    810     1   108.7700466 392.459200
    808    807    811     1   108.7700466 392.459200
    808    807    809     1   107.5800459 329.699200
    809    807    811     1   108.7700466 392.459200
    810   1664   1665     1   117.5500507 404.174400
    811   1689   1690     1   117.5500507 404.174400
    816    819    820     1   109.5600471 388.275200
    816    819    821     1   109.5600471 388.275200
    817    816    819     1   109.5600471 388.275200
    817    816    822     1   109.8800469 414.216000
    817    816    818     1   108.4600466 328.025600
    818    816    819     1   109.5600471 388.275200
    818    816    822     1   109.8800469 414.216000
    819    839    840     1   117.6800502 383.254400
    820    819    839     1   108.8800464 416.726400
    820    819    821     1   108.4600466 328.025600
    821    819    839     1   108.8800464 416.726400
    822    823    824     1   109.8800469 414.216000
    822    823    825     1   109.8800469 414.216000
    822    826    827     1   109.8800469 414.216000
    822    826    828     1   109.8800469 414.216000
    823    832    833     1   109.8000471 387.438400
    823    832    834     1   109.8000471 387.438400
    824    823    832     1   109.5600471 388.275200
    824    823    825     1   108.4600466 328.025600
    825    823    832     1   109.5600471 388.275200
    826    829    830     1   109.8000471 387.438400
    826    829    831     1   109.8000471 387.438400
    827    826    829     1   109.5600471 388.275200
    827    826    828     1   108.4600466 328.025600
    828    826    829     1   109.5600471 388.275200
    830    829    835     1   108.7700466 392.459200
    830    829    831     1   107.5800459 329.699200
    831    829    835     1   108.7700466 392.459200
    833    832    836     1   108.7700466 392.459200
    833    832    834     1   107.5800459 329.699200
    834    832    836     1   108.7700466 392.459200
    835   1714   1715     1   117.5500507 404.174400
    836   1739   1740     1   117.5500507 404.174400
    841    844    845     1   109.5600471 388.275200
    841    844    846     1   109.5600471 388.275200
    842    841    844     1   109.5600471 388.275200
    842    841    847     1   109.8800469 414.216000
    842    841    843     1   108.4600466 328.025600
    843    841    844     1   109.5600471 388.275200
    843    841    847     1   109.8800469 414.216000
    844    864    865     1   117.6800502 383.254400
    845    844    864     1   108.8800464 416.726400
    845    844    846     1   108.4600466 328.025600
    846    844    864     1   108.8800464 416.726400
    847    848    849     1   109.8800469 414.216000
    847    848    850     1   109.8800469 414.216000
    847    851    852     1   109.8800469 414.216000
    847    851    853     1   109.8800469 414.216000
    848    857    858     1   109.8000471 387.438400
    848    857    859     1   109.8000471 387.438400
    849    848    857     1   109.5600471 388.275200
    849    848    850     1   108.4600466 328.025600
    850    848    857     1   109.5600471 388.275200
    851    854    855     1   109.8000471 387.438400
    851    854    856     1   109.8000471 387.438400
    852    851    854     1   109.5600471 388.275200
    852    851    853     1   108.4600466 328.025600
    853    851    854     1   109.5600471 388.275200
    855    854    860     1   108.7700466 392.459200
    855    854    856     1   107.5800459 329.699200
    856    854    860     1   108.7700466 392.459200
    858    857    861     1   108.7700466 392.459200
    858    857    859     1   107.5800459 329.699200
    859    857    861     1   108.7700466 392.459200
    860   1764   1765     1   117.5500507 404.174400
    861   1789   1790     1   117.5500507 404.174400
    866    869    870     1   109.5600471 388.275200
    866    869    871     1   109.5600471 388.275200
    867    866    869     1   109.5600471 388.275200
    867    866    872     1   109.8800469 414.216000
    867    866    868     1   108.4600466 328.025600
    868    866    869     1   109.5600471 388.275200
    868    866    872     1   109.8800469 414.216000
    869    889    890     1   117.6800502 383.254400
    870    869    889     1   108.8800464 416.726400
    870    869    871     1   108.4600466 328.025600
    871    869    889     1   108.8800464 416.726400
    872    873    874     1   109.8800469 414.216000
    872    873    875     1   109.8800469 414.216000
    872    876    877     1   109.8800469 414.216000
    872    876    878     1   109.8800469 414.216000
    873    882    883     1   109.8000471 387.438400
    873    882    884     1   109.8000471 387.438400
    874    873    882     1   109.5600471 388.275200
    874    873    875     1   108.4600466 328.025600
    875    873    882     1   109.5600471 388.275200
    876    879    880     1   109.8000471 387.438400
    876    879    881     1   109.8000471 387.438400
    877    876    879     1   109.5600471 388.275200
    877    876    878     1   108.4600466 328.025600
    878    876    879     1   109.5600471 388.275200
    880    879    885     1   108.7700466 392.459200
    880    879    881     1   107.5800459 329.699200
    881    879    885     1   108.7700466 392.459200
    883    882    886     1   108.7700466 392.459200
    883    882    884     1   107.5800459 329.699200
    884    882    886     1   108.7700466 392.459200
    885   1814   1815     1   117.5500507 404.174400
    886   1839   1840     1   117.5500507 404.174400
    891    894    895     1   109.5600471 388.275200
    891    894    896     1   109.5600471 388.275200
    892    891    894     1   109.5600471 388.275200
    892    891    897     1   109.8800469 414.216000
    892    891    893     1   108.4600466 328.025600
    893    891    894     1   109.5600471 388.275200
    893    891    897     1   109.8800469 414.216000
    894    914    915     1   117.6800502 383.254400
    895    894    914     1   108.8800464 416.726400
    895    894    896     1   108.4600466 328.025600
    896    894    914     1   108.8800464 416.726400
    897    898    899     1   109.8800469 414.216000
    897    898    900     1   109.8800469 414.216000
    897    901    902     1   109.8800469 414.216000
    897    901    903     1   109.8800469 414.216000
    898    907    908     1   109.8000471 387.438400
    898    907    909     1   109.8000471 387.438400
    899    898    907     1   109.5600471 388.275200
    899    898    900     1   108.4600466 328.025600
    900    898    907     1   109.5600471 388.275200
    901    904    905     1   109.8000471 387.438400
    901    904    906     1   109.8000471 387.438400
    902    901    904     1   109.5600471 388.275200
    902    901    903     1   108.4600466 328.025600
    903    901    904     1   109.5600471 388.275200
    905    904    910     1   108.7700466 392.459200
    905    904    906     1   107.5800459 329.699200
    906    904    910     1   108.7700466 392.459200
    908    907    911     1   108.7700466 392.459200
    908    907    909     1   107.5800459 329.699200
    909    907    911     1   108.7700466 392.459200
    910   1864   1865     1   117.5500507 404.174400
    911   1889   1890     1   117.5500507 404.174400
    916    919    920     1   109.5600471 388.275200
    916    919    921     1   109.5600471 388.275200
    917    916    919     1   109.5600471 388.275200
    917    916    922     1   109.8800469 414.216000
    917    916    918     1   108.4600466 328.025600
    918    916    919     1   109.5600471 388.275200
    918    916    922     1   109.8800469 414.216000
    919    939    940     1   117.6800502 383.254400
    920    919    939     1   108.8800464 416.726400
    920    919    921     1   108.4600466 328.025600
    921    919    939     1   108.8800464 416.726400
    922    923    924     1   109.8800469 414.216000
    922    923    925     1   109.8800469 414.216000
    922    926    927     1   109.8800469 414.216000
    922    926    928     1   109.8800469 414.216000
    923    932    933     1   109.8000471 387.438400
    923    932    934     1   109.8000471 387.438400
    924    923    932     1   109.5600471 388.275200
    924    923    925     1   108.4600466 328.025600
    925    923    932     1   109.5600471 388.275200
    926    929    930     1   109.8000471 387.438400
    926    929    931     1   109.8000471 387.438400
    927    926    929     1   109.5600471 388.275200
    927    926    928     1   108.4600466 328.025600
    928    926    929     1   109.5600471 388.275200
    930    929    935     1   108.7700466 392.459200
    930    929    931     1   107.5800459 329.699200
    931    929    935     1   108.7700466 392.459200
    933    932    936     1   108.7700466 392.459200
    933    932    934     1   107.5800459 329.699200
    934    932    936     1   108.7700466 392.459200
    935   1914   1915     1   117.5500507 404.174400
    936   1939   1940     1   117.5500507 404.174400
    941    944    945     1   109.5600471 388.275200
    941    944    946     1   109.5600471 388.275200
    942    941    944     1   109.5600471 388.275200
    942    941    947     1   109.8800469 414.216000
    942    941    943     1   108.4600466 328.025600
    943    941    944     1   109.5600471 388.275200
    943    941    947     1   109.8800469 414.216000
    944    964    965     1   117.6800502 383.254400
    945    944    964     1   108.8800464 416.726400
    945    944    946     1   108.4600466 328.025600
    946    944    964     1   108.8800464 416.726400
    947    948    949     1   109.8800469 414.216000
    947    948    950     1   109.8800469 414.216000
    947    951    952     1   109.8800469 414.216000
    947    951    953     1   109.8800469 414.216000
    948    957    958     1   109.8000471 387.438400
    948    957    959     1   109.8000471 387.438400
    949    948    957     1   109.5600471 388.275200
    949    948    950     1   108.4600466 328.025600
    950    948    957     1   109.5600471 388.275200
    951    954    955     1   109.8000471 387.438400
    951    954    956     1   109.8000471 387.438400
    952    951    954     1   109.5600471 388.275200
    952    951    953     1   108.4600466 328.025600
    953    951    954     1   109.5600471 388.275200
    955    954    960     1   108.7700466 392.459200
    955    954    956     1   107.5800459 329.699200
    956    954    960     1   108.7700466 392.459200
    958    957    961     1   108.7700466 392.459200
    958    957    959     1   107.5800459 329.699200
    959    957    961     1   108.7700466 392.459200
    960   1964   1965     1   117.5500507 404.174400
    961   1989   1990     1   117.5500507 404.174400
    966    969    970     1   109.5600471 388.275200
    966    969    971     1   109.5600471 388.275200
    967    966    969     1   109.5600471 388.275200
    967    966    972     1   109.8800469 414.216000
    967    966    968     1   108.4600466 328.025600
    968    966    969     1   109.5600471 388.275200
    968    966    972     1   109.8800469 414.216000
    969    989    990     1   117.6800502 383.254400
    970    969    989     1   108.8800464 416.726400
    970    969    971     1   108.4600466 328.025600
    971    969    989     1   108.8800464 416.726400
    972    973    974     1   109.8800469 414.216000
    972    973    975     1   109.8800469 414.216000
    972    976    977     1   109.8800469 414.216000
    972    976    978     1   109.8800469 414.216000
    973    982    983     1   109.8000471 387.438400
    973    982    984     1   109.8000471 387.438400
    974    973    982     1   109.5600471 388.275200
    974    973    975     1   108.4600466 328.025600
    975    973    982     1   109.5600471 388.275200
    976    979    980     1   109.8000471 387.438400
    976    979    981     1   109.8000471 387.438400
    977    976    979     1   109.5600471 388.275200
    977    976    978     1   108.4600466 328.025600
    978    976    979     1   109.5600471 388.275200
    980    979    985     1   108.7700466 392.459200
    980    979    981     1   107.5800459 329.699200
    981    979    985     1   108.7700466 392.459200
    983    982    986     1   108.7700466 392.459200
    983    982    984     1   107.5800459 329.699200
    984    982    986     1   108.7700466 392.459200
    985   2014   2015     1   117.5500507 404.174400
    986   2039   2040     1   117.5500507 404.174400
    991    994    995     1   109.5600471 388.275200
    991    994    996     1   109.5600471 388.275200
    992    991    994     1   109.5600471 388.275200
    992    991    997     1   109.8800469 414.216000
    992    991    993     1   108.4600466 328.025600
    993    991    994     1   109.5600471 388.275200
    993    991    997     1   109.8800469 414.216000
    994   1014   1015     1   117.6800502 383.254400
    995    994   1014     1   108.8800464 416.726400
    995    994    996     1   108.4600466 328.025600
    996    994   1014     1   108.8800464 416.726400
    997    998    999     1   109.8800469 414.216000
    997    998   1000     1   109.8800469 414.216000
    997   1001   1002     1   109.8800469 414.216000
    997   1001   1003     1   109.8800469 414.216000
    998   1007   1008     1   109.8000471 387.438400
    998   1007   1009     1   109.8000471 387.438400
    999    998   1007     1   109.5600471 388.275200
    999    998   1000     1   108.4600466 328.025600
   1000    998   1007     1   109.5600471 388.275200
   1001   1004   1005     1   109.8000471 387.438400
   1001   1004   1006     1   109.8000471 387.438400
   1002   1001   1004     1   109.5600471 388.275200
   1002   1001   1003     1   108.4600466 328.025600
   1003   1001   1004     1   109.5600471 388.275200
   1005   1004   1010     1   108.7700466 392.459200
   1005   1004   1006     1   107.5800459 329.699200
   1006   1004   1010     1   108.7700466 392.459200
   1008   1007   1011     1   108.7700466 392.459200
   1008   1007   1009     1   107.5800459 329.699200
   1009   1007   1011     1   108.7700466 392.459200
   1010   2064   2065     1   117.5500507 404.174400
   1011   2089   2090     1   117.5500507 404.174400
   1016   1019   1020     1   109.5600471 388.275200
   1016   1019   1021     1   109.5600471 388.275200
   1017   1016   1019     1   109.5600471 388.275200
   1017   1016   1022     1   109.8800469 414.216000
   1017   1016   1018     1   108.4600466 328.025600
   1018   1016   1019     1   109.5600471 388.275200
   1018   1016   1022     1   109.8800469 414.216000
   1019   1039   1040     1   117.6800502 383.254400
   1020   1019   1039     1   108.8800464 416.726400
   1020   1019   1021     1   108.4600466 328.025600
   1021   1019   1039     1   108.8800464 416.726400
   1022   1023   1024     1   109.8800469 414.216000
   1022   1023   1025     1   109.8800469 414.216000
   1022   1026   1027     1   109.8800469 414.216000
   1022   1026   1028     1   109.8800469 414.216000
   1023   1032   1033     1   109.8000471 387.438400
   1023   1032   1034     1   109.8000471 387.438400
   1024   1023   1032     1   109.5600471 388.275200
   1024   1023   1025     1   108.4600466 328.025600
   1025   1023   1032     1   109.5600471 388.275200
   1026   1029   1030     1   109.8000471 387.438400
   1026   1029   1031     1   109.8000471 387.438400
   1027   1026   1029     1   109.5600471 388.275200
   1027   1026   1028     1   108.4600466 328.025600
   1028   1026   1029     1   109.5600471 388.275200
   1030   1029   1035     1   108.7700466 392.459200
   1030   1029   1031     1   107.5800459 329.699200
   1031   1029   1035     1   108.7700466 392.459200
   1033   1032   1036     1   108.7700466 392.459200
   1033   1032   1034     1   107.5800459 329.699200
   1034   1032   1036     1   108.7700466 392.459200
   1035   2114   2115     1   117.5500507 404.174400
   1036   2139   2140     1   117.5500507 404.174400
   1041   1044   1045     1   109.5600471 388.275200
   1041   1044   1046     1   109.5600471 388.275200
   1042   1041   1044     1   109.5600471 388.275200
   1042   1041   1047     1   109.8800469 414.216000
   1042   1041   1043     1   108.4600466 328.025600
   1043   1041   1044     1   109.5600471 388.275200
   1043   1041   1047     1   109.8800469 414.216000
   1044   1064   1065     1   117.6800502 383.254400
   1045   1044   1064     1   108.8800464 416.726400
   1045   1044   1046     1   108.4600466 328.025600
   1046   1044   1064     1   108.8800464 416.726400
   1047   1048   1049     1   109.8800469 414.216000
   1047   1048   1050     1   109.8800469 414.216000
   1047   1051   1052     1   109.8800469 414.216000
   1047   1051   1053     1   109.8800469 414.216000
   1048   1057   1058     1   109.8000471 387.438400
   1048   1057   1059     1   109.8000471 387.438400
   1049   1048   1057     1   109.5600471 388.275200
   1049   1048   1050     1   108.4600466 328.025600
   1050   1048   1057     1   109.5600471 388.275200
   1051   1054   1055     1   109.8000471 387.438400
   1051   1054   1056     1   109.8000471 387.438400
   1052   1051   1054     1   109.5600471 388.275200
   1052   1051   1053     1   108.4600466 328.025600
   1053   1051   1054     1   109.5600471 388.275200
   1055   1054   1060     1   108.7700466 392.459200
   1055   1054   1056     1   107.5800459 329.699200
   1056   1054   1060     1   108.7700466 392.459200
   1058   1057   1061     1   108.7700466 392.459200
   1058   1057   1059     1   107.5800459 329.699200
   1059   1057   1061     1   108.7700466 392.459200
   1060   2164   2165     1   117.5500507 404.174400
   1061   2189   2190     1   117.5500507 404.174400
   1066   1069   1070     1   109.5600471 388.275200
   1066   1069   1071     1   109.5600471 388.275200
   1067   1066   1069     1   109.5600471 388.275200
   1067   1066   1072     1   109.8800469 414.216000
   1067   1066   1068     1   108.4600466 328.025600
   1068   1066   1069     1   109.5600471 388.275200
   1068   1066   1072     1   109.8800469 414.216000
   1069   1089   1090     1   117.6800502 383.254400
   1070   1069   1089     1   108.8800464 416.726400
   1070   1069   1071     1   108.4600466 328.025600
   1071   1069   1089     1   108.8800464 416.726400
   1072   1073   1074     1   109.8800469 414.216000
   1072   1073   1075     1   109.8800469 414.216000
   1072   1076   1077     1   109.8800469 414.216000
   1072   1076   1078     1   109.8800469 414.216000
   1073   1082   1083     1   109.8000471 387.438400
   1073   1082   1084     1   109.8000471 387.438400
   1074   1073   1082     1   109.5600471 388.275200
   1074   1073   1075     1   108.4600466 328.025600
   1075   1073   1082     1   109.5600471 388.275200
   1076   1079   1080     1   109.8000471 387.438400
   1076   1079   1081     1   109.8000471 387.438400
   1077   1076   1079     1   109.5600471 388.275200
   1077   1076   1078     1   108.4600466 328.025600
   1078   1076   1079     1   109.5600471 388.275200
   1080   1079   1085     1   108.7700466 392.459200
   1080   1079   1081     1   107.5800459 329.699200
   1081   1079   1085     1   108.7700466 392.459200
   1083   1082   1086     1   108.7700466 392.459200
   1083   1082   1084     1   107.5800459 329.699200
   1084   1082   1086     1   108.7700466 392.459200
   1085   2214   2215     1   117.5500507 404.174400
   1086   2239   2240     1   117.5500507 404.174400
   1091   1094   1095     1   109.5600471 388.275200
   1091   1094   1096     1   109.5600471 388.275200
   1092   1091   1094     1   109.5600471 388.275200
   1092   1091   1097     1   109.8800469 414.216000
   1092   1091   1093     1   108.4600466 328.025600
   1093   1091   1094     1   109.5600471 388.275200
   1093   1091   1097     1   109.8800469 414.216000
   1094   1114   1115     1   117.6800502 383.254400
   1095   1094   1114     1   108.8800464 416.726400
   1095   1094   1096     1   108.4600466 328.025600
   1096   1094   1114     1   108.8800464 416.726400
   1097   1098   1099     1   109.8800469 414.216000
   1097   1098   1100     1   109.8800469 414.216000
   1097   1101   1102     1   109.8800469 414.216000
   1097   1101   1103     1   109.8800469 414.216000
   1098   1107   1108     1   109.8000471 387.438400
   1098   1107   1109     1   109.8000471 387.438400
   1099   1098   1107     1   109.5600471 388.275200
   1099   1098   1100     1   108.4600466 328.025600
   1100   1098   1107     1   109.5600471 388.275200
   1101   1104   1105     1   109.8000471 387.438400
   1101   1104   1106     1   109.8000471 387.438400
   1102   1101   1104     1   109.5600471 388.275200
   1102   1101   1103     1   108.4600466 328.025600
   1103   1101   1104     1   109.5600471 388.275200
   1105   1104   1110     1   108.7700466 392.459200
   1105   1104   1106     1   107.5800459 329.699200
   1106   1104   1110     1   108.7700466 392.459200
   1108   1107   1111     1   108.7700466 392.459200
   1108   1107   1109     1   107.5800459 329.699200
   1109   1107   1111     1   108.7700466 392.459200
   1110   2264   2265     1   117.5500507 404.174400
   1111   2289   2290     1   117.5500507 404.174400
   1116   1119   1120     1   109.5600471 388.275200
   1116   1119   1121     1   109.5600471 388.275200
   1117   1116   1119     1   109.5600471 388.275200
   1117   1116   1122     1   109.8800469 414.216000
   1117   1116   1118     1   108.4600466 328.025600
   1118   1116   1119     1   109.5600471 388.275200
   1118   1116   1122     1   109.8800469 414.216000
   1119   1139   1140     1   117.6800502 383.254400
   1120   1119   1139     1   108.8800464 416.726400
   1120   1119   1121     1   108.4600466 328.025600
   1121   1119   1139     1   108.8800464 416.726400
   1122   1123   1124     1   109.8800469 414.216000
   1122   1123   1125     1   109.8800469 414.216000
   1122   1126   1127     1   109.8800469 414.216000
   1122   1126   1128     1   109.8800469 414.216000
   1123   1132   1133     1   109.8000471 387.438400
   1123   1132   1134     1   109.8000471 387.438400
   1124   1123   1132     1   109.5600471 388.275200
   1124   1123   1125     1   108.4600466 328.025600
   1125   1123   1132     1   109.5600471 388.275200
   1126   1129   1130     1   109.8000471 387.438400
   1126   1129   1131     1   109.8000471 387.438400
   1127   1126   1129     1   109.5600471 388.275200
   1127   1126   1128     1   108.4600466 328.025600
   1128   1126   1129     1   109.5600471 388.275200
   1130   1129   1135     1   108.7700466 392.459200
   1130   1129   1131     1   107.5800459 329.699200
   1131   1129   1135     1   108.7700466 392.459200
   1133   1132   1136     1   108.7700466 392.459200
   1133   1132   1134     1   107.5800459 329.699200
   1134   1132   1136     1   108.7700466 392.459200
   1135   2314   2315     1   117.5500507 404.174400
   1136   2339   2340     1   117.5500507 404.174400
   1141   1144   1145     1   109.5600471 388.275200
   1141   1144   1146     1   109.5600471 388.275200
   1142   1141   1144     1   109.5600471 388.275200
   1142   1141   1147     1   109.8800469 414.216000
   1142   1141   1143     1   108.4600466 328.025600
   1143   1141   1144     1   109.5600471 388.275200
   1143   1141   1147     1   109.8800469 414.216000
   1144   1164   1165     1   117.6800502 383.254400
   1145   1144   1164     1   108.8800464 416.726400
   1145   1144   1146     1   108.4600466 328.025600
   1146   1144   1164     1   108.8800464 416.726400
   1147   1148   1149     1   109.8800469 414.216000
   1147   1148   1150     1   109.8800469 414.216000
   1147   1151   1152     1   109.8800469 414.216000
   1147   1151   1153     1   109.8800469 414.216000
   1148   1157   1158     1   109.8000471 387.438400
   1148   1157   1159     1   109.8000471 387.438400
   1149   1148   1157     1   109.5600471 388.275200
   1149   1148   1150     1   108.4600466 328.025600
   1150   1148   1157     1   109.5600471 388.275200
   1151   1154   1155     1   109.8000471 387.438400
   1151   1154   1156     1   109.8000471 387.438400
   1152   1151   1154     1   109.5600471 388.275200
   1152   1151   1153     1   108.4600466 328.025600
   1153   1151   1154     1   109.5600471 388.275200
   1155   1154   1160     1   108.7700466 392.459200
   1155   1154   1156     1   107.5800459 329.699200
   1156   1154   1160     1   108.7700466 392.459200
   1158   1157   1161     1   108.7700466 392.459200
   1158   1157   1159     1   107.5800459 329.699200
   1159   1157   1161     1   108.7700466 392.459200
   1160   2364   2365     1   117.5500507 404.174400
   1161   2389   2390     1   117.5500507 404.174400
   1166   1169   1170     1   109.5600471 388.275200
   1166   1169   1171     1   109.5600471 388.275200
   1167   1166   1169     1   109.5600471 388.275200
   1167   1166   1172     1   109.8800469 414.216000
   1167   1166   1168     1   108.4600466 328.025600
   1168   1166   1169     1   109.5600471 388.275200
   1168   1166   1172     1   109.8800469 414.216000
   1169   1189   1190     1   117.6800502 383.254400
   1170   1169   1189     1   108.8800464 416.726400
   1170   1169   1171     1   108.4600466 328.025600
   1171   1169   1189     1   108.8800464 416.726400
   1172   1173   1174     1   109.8800469 414.216000
   1172   1173   1175     1   109.8800469 414.216000
   1172   1176   1177     1   109.8800469 414.216000
   1172   1176   1178     1   109.8800469 414.216000
   1173   1182   1183     1   109.8000471 387.438400
   1173   1182   1184     1   109.8000471 387.438400
   1174   1173   1182     1   109.5600471 388.275200
   1174   1173   1175     1   108.4600466 328.025600
   1175   1173   1182     1   109.5600471 388.275200
   1176   1179   1180     1   109.8000471 387.438400
   1176   1179   1181     1   109.8000471 387.438400
   1177   1176   1179     1   109.5600471 388.275200
   1177   1176   1178     1   108.4600466 328.025600
   1178   1176   1179     1   109.5600471 388.275200
   1180   1179   1185     1   108.7700466 392.459200
   1180   1179   1181     1   107.5800459 329.699200
   1181   1179   1185     1   108.7700466 392.459200
   1183   1182   1186     1   108.7700466 392.459200
   1183   1182   1184     1   107.5800459 329.699200
   1184   1182   1186     1   108.7700466 392.459200
   1185   2414   2415     1   117.5500507 404.174400
   1186   2439   2440     1   117.5500507 404.174400
   1191   1194   1195     1   109.5600471 388.275200
   1191   1194   1196     1   109.5600471 388.275200
   1192   1191   1194     1   109.5600471 388.275200
   1192   1191   1197     1   109.8800469 414.216000
   1192   1191   1193     1   108.4600466 328.025600
   1193   1191   1194     1   109.5600471 388.275200
   1193   1191   1197     1   109.8800469 414.216000
   1194   1214   1215     1   117.6800502 383.254400
   1195   1194   1214     1   108.8800464 416.726400
   1195   1194   1196     1   108.4600466 328.025600
   1196   1194   1214     1   108.8800464 416.726400
   1197   1198   1199     1   109.8800469 414.216000
   1197   1198   1200     1   109.8800469 414.216000
   1197   1201   1202     1   109.8800469 414.216000
   1197   1201   1203     1   109.8800469 414.216000
   1198   1207   1208     1   109.8000471 387.438400
   1198   1207   1209     1   109.8000471 387.438400
   1199   1198   1207     1   109.5600471 388.275200
   1199   1198   1200     1   108.4600466 328.025600
   1200   1198   1207     1   109.5600471 388.275200
   1201   1204   1205     1   109.8000471 387.438400
   1201   1204   1206     1   109.8000471 387.438400
   1202   1201   1204     1   109.5600471 388.275200
   1202   1201   1203     1   108.4600466 328.025600
   1203   1201   1204     1   109.5600471 388.275200
   1205   1204   1210     1   108.7700466 392.459200
   1205   1204   1206     1   107.5800459 329.699200
   1206   1204   1210     1   108.7700466 392.459200
   1208   1207   1211     1   108.7700466 392.459200
   1208   1207   1209     1   107.5800459 329.699200
   1209   1207   1211     1   108.7700466 392.459200
   1210   2464   2465     1   117.5500507 404.174400
   1211   2489   2490     1   117.5500507 404.174400
   1216   1219   1220     1   109.5600471 388.275200
   1216   1219   1221     1   109.5600471 388.275200
   1217   1216   1219     1   109.5600471 388.275200
   1217   1216   1222     1   109.8800469 414.216000
   1217   1216   1218     1   108.4600466 328.025600
   1218   1216   1219     1   109.5600471 388.275200
   1218   1216   1222     1   109.8800469 414.216000
   1219   1239   1240     1   117.6800502 383.254400
   1220   1219   1239     1   108.8800464 416.726400
   1220   1219   1221     1   108.4600466 328.025600
   1221   1219   1239     1   108.8800464 416.726400
   1222   1223   1224     1   109.8800469 414.216000
   1222   1223   1225     1   109.8800469 414.216000
   1222   1226   1227     1   109.8800469 414.216000
   1222   1226   1228     1   109.8800469 414.216000
   1223   1232   1233     1   109.8000471 387.438400
   1223   1232   1234     1   109.8000471 387.438400
   1224   1223   1232     1   109.5600471 388.275200
   1224   1223   1225     1   108.4600466 328.025600
   1225   1223   1232     1   109.5600471 388.275200
   1226   1229   1230     1   109.8000471 387.438400
   1226   1229   1231     1   109.8000471 387.438400
   1227   1226   1229     1   109.5600471 388.275200
   1227   1226   1228     1   108.4600466 328.025600
   1228   1226   1229     1   109.5600471 388.275200
   1230   1229   1235     1   108.7700466 392.459200
   1230   1229   1231     1   107.5800459 329.699200
   1231   1229   1235     1   108.7700466 392.459200
   1233   1232   1236     1   108.7700466 392.459200
   1233   1232   1234     1   107.5800459 329.699200
   1234   1232   1236     1   108.7700466 392.459200
   1235   2514   2515     1   117.5500507 404.174400
   1236   2539   2540     1   117.5500507 404.174400
   1241   1244   1245     1   109.5600471 388.275200
   1241   1244   1246     1   109.5600471 388.275200
   1242   1241   1244     1   109.5600471 388.275200
   1242   1241   1247     1   109.8800469 414.216000
   1242   1241   1243     1   108.4600466 328.025600
   1243   1241   1244     1   109.5600471 388.275200
   1243   1241   1247     1   109.8800469 414.216000
   1244   1264   1265     1   117.6800502 383.254400
   1245   1244   1264     1   108.8800464 416.726400
   1245   1244   1246     1   108.4600466 328.025600
   1246   1244   1264     1   108.8800464 416.726400
   1247   1248   1249     1   109.8800469 414.216000
   1247   1248   1250     1   109.8800469 414.216000
   1247   1251   1252     1   109.8800469 414.216000
   1247   1251   1253     1   109.8800469 414.216000
   1248   1257   1258     1   109.8000471 387.438400
   1248   1257   1259     1   109.8000471 387.438400
   1249   1248   1257     1   109.5600471 388.275200
   1249   1248   1250     1   108.4600466 328.025600
   1250   1248   1257     1   109.5600471 388.275200
   1251   1254   1255     1   109.8000471 387.438400
   1251   1254   1256     1   109.8000471 387.438400
   1252   1251   1254     1   109.5600471 388.275200
   1252   1251   1253     1   108.4600466 328.025600
   1253   1251   1254     1   109.5600471 388.275200
   1255   1254   1260     1   108.7700466 392.459200
   1255   1254   1256     1   107.5800459 329.699200
   1256   1254   1260     1   108.7700466 392.459200
   1258   1257   1261     1   108.7700466 392.459200
   1258   1257   1259     1   107.5800459 329.699200
   1259   1257   1261     1   108.7700466 392.459200
   1260   2564   2565     1   117.5500507 404.174400
   1261   2589   2590     1   117.5500507 404.174400
   1266   1269   1270     1   109.5600471 388.275200
   1266   1269   1271     1   109.5600471 388.275200
   1267   1266   1269     1   109.5600471 388.275200
   1267   1266   1272     1   109.8800469 414.216000
   1267   1266   1268     1   108.4600466 328.025600
   1268   1266   1269     1   109.5600471 388.275200
   1268   1266   1272     1   109.8800469 414.216000
   1269   1289   1290     1   117.6800502 383.254400
   1270   1269   1289     1   108.8800464 416.726400
   1270   1269   1271     1   108.4600466 328.025600
   1271   1269   1289     1   108.8800464 416.726400
   1272   1273   1274     1   109.8800469 414.216000
   1272   1273   1275     1   109.8800469 414.216000
   1272   1276   1277     1   109.8800469 414.216000
   1272   1276   1278     1   109.8800469 414.216000
   1273   1282   1283     1   109.8000471 387.438400
   1273   1282   1284     1   109.8000471 387.438400
   1274   1273   1282     1   109.5600471 388.275200
   1274   1273   1275     1   108.4600466 328.025600
   1275   1273   1282     1   109.5600471 388.275200
   1276   1279   1280     1   109.8000471 387.438400
   1276   1279   1281     1   109.8000471 387.438400
   1277   1276   1279     1   109.5600471 388.275200
   1277   1276   1278     1   108.4600466 328.025600
   1278   1276   1279     1   109.5600471 388.275200
   1280   1279   1285     1   108.7700466 392.459200
   1280   1279   1281     1   107.5800459 329.699200
   1281   1279   1285     1   108.7700466 392.459200
   1283   1282   1286     1   108.7700466 392.459200
   1283   1282   1284     1   107.5800459 329.699200
   1284   1282   1286     1   108.7700466 392.459200
   1285   2614   2615     1   117.5500507 404.174400
   1286   2639   2640     1   117.5500507 404.174400
   1291   1294   1295     1   109.5600471 388.275200
   1291   1294   1296     1   109.5600471 388.275200
   1292   1291   1294     1   109.5600471 388.275200
   1292   1291   1297     1   109.8800469 414.216000
   1292   1291   1293     1   108.4600466 328.025600
   1293   1291   1294     1   109.5600471 388.275200
   1293   1291   1297     1   109.8800469 414.216000
   1294   1314   1315     1   117.6800502 383.254400
   1295   1294   1314     1   108.8800464 416.726400
   1295   1294   1296     1   108.4600466 328.025600
   1296   1294   1314     1   108.8800464 416.726400
   1297   1298   1299     1   109.8800469 414.216000
   1297   1298   1300     1   109.8800469 414.216000
   1297   1301   1302     1   109.8800469 414.216000
   1297   1301   1303     1   109.8800469 414.216000
   1298   1307   1308     1   109.8000471 387.438400
   1298   1307   1309     1   109.8000471 387.438400
   1299   1298   1307     1   109.5600471 388.275200
   1299   1298   1300     1   108.4600466 328.025600
   1300   1298   1307     1   109.5600471 388.275200
   1301   1304   1305     1   109.8000471 387.438400
   1301   1304   1306     1   109.8000471 387.438400
   1302   1301   1304     1   109.5600471 388.275200
   1302   1301   1303     1   108.4600466 328.025600
   1303   1301   1304     1   109.5600471 388.275200
   1305   1304   1310     1   108.7700466 392.459200
   1305   1304   1306     1   107.5800459 329.699200
   1306   1304   1310     1   108.7700466 392.459200
   1308   1307   1311     1   108.7700466 392.459200
   1308   1307   1309     1   107.5800459 329.699200
   1309   1307   1311     1   108.7700466 392.459200
   1310   2664   2665     1   117.5500507 404.174400
   1311   2689   2690     1   117.5500507 404.174400
   1316   1319   1320     1   109.5600471 388.275200
   1316   1319   1321     1   109.5600471 388.275200
   1317   1316   1319     1   109.5600471 388.275200
   1317   1316   1322     1   109.8800469 414.216000
   1317   1316   1318     1   108.4600466 328.025600
   1318   1316   1319     1   109.5600471 388.275200
   1318   1316   1322     1   109.8800469 414.216000
   1319   1339   1340     1   117.6800502 383.254400
   1320   1319   1339     1   108.8800464 416.726400
   1320   1319   1321     1   108.4600466 328.025600
   1321   1319   1339     1   108.8800464 416.726400
   1322   1323   1324     1   109.8800469 414.216000
   1322   1323   1325     1   109.8800469 414.216000
   1322   1326   1327     1   109.8800469 414.216000
   1322   1326   1328     1   109.8800469 414.216000
   1323   1332   1333     1   109.8000471 387.438400
   1323   1332   1334     1   109.8000471 387.438400
   1324   1323   1332     1   109.5600471 388.275200
   1324   1323   1325     1   108.4600466 328.025600
   1325   1323   1332     1   109.5600471 388.275200
   1326   1329   1330     1   109.8000471 387.438400
   1326   1329   1331     1   109.8000471 387.438400
   1327   1326   1329     1   109.5600471 388.275200
   1327   1326   1328     1   108.4600466 328.025600
   1328   1326   1329     1   109.5600471 388.275200
   1330   1329   1335     1   108.7700466 392.459200
   1330   1329   1331     1   107.5800459 329.699200
   1331   1329   1335     1   108.7700466 392.459200
   1333   1332   1336     1   108.7700466 392.459200
   1333   1332   1334     1   107.5800459 329.699200
   1334   1332   1336     1   108.7700466 392.459200
   1335   2714   2715     1   117.5500507 404.174400
   1336   2739   2740     1   117.5500507 404.174400
   1341   1344   1345     1   109.5600471 388.275200
   1341   1344   1346     1   109.5600471 388.275200
   1342   1341   1344     1   109.5600471 388.275200
   1342   1341   1347     1   109.8800469 414.216000
   1342   1341   1343     1   108.4600466 328.025600
   1343   1341   1344     1   109.5600471 388.275200
   1343   1341   1347     1   109.8800469 414.216000
   1344   1364   1365     1   117.6800502 383.254400
   1345   1344   1364     1   108.8800464 416.726400
   1345   1344   1346     1   108.4600466 328.025600
   1346   1344   1364     1   108.8800464 416.726400
   1347   1348   1349     1   109.8800469 414.216000
   1347   1348   1350     1   109.8800469 414.216000
   1347   1351   1352     1   109.8800469 414.216000
   1347   1351   1353     1   109.8800469 414.216000
   1348   1357   1358     1   109.8000471 387.438400
   1348   1357   1359     1   109.8000471 387.438400
   1349   1348   1357     1   109.5600471 388.275200
   1349   1348   1350     1   108.4600466 328.025600
   1350   1348   1357     1   109.5600471 388.275200
   1351   1354   1355     1   109.8000471 387.438400
   1351   1354   1356     1   109.8000471 387.438400
   1352   1351   1354     1   109.5600471 388.275200
   1352   1351   1353     1   108.4600466 328.025600
   1353   1351   1354     1   109.5600471 388.275200
   1355   1354   1360     1   108.7700466 392.459200
   1355   1354   1356     1   107.5800459 329.699200
   1356   1354   1360     1   108.7700466 392.459200
   1358   1357   1361     1   108.7700466 392.459200
   1358   1357   1359     1   107.5800459 329.699200
   1359   1357   1361     1   108.7700466 392.459200
   1360   2764   2765     1   117.5500507 404.174400
   1361   2789   2790     1   117.5500507 404.174400
   1366   1369   1370     1   109.5600471 388.275200
   1366   1369   1371     1   109.5600471 388.275200
   1367   1366   1369     1   109.5600471 388.275200
   1367   1366   1372     1   109.8800469 414.216000
   1367   1366   1368     1   108.4600466 328.025600
   1368   1366   1369     1   109.5600471 388.275200
   1368   1366   1372     1   109.8800469 414.216000
   1369   1389   1390     1   117.6800502 383.254400
   1370   1369   1389     1   108.8800464 416.726400
   1370   1369   1371     1   108.4600466 328.025600
   1371   1369   1389     1   108.8800464 416.726400
   1372   1373   1374     1   109.8800469 414.216000
   1372   1373   1375     1   109.8800469 414.216000
   1372   1376   1377     1   109.8800469 414.216000
   1372   1376   1378     1   109.8800469 414.216000
   1373   1382   1383     1   109.8000471 387.438400
   1373   1382   1384     1   109.8000471 387.438400
   1374   1373   1382     1   109.5600471 388.275200
   1374   1373   1375     1   108.4600466 328.025600
   1375   1373   1382     1   109.5600471 388.275200
   1376   1379   1380     1   109.8000471 387.438400
   1376   1379   1381     1   109.8000471 387.438400
   1377   1376   1379     1   109.5600471 388.275200
   1377   1376   1378     1   108.4600466 328.025600
   1378   1376   1379     1   109.5600471 388.275200
   1380   1379   1385     1   108.7700466 392.459200
   1380   1379   1381     1   107.5800459 329.699200
   1381   1379   1385     1   108.7700466 392.459200
   1383   1382   1386     1   108.7700466 392.459200
   1383   1382   1384     1   107.5800459 329.699200
   1384   1382   1386     1   108.7700466 392.459200
   1385   2814   2815     1   117.5500507 404.174400
   1386   2839   2840     1   117.5500507 404.174400
   1391   1394   1395     1   109.5600471 388.275200
   1391   1394   1396     1   109.5600471 388.275200
   1392   1391   1394     1   109.5600471 388.275200
   1392   1391   1397     1   109.8800469 414.216000
   1392   1391   1393     1   108.4600466 328.025600
   1393   1391   1394     1   109.5600471 388.275200
   1393   1391   1397     1   109.8800469 414.216000
   1394   1414   1415     1   117.6800502 383.254400
   1395   1394   1414     1   108.8800464 416.726400
   1395   1394   1396     1   108.4600466 328.025600
   1396   1394   1414     1   108.8800464 416.726400
   1397   1398   1399     1   109.8800469 414.216000
   1397   1398   1400     1   109.8800469 414.216000
   1397   1401   1402     1   109.8800469 414.216000
   1397   1401   1403     1   109.8800469 414.216000
   1398   1407   1408     1   109.8000471 387.438400
   1398   1407   1409     1   109.8000471 387.438400
   1399   1398   1407     1   109.5600471 388.275200
   1399   1398   1400     1   108.4600466 328.025600
   1400   1398   1407     1   109.5600471 388.275200
   1401   1404   1405     1   109.8000471 387.438400
   1401   1404   1406     1   109.8000471 387.438400
   1402   1401   1404     1   109.5600471 388.275200
   1402   1401   1403     1   108.4600466 328.025600
   1403   1401   1404     1   109.5600471 388.275200
   1405   1404   1410     1   108.7700466 392.459200
   1405   1404   1406     1   107.5800459 329.699200
   1406   1404   1410     1   108.7700466 392.459200
   1408   1407   1411     1   108.7700466 392.459200
   1408   1407   1409     1   107.5800459 329.699200
   1409   1407   1411     1   108.7700466 392.459200
   1410   2864   2865     1   117.5500507 404.174400
   1411   2889   2890     1   117.5500507 404.174400
   1416   1419   1420     1   109.5600471 388.275200
   1416   1419   1421     1   109.5600471 388.275200
   1417   1416   1419     1   109.5600471 388.275200
   1417   1416   1422     1   109.8800469 414.216000
   1417   1416   1418     1   108.4600466 328.025600
   1418   1416   1419     1   109.5600471 388.275200
   1418   1416   1422     1   109.8800469 414.216000
   1419   1439   1440     1   117.6800502 383.254400
   1420   1419   1439     1   108.8800464 416.726400
   1420   1419   1421     1   108.4600466 328.025600
   1421   1419   1439     1   108.8800464 416.726400
   1422   1423   1424     1   109.8800469 414.216000
   1422   1423   1425     1   109.8800469 414.216000
   1422   1426   1427     1   109.8800469 414.216000
   1422   1426   1428     1   109.8800469 414.216000
   1423   1432   1433     1   109.8000471 387.438400
   1423   1432   1434     1   109.8000471 387.438400
   1424   1423   1432     1   109.5600471 388.275200
   1424   1423   1425     1   108.4600466 328.025600
   1425   1423   1432     1   109.5600471 388.275200
   1426   1429   1430     1   109.8000471 387.438400
   1426   1429   1431     1   109.8000471 387.438400
   1427   1426   1429     1   109.5600471 388.275200
   1427   1426   1428     1   108.4600466 328.025600
   1428   1426   1429     1   109.5600471 388.275200
   1430   1429   1435     1   108.7700466 392.459200
   1430   1429   1431     1   107.5800459 329.699200
   1431   1429   1435     1   108.7700466 392.459200
   1433   1432   1436     1   108.7700466 392.459200
   1433   1432   1434     1   107.5800459 329.699200
   1434   1432   1436     1   108.7700466 392.459200
   1435   2914   2915     1   117.5500507 404.174400
   1436   2939   2940     1   117.5500507 404.174400
   1441   1444   1445     1   109.5600471 388.275200
   1441   1444   1446     1   109.5600471 388.275200
   1442   1441   1444     1   109.5600471 388.275200
   1442   1441   1447     1   109.8800469 414.216000
   1442   1441   1443     1   108.4600466 328.025600
   1443   1441   1444     1   109.5600471 388.275200
   1443   1441   1447     1   109.8800469 414.216000
   1444   1464   1465     1   117.6800502 383.254400
   1445   1444   1464     1   108.8800464 416.726400
   1445   1444   1446     1   108.4600466 328.025600
   1446   1444   1464     1   108.8800464 416.726400
   1447   1448   1449     1   109.8800469 414.216000
   1447   1448   1450     1   109.8800469 414.216000
   1447   1451   1452     1   109.8800469 414.216000
   1447   1451   1453     1   109.8800469 414.216000
   1448   1457   1458     1   109.8000471 387.438400
   1448   1457   1459     1   109.8000471 387.438400
   1449   1448   1457     1   109.5600471 388.275200
   1449   1448   1450     1   108.4600466 328.025600
   1450   1448   1457     1   109.5600471 388.275200
   1451   1454   1455     1   109.8000471 387.438400
   1451   1454   1456     1   109.8000471 387.438400
   1452   1451   1454     1   109.5600471 388.275200
   1452   1451   1453     1   108.4600466 328.025600
   1453   1451   1454     1   109.5600471 388.275200
   1455   1454   1460     1   108.7700466 392.459200
   1455   1454   1456     1   107.5800459 329.699200
   1456   1454   1460     1   108.7700466 392.459200
   1458   1457   1461     1   108.7700466 392.459200
   1458   1457   1459     1   107.5800459 329.699200
   1459   1457   1461     1   108.7700466 392.459200
   1460   2964   2965     1   117.5500507 404.174400
   1461   2989   2990     1   117.5500507 404.174400
   1466   1469   1470     1   109.5600471 388.275200
   1466   1469   1471     1   109.5600471 388.275200
   1467   1466   1469     1   109.5600471 388.275200
   1467   1466   1472     1   109.8800469 414.216000
   1467   1466   1468     1   108.4600466 328.025600
   1468   1466   1469     1   109.5600471 388.275200
   1468   1466   1472     1   109.8800469 414.216000
   1469   1489   1490     1   117.6800502 383.254400
   1470   1469   1489     1   108.8800464 416.726400
   1470   1469   1471     1   108.4600466 328.025600
   1471   1469   1489     1   108.8800464 416.726400
   1472   1473   1474     1   109.8800469 414.216000
   1472   1473   1475     1   109.8800469 414.216000
   1472   1476   1477     1   109.8800469 414.216000
   1472   1476   1478     1   109.8800469 414.216000
   1473   1482   1483     1   109.8000471 387.438400
   1473   1482   1484     1   109.8000471 387.438400
   1474   1473   1482     1   109.5600471 388.275200
   1474   1473   1475     1   108.4600466 328.025600
   1475   1473   1482     1   109.5600471 388.275200
   1476   1479   1480     1   109.8000471 387.438400
   1476   1479   1481     1   109.8000471 387.438400
   1477   1476   1479     1   109.5600471 388.275200
   1477   1476   1478     1   108.4600466 328.025600
   1478   1476   1479     1   109.5600471 388.275200
   1480   1479   1485     1   108.7700466 392.459200
   1480   1479   1481     1   107.5800459 329.699200
   1481   1479   1485     1   108.7700466 392.459200
   1483   1482   1486     1   108.7700466 392.459200
   1483   1482   1484     1   107.5800459 329.699200
   1484   1482   1486     1   108.7700466 392.459200
   1485   3014   3015     1   117.5500507 404.174400
   1486   3039   3040     1   117.5500507 404.174400
   1491   1494   1495     1   109.5600471 388.275200
   1491   1494   1496     1   109.5600471 388.275200
   1492   1491   1494     1   109.5600471 388.275200
   1492   1491   1497     1   109.8800469 414.216000
   1492   1491   1493     1   108.4600466 328.025600
   1493   1491   1494     1   109.5600471 388.275200
   1493   1491   1497     1   109.8800469 414.216000
   1494   1514   1515     1   117.6800502 383.254400
   1495   1494   1514     1   108.8800464 416.726400
   1495   1494   1496     1   108.4600466 328.025600
   1496   1494   1514     1   108.8800464 416.726400
   1497   1498   1499     1   109.8800469 414.216000
   1497   1498   1500     1   109.8800469 414.216000
   1497   1501   1502     1   109.8800469 414.216000
   1497   1501   1503     1   109.8800469 414.216000
   1498   1507   1508     1   109.8000471 387.438400
   1498   1507   1509     1   109.8000471 387.438400
   1499   1498   1507     1   109.5600471 388.275200
   1499   1498   1500     1   108.4600466 328.025600
   1500   1498   1507     1   109.5600471 388.275200
   1501   1504   1505     1   109.8000471 387.438400
   1501   1504   1506     1   109.8000471 387.438400
   1502   1501   1504     1   109.5600471 388.275200
   1502   1501   1503     1   108.4600466 328.025600
   1503   1501   1504     1   109.5600471 388.275200
   1505   1504   1510     1   108.7700466 392.459200
   1505   1504   1506     1   107.5800459 329.699200
   1506   1504   1510     1   108.7700466 392.459200
   1508   1507   1511     1   108.7700466 392.459200
   1508   1507   1509     1   107.5800459 329.699200
   1509   1507   1511     1   108.7700466 392.459200
   1510   3064   3065     1   117.5500507 404.174400
   1511   3089   3090     1   117.5500507 404.174400
   1516   1519   1520     1   109.5600471 388.275200
   1516   1519   1521     1   109.5600471 388.275200
   1517   1516   1519     1   109.5600471 388.275200
   1517   1516   1522     1   109.8800469 414.216000
   1517   1516   1518     1   108.4600466 328.025600
   1518   1516   1519     1   109.5600471 388.275200
   1518   1516   1522     1   109.8800469 414.216000
   1519   1539   1540     1   117.6800502 383.254400
   1520   1519   1539     1   108.8800464 416.726400
   1520   1519   1521     1   108.4600466 328.025600
   1521   1519   1539     1   108.8800464 416.726400
   1522   1523   1524     1   109.8800469 414.216000
   1522   1523   1525     1   109.8800469 414.216000
   1522   1526   1527     1   109.8800469 414.216000
   1522   1526   1528     1   109.8800469 414.216000
   1523   1532   1533     1   109.8000471 387.438400
   1523   1532   1534     1   109.8000471 387.438400
   1524   1523   1532     1   109.5600471 388.275200
   1524   1523   1525     1   108.4600466 328.025600
   1525   1523   1532     1   109.5600471 388.275200
   1526   1529   1530     1   109.8000471 387.438400
   1526   1529   1531     1   109.8000471 387.438400
   1527   1526   1529     1   109.5600471 388.275200
   1527   1526   1528     1   108.4600466 328.025600
   1528   1526   1529     1   109.5600471 388.275200
   1530   1529   1535     1   108.7700466 392.459200
   1530   1529   1531     1   107.5800459 329.699200
   1531   1529   1535     1   108.7700466 392.459200
   1533   1532   1536     1   108.7700466 392.459200
   1533   1532   1534     1   107.5800459 329.699200
   1534   1532   1536     1   108.7700466 392.459200
   1535   3114   3115     1   117.5500507 404.174400
   1536   3139   3140     1   117.5500507 404.174400
   1541   1544   1545     1   109.5600471 388.275200
   1541   1544   1546     1   109.5600471 388.275200
   1542   1541   1544     1   109.5600471 388.275200
   1542   1541   1547     1   109.8800469 414.216000
   1542   1541   1543     1   108.4600466 328.025600
   1543   1541   1544     1   109.5600471 388.275200
   1543   1541   1547     1   109.8800469 414.216000
   1544   1564   1565     1   117.6800502 383.254400
   1545   1544   1564     1   108.8800464 416.726400
   1545   1544   1546     1   108.4600466 328.025600
   1546   1544   1564     1   108.8800464 416.726400
   1547   1548   1549     1   109.8800469 414.216000
   1547   1548   1550     1   109.8800469 414.216000
   1547   1551   1552     1   109.8800469 414.216000
   1547   1551   1553     1   109.8800469 414.216000
   1548   1557   1558     1   109.8000471 387.438400
   1548   1557   1559     1   109.8000471 387.438400
   1549   1548   1557     1   109.5600471 388.275200
   1549   1548   1550     1   108.4600466 328.025600
   1550   1548   1557     1   109.5600471 388.275200
   1551   1554   1555     1   109.8000471 387.438400
   1551   1554   1556     1   109.8000471 387.438400
   1552   1551   1554     1   109.5600471 388.275200
   1552   1551   1553     1   108.4600466 328.025600
   1553   1551   1554     1   109.5600471 388.275200
   1555   1554   1560     1   108.7700466 392.459200
   1555   1554   1556     1   107.5800459 329.699200
   1556   1554   1560     1   108.7700466 392.459200
   1558   1557   1561     1   108.7700466 392.459200
   1558   1557   1559     1   107.5800459 329.699200
   1559   1557   1561     1   108.7700466 392.459200
   1560   3141   3142     1   117.5500507 404.174400
   1561   3214   3215     1   117.5500507 404.174400
   1566   1569   1570     1   109.5600471 388.275200
   1566   1569   1571     1   109.5600471 388.275200
   1567   1566   1569     1   109.5600471 388.275200
   1567   1566   1572     1   109.8800469 414.216000
   1567   1566   1568     1   108.4600466 328.025600
   1568   1566   1569     1   109.5600471 388.275200
   1568   1566   1572     1   109.8800469 414.216000
   1569   1589   1590     1   117.6800502 383.254400
   1570   1569   1589     1   108.8800464 416.726400
   1570   1569   1571     1   108.4600466 328.025600
   1571   1569   1589     1   108.8800464 416.726400
   1572   1573   1574     1   109.8800469 414.216000
   1572   1573   1575     1   109.8800469 414.216000
   1572   1576   1577     1   109.8800469 414.216000
   1572   1576   1578     1   109.8800469 414.216000
   1573   1582   1583     1   109.8000471 387.438400
   1573   1582   1584     1   109.8000471 387.438400
   1574   1573   1582     1   109.5600471 388.275200
   1574   1573   1575     1   108.4600466 328.025600
   1575   1573   1582     1   109.5600471 388.275200
   1576   1579   1580     1   109.8000471 387.438400
   1576   1579   1581     1   109.8000471 387.438400
   1577   1576   1579     1   109.5600471 388.275200
   1577   1576   1578     1   108.4600466 328.025600
   1578   1576   1579     1   109.5600471 388.275200
   1580   1579   1585     1   108.7700466 392.459200
   1580   1579   1581     1   107.5800459 329.699200
   1581   1579   1585     1   108.7700466 392.459200
   1583   1582   1586     1   108.7700466 392.459200
   1583   1582   1584     1   107.5800459 329.699200
   1584   1582   1586     1   108.7700466 392.459200
   1585   3287   3288     1   117.5500507 404.174400
   1586   3360   3361     1   117.5500507 404.174400
   1591   1594   1595     1   109.5600471 388.275200
   1591   1594   1596     1   109.5600471 388.275200
   1592   1591   1594     1   109.5600471 388.275200
   1592   1591   1597     1   109.8800469 414.216000
   1592   1591   1593     1   108.4600466 328.025600
   1593   1591   1594     1   109.5600471 388.275200
   1593   1591   1597     1   109.8800469 414.216000
   1594   1614   1615     1   117.6800502 383.254400
   1595   1594   1614     1   108.8800464 416.726400
   1595   1594   1596     1   108.4600466 328.025600
   1596   1594   1614     1   108.8800464 416.726400
   1597   1598   1599     1   109.8800469 414.216000
   1597   1598   1600     1   109.8800469 414.216000
   1597   1601   1602     1   109.8800469 414.216000
   1597   1601   1603     1   109.8800469 414.216000
   1598   1607   1608     1   109.8000471 387.438400
   1598   1607   1609     1   109.8000471 387.438400
   1599   1598   1607     1   109.5600471 388.275200
   1599   1598   1600     1   108.4600466 328.025600
   1600   1598   1607     1   109.5600471 388.275200
   1601   1604   1605     1   109.8000471 387.438400
   1601   1604   1606     1   109.8000471 387.438400
   1602   1601   1604     1   109.5600471 388.275200
   1602   1601   1603     1   108.4600466 328.025600
   1603   1601   1604     1   109.5600471 388.275200
   1605   1604   1610     1   108.7700466 392.459200
   1605   1604   1606     1   107.5800459 329.699200
   1606   1604   1610     1   108.7700466 392.459200
   1608   1607   1611     1   108.7700466 392.459200
   1608   1607   1609     1   107.5800459 329.699200
   1609   1607   1611     1   108.7700466 392.459200
   1610   3433   3434     1   117.5500507 404.174400
   1611   3506   3507     1   117.5500507 404.174400
   1616   1619   1620     1   109.5600471 388.275200
   1616   1619   1621     1   109.5600471 388.275200
   1617   1616   1619     1   109.5600471 388.275200
   1617   1616   1622     1   109.8800469 414.216000
   1617   1616   1618     1   108.4600466 328.025600
   1618   1616   1619     1   109.5600471 388.275200
   1618   1616   1622     1   109.8800469 414.216000
   1619   1639   1640     1   117.6800502 383.254400
   1620   1619   1639     1   108.8800464 416.726400
   1620   1619   1621     1   108.4600466 328.025600
   1621   1619   1639     1   108.8800464 416.726400
   1622   1623   1624     1   109.8800469 414.216000
   1622   1623   1625     1   109.8800469 414.216000
   1622   1626   1627     1   109.8800469 414.216000
   1622   1626   1628     1   109.8800469 414.216000
   1623   1632   1633     1   109.8000471 387.438400
   1623   1632   1634     1   109.8000471 387.438400
   1624   1623   1632     1   109.5600471 388.275200
   1624   1623   1625     1   108.4600466 328.025600
   1625   1623   1632     1   109.5600471 388.275200
   1626   1629   1630     1   109.8000471 387.438400
   1626   1629   1631     1   109.8000471 387.438400
   1627   1626   1629     1   109.5600471 388.275200
   1627   1626   1628     1   108.4600466 328.025600
   1628   1626   1629     1   109.5600471 388.275200
   1630   1629   1635     1   108.7700466 392.459200
   1630   1629   1631     1   107.5800459 329.699200
   1631   1629   1635     1   108.7700466 392.459200
   1633   1632   1636     1   108.7700466 392.459200
   1633   1632   1634     1   107.5800459 329.699200
   1634   1632   1636     1   108.7700466 392.459200
   1635   3579   3580     1   117.5500507 404.174400
   1636   3652   3653     1   117.5500507 404.174400
   1641   1644   1645     1   109.5600471 388.275200
   1641   1644   1646     1   109.5600471 388.275200
   1642   1641   1644     1   109.5600471 388.275200
   1642   1641   1647     1   109.8800469 414.216000
   1642   1641   1643     1   108.4600466 328.025600
   1643   1641   1644     1   109.5600471 388.275200
   1643   1641   1647     1   109.8800469 414.216000
   1644   1664   1665     1   117.6800502 383.254400
   1645   1644   1664     1   108.8800464 416.726400
   1645   1644   1646     1   108.4600466 328.025600
   1646   1644   1664     1   108.8800464 416.726400
   1647   1648   1649     1   109.8800469 414.216000
   1647   1648   1650     1   109.8800469 414.216000
   1647   1651   1652     1   109.8800469 414.216000
   1647   1651   1653     1   109.8800469 414.216000
   1648   1657   1658     1   109.8000471 387.438400
   1648   1657   1659     1   109.8000471 387.438400
   1649   1648   1657     1   109.5600471 388.275200
   1649   1648   1650     1   108.4600466 328.025600
   1650   1648   1657     1   109.5600471 388.275200
   1651   1654   1655     1   109.8000471 387.438400
   1651   1654   1656     1   109.8000471 387.438400
   1652   1651   1654     1   109.5600471 388.275200
   1652   1651   1653     1   108.4600466 328.025600
   1653   1651   1654     1   109.5600471 388.275200
   1655   1654   1660     1   108.7700466 392.459200
   1655   1654   1656     1   107.5800459 329.699200
   1656   1654   1660     1   108.7700466 392.459200
   1658   1657   1661     1   108.7700466 392.459200
   1658   1657   1659     1   107.5800459 329.699200
   1659   1657   1661     1   108.7700466 392.459200
   1660   3725   3726     1   117.5500507 404.174400
   1661   3798   3799     1   117.5500507 404.174400
   1666   1669   1670     1   109.5600471 388.275200
   1666   1669   1671     1   109.5600471 388.275200
   1667   1666   1669     1   109.5600471 388.275200
   1667   1666   1672     1   109.8800469 414.216000
   1667   1666   1668     1   108.4600466 328.025600
   1668   1666   1669     1   109.5600471 388.275200
   1668   1666   1672     1   109.8800469 414.216000
   1669   1689   1690     1   117.6800502 383.254400
   1670   1669   1689     1   108.8800464 416.726400
   1670   1669   1671     1   108.4600466 328.025600
   1671   1669   1689     1   108.8800464 416.726400
   1672   1673   1674     1   109.8800469 414.216000
   1672   1673   1675     1   109.8800469 414.216000
   1672   1676   1677     1   109.8800469 414.216000
   1672   1676   1678     1   109.8800469 414.216000
   1673   1682   1683     1   109.8000471 387.438400
   1673   1682   1684     1   109.8000471 387.438400
   1674   1673   1682     1   109.5600471 388.275200
   1674   1673   1675     1   108.4600466 328.025600
   1675   1673   1682     1   109.5600471 388.275200
   1676   1679   1680     1   109.8000471 387.438400
   1676   1679   1681     1   109.8000471 387.438400
   1677   1676   1679     1   109.5600471 388.275200
   1677   1676   1678     1   108.4600466 328.025600
   1678   1676   1679     1   109.5600471 388.275200
   1680   1679   1685     1   108.7700466 392.459200
   1680   1679   1681     1   107.5800459 329.699200
   1681   1679   1685     1   108.7700466 392.459200
   1683   1682   1686     1   108.7700466 392.459200
   1683   1682   1684     1   107.5800459 329.699200
   1684   1682   1686     1   108.7700466 392.459200
   1685   3871   3872     1   117.5500507 404.174400
   1686   3944   3945     1   117.5500507 404.174400
   1691   1694   1695     1   109.5600471 388.275200
   1691   1694   1696     1   109.5600471 388.275200
   1692   1691   1694     1   109.5600471 388.275200
   1692   1691   1697     1   109.8800469 414.216000
   1692   1691   1693     1   108.4600466 328.025600
   1693   1691   1694     1   109.5600471 388.275200
   1693   1691   1697     1   109.8800469 414.216000
   1694   1714   1715     1   117.6800502 383.254400
   1695   1694   1714     1   108.8800464 416.726400
   1695   1694   1696     1   108.4600466 328.025600
   1696   1694   1714     1   108.8800464 416.726400
   1697   1698   1699     1   109.8800469 414.216000
   1697   1698   1700     1   109.8800469 414.216000
   1697   1701   1702     1   109.8800469 414.216000
   1697   1701   1703     1   109.8800469 414.216000
   1698   1707   1708     1   109.8000471 387.438400
   1698   1707   1709     1   109.8000471 387.438400
   1699   1698   1707     1   109.5600471 388.275200
   1699   1698   1700     1   108.4600466 328.025600
   1700   1698   1707     1   109.5600471 388.275200
   1701   1704   1705     1   109.8000471 387.438400
   1701   1704   1706     1   109.8000471 387.438400
   1702   1701   1704     1   109.5600471 388.275200
   1702   1701   1703     1   108.4600466 328.025600
   1703   1701   1704     1   109.5600471 388.275200
   1705   1704   1710     1   108.7700466 392.459200
   1705   1704   1706     1   107.5800459 329.699200
   1706   1704   1710     1   108.7700466 392.459200
   1708   1707   1711     1   108.7700466 392.459200
   1708   1707   1709     1   107.5800459 329.699200
   1709   1707   1711     1   108.7700466 392.459200
   1710   4017   4018     1   117.5500507 404.174400
   1711   4090   4091     1   117.5500507 404.174400
   1716   1719   1720     1   109.5600471 388.275200
   1716   1719   1721     1   109.5600471 388.275200
   1717   1716   1719     1   109.5600471 388.275200
   1717   1716   1722     1   109.8800469 414.216000
   1717   1716   1718     1   108.4600466 328.025600
   1718   1716   1719     1   109.5600471 388.275200
   1718   1716   1722     1   109.8800469 414.216000
   1719   1739   1740     1   117.6800502 383.254400
   1720   1719   1739     1   108.8800464 416.726400
   1720   1719   1721     1   108.4600466 328.025600
   1721   1719   1739     1   108.8800464 416.726400
   1722   1723   1724     1   109.8800469 414.216000
   1722   1723   1725     1   109.8800469 414.216000
   1722   1726   1727     1   109.8800469 414.216000
   1722   1726   1728     1   109.8800469 414.216000
   1723   1732   1733     1   109.8000471 387.438400
   1723   1732   1734     1   109.8000471 387.438400
   1724   1723   1732     1   109.5600471 388.275200
   1724   1723   1725     1   108.4600466 328.025600
   1725   1723   1732     1   109.5600471 388.275200
   1726   1729   1730     1   109.8000471 387.438400
   1726   1729   1731     1   109.8000471 387.438400
   1727   1726   1729     1   109.5600471 388.275200
   1727   1726   1728     1   108.4600466 328.025600
   1728   1726   1729     1   109.5600471 388.275200
   1730   1729   1735     1   108.7700466 392.459200
   1730   1729   1731     1   107.5800459 329.699200
   1731   1729   1735     1   108.7700466 392.459200
   1733   1732   1736     1   108.7700466 392.459200
   1733   1732   1734     1   107.5800459 329.699200
   1734   1732   1736     1   108.7700466 392.459200
   1735   4163   4164     1   117.5500507 404.174400
   1736   4236   4237     1   117.5500507 404.174400
   1741   1744   1745     1   109.5600471 388.275200
   1741   1744   1746     1   109.5600471 388.275200
   1742   1741   1744     1   109.5600471 388.275200
   1742   1741   1747     1   109.8800469 414.216000
   1742   1741   1743     1   108.4600466 328.025600
   1743   1741   1744     1   109.5600471 388.275200
   1743   1741   1747     1   109.8800469 414.216000
   1744   1764   1765     1   117.6800502 383.254400
   1745   1744   1764     1   108.8800464 416.726400
   1745   1744   1746     1   108.4600466 328.025600
   1746   1744   1764     1   108.8800464 416.726400
   1747   1748   1749     1   109.8800469 414.216000
   1747   1748   1750     1   109.8800469 414.216000
   1747   1751   1752     1   109.8800469 414.216000
   1747   1751   1753     1   109.8800469 414.216000
   1748   1757   1758     1   109.8000471 387.438400
   1748   1757   1759     1   109.8000471 387.438400
   1749   1748   1757     1   109.5600471 388.275200
   1749   1748   1750     1   108.4600466 328.025600
   1750   1748   1757     1   109.5600471 388.275200
   1751   1754   1755     1   109.8000471 387.438400
   1751   1754   1756     1   109.8000471 387.438400
   1752   1751   1754     1   109.5600471 388.275200
   1752   1751   1753     1   108.4600466 328.025600
   1753   1751   1754     1   109.5600471 388.275200
   1755   1754   1760     1   108.7700466 392.459200
   1755   1754   1756     1   107.5800459 329.699200
   1756   1754   1760     1   108.7700466 392.459200
   1758   1757   1761     1   108.7700466 392.459200
   1758   1757   1759     1   107.5800459 329.699200
   1759   1757   1761     1   108.7700466 392.459200
   1760   4309   4310     1   117.5500507 404.174400
   1761   4382   4383     1   117.5500507 404.174400
   1766   1769   1770     1   109.5600471 388.275200
   1766   1769   1771     1   109.5600471 388.275200
   1767   1766   1769     1   109.5600471 388.275200
   1767   1766   1772     1   109.8800469 414.216000
   1767   1766   1768     1   108.4600466 328.025600
   1768   1766   1769     1   109.5600471 388.275200
   1768   1766   1772     1   109.8800469 414.216000
   1769   1789   1790     1   117.6800502 383.254400
   1770   1769   1789     1   108.8800464 416.726400
   1770   1769   1771     1   108.4600466 328.025600
   1771   1769   1789     1   108.8800464 416.726400
   1772   1773   1774     1   109.8800469 414.216000
   1772   1773   1775     1   109.8800469 414.216000
   1772   1776   1777     1   109.8800469 414.216000
   1772   1776   1778     1   109.8800469 414.216000
   1773   1782   1783     1   109.8000471 387.438400
   1773   1782   1784     1   109.8000471 387.438400
   1774   1773   1782     1   109.5600471 388.275200
   1774   1773   1775     1   108.4600466 328.025600
   1775   1773   1782     1   109.5600471 388.275200
   1776   1779   1780     1   109.8000471 387.438400
   1776   1779   1781     1   109.8000471 387.438400
   1777   1776   1779     1   109.5600471 388.275200
   1777   1776   1778     1   108.4600466 328.025600
   1778   1776   1779     1   109.5600471 388.275200
   1780   1779   1785     1   108.7700466 392.459200
   1780   1779   1781     1   107.5800459 329.699200
   1781   1779   1785     1   108.7700466 392.459200
   1783   1782   1786     1   108.7700466 392.459200
   1783   1782   1784     1   107.5800459 329.699200
   1784   1782   1786     1   108.7700466 392.459200
   1785   4455   4456     1   117.5500507 404.174400
   1786   4528   4529     1   117.5500507 404.174400
   1791   1794   1795     1   109.5600471 388.275200
   1791   1794   1796     1   109.5600471 388.275200
   1792   1791   1794     1   109.5600471 388.275200
   1792   1791   1797     1   109.8800469 414.216000
   1792   1791   1793     1   108.4600466 328.025600
   1793   1791   1794     1   109.5600471 388.275200
   1793   1791   1797     1   109.8800469 414.216000
   1794   1814   1815     1   117.6800502 383.254400
   1795   1794   1814     1   108.8800464 416.726400
   1795   1794   1796     1   108.4600466 328.025600
   1796   1794   1814     1   108.8800464 416.726400
   1797   1798   1799     1   109.8800469 414.216000
   1797   1798   1800     1   109.8800469 414.216000
   1797   1801   1802     1   109.8800469 414.216000
   1797   1801   1803     1   109.8800469 414.216000
   1798   1807   1808     1   109.8000471 387.438400
   1798   1807   1809     1   109.8000471 387.438400
   1799   1798   1807     1   109.5600471 388.275200
   1799   1798   1800     1   108.4600466 328.025600
   1800   1798   1807     1   109.5600471 388.275200
   1801   1804   1805     1   109.8000471 387.438400
   1801   1804   1806     1   109.8000471 387.438400
   1802   1801   1804     1   109.5600471 388.275200
   1802   1801   1803     1   108.4600466 328.025600
   1803   1801   1804     1   109.5600471 388.275200
   1805   1804   1810     1   108.7700466 392.459200
   1805   1804   1806     1   107.5800459 329.699200
   1806   1804   1810     1   108.7700466 392.459200
   1808   1807   1811     1   108.7700466 392.459200
   1808   1807   1809     1   107.5800459 329.699200
   1809   1807   1811     1   108.7700466 392.459200
   1810   4601   4602     1   117.5500507 404.174400
   1811   4674   4675     1   117.5500507 404.174400
   1816   1819   1820     1   109.5600471 388.275200
   1816   1819   1821     1   109.5600471 388.275200
   1817   1816   1819     1   109.5600471 388.275200
   1817   1816   1822     1   109.8800469 414.216000
   1817   1816   1818     1   108.4600466 328.025600
   1818   1816   1819     1   109.5600471 388.275200
   1818   1816   1822     1   109.8800469 414.216000
   1819   1839   1840     1   117.6800502 383.254400
   1820   1819   1839     1   108.8800464 416.726400
   1820   1819   1821     1   108.4600466 328.025600
   1821   1819   1839     1   108.8800464 416.726400
   1822   1823   1824     1   109.8800469 414.216000
   1822   1823   1825     1   109.8800469 414.216000
   1822   1826   1827     1   109.8800469 414.216000
   1822   1826   1828     1   109.8800469 414.216000
   1823   1832   1833     1   109.8000471 387.438400
   1823   1832   1834     1   109.8000471 387.438400
   1824   1823   1832     1   109.5600471 388.275200
   1824   1823   1825     1   108.4600466 328.025600
   1825   1823   1832     1   109.5600471 388.275200
   1826   1829   1830     1   109.8000471 387.438400
   1826   1829   1831     1   109.8000471 387.438400
   1827   1826   1829     1   109.5600471 388.275200
   1827   1826   1828     1   108.4600466 328.025600
   1828   1826   1829     1   109.5600471 388.275200
   1830   1829   1835     1   108.7700466 392.459200
   1830   1829   1831     1   107.5800459 329.699200
   1831   1829   1835     1   108.7700466 392.459200
   1833   1832   1836     1   108.7700466 392.459200
   1833   1832   1834     1   107.5800459 329.699200
   1834   1832   1836     1   108.7700466 392.459200
   1835   4747   4748     1   117.5500507 404.174400
   1836   4820   4821     1   117.5500507 404.174400
   1841   1844   1845     1   109.5600471 388.275200
   1841   1844   1846     1   109.5600471 388.275200
   1842   1841   1844     1   109.5600471 388.275200
   1842   1841   1847     1   109.8800469 414.216000
   1842   1841   1843     1   108.4600466 328.025600
   1843   1841   1844     1   109.5600471 388.275200
   1843   1841   1847     1   109.8800469 414.216000
   1844   1864   1865     1   117.6800502 383.254400
   1845   1844   1864     1   108.8800464 416.726400
   1845   1844   1846     1   108.4600466 328.025600
   1846   1844   1864     1   108.8800464 416.726400
   1847   1848   1849     1   109.8800469 414.216000
   1847   1848   1850     1   109.8800469 414.216000
   1847   1851   1852     1   109.8800469 414.216000
   1847   1851   1853     1   109.8800469 414.216000
   1848   1857   1858     1   109.8000471 387.438400
   1848   1857   1859     1   109.8000471 387.438400
   1849   1848   1857     1   109.5600471 388.275200
   1849   1848   1850     1   108.4600466 328.025600
   1850   1848   1857     1   109.5600471 388.275200
   1851   1854   1855     1   109.8000471 387.438400
   1851   1854   1856     1   109.8000471 387.438400
   1852   1851   1854     1   109.5600471 388.275200
   1852   1851   1853     1   108.4600466 328.025600
   1853   1851   1854     1   109.5600471 388.275200
   1855   1854   1860     1   108.7700466 392.459200
   1855   1854   1856     1   107.5800459 329.699200
   1856   1854   1860     1   108.7700466 392.459200
   1858   1857   1861     1   108.7700466 392.459200
   1858   1857   1859     1   107.5800459 329.699200
   1859   1857   1861     1   108.7700466 392.459200
   1860   4893   4894     1   117.5500507 404.174400
   1861   4966   4967     1   117.5500507 404.174400
   1866   1869   1870     1   109.5600471 388.275200
   1866   1869   1871     1   109.5600471 388.275200
   1867   1866   1869     1   109.5600471 388.275200
   1867   1866   1872     1   109.8800469 414.216000
   1867   1866   1868     1   108.4600466 328.025600
   1868   1866   1869     1   109.5600471 388.275200
   1868   1866   1872     1   109.8800469 414.216000
   1869   1889   1890     1   117.6800502 383.254400
   1870   1869   1889     1   108.8800464 416.726400
   1870   1869   1871     1   108.4600466 328.025600
   1871   1869   1889     1   108.8800464 416.726400
   1872   1873   1874     1   109.8800469 414.216000
   1872   1873   1875     1   109.8800469 414.216000
   1872   1876   1877     1   109.8800469 414.216000
   1872   1876   1878     1   109.8800469 414.216000
   1873   1882   1883     1   109.8000471 387.438400
   1873   1882   1884     1   109.8000471 387.438400
   1874   1873   1882     1   109.5600471 388.275200
   1874   1873   1875     1   108.4600466 328.025600
   1875   1873   1882     1   109.5600471 388.275200
   1876   1879   1880     1   109.8000471 387.438400
   1876   1879   1881     1   109.8000471 387.438400
   1877   1876   1879     1   109.5600471 388.275200
   1877   1876   1878     1   108.4600466 328.025600
   1878   1876   1879     1   109.5600471 388.275200
   1880   1879   1885     1   108.7700466 392.459200
   1880   1879   1881     1   107.5800459 329.699200
   1881   1879   1885     1   108.7700466 392.459200
   1883   1882   1886     1   108.7700466 392.459200
   1883   1882   1884     1   107.5800459 329.699200
   1884   1882   1886     1   108.7700466 392.459200
   1885   5039   5040     1   117.5500507 404.174400
   1886   5112   5113     1   117.5500507 404.174400
   1891   1894   1895     1   109.5600471 388.275200
   1891   1894   1896     1   109.5600471 388.275200
   1892   1891   1894     1   109.5600471 388.275200
   1892   1891   1897     1   109.8800469 414.216000
   1892   1891   1893     1   108.4600466 328.025600
   1893   1891   1894     1   109.5600471 388.275200
   1893   1891   1897     1   109.8800469 414.216000
   1894   1914   1915     1   117.6800502 383.254400
   1895   1894   1914     1   108.8800464 416.726400
   1895   1894   1896     1   108.4600466 328.025600
   1896   1894   1914     1   108.8800464 416.726400
   1897   1898   1899     1   109.8800469 414.216000
   1897   1898   1900     1   109.8800469 414.216000
   1897   1901   1902     1   109.8800469 414.216000
   1897   1901   1903     1   109.8800469 414.216000
   1898   1907   1908     1   109.8000471 387.438400
   1898   1907   1909     1   109.8000471 387.438400
   1899   1898   1907     1   109.5600471 388.275200
   1899   1898   1900     1   108.4600466 328.025600
   1900   1898   1907     1   109.5600471 388.275200
   1901   1904   1905     1   109.8000471 387.438400
   1901   1904   1906     1   109.8000471 387.438400
   1902   1901   1904     1   109.5600471 388.275200
   1902   1901   1903     1   108.4600466 328.025600
   1903   1901   1904     1   109.5600471 388.275200
   1905   1904   1910     1   108.7700466 392.459200
   1905   1904   1906     1   107.5800459 329.699200
   1906   1904   1910     1   108.7700466 392.459200
   1908   1907   1911     1   108.7700466 392.459200
   1908   1907   1909     1   107.5800459 329.699200
   1909   1907   1911     1   108.7700466 392.459200
   1910   5185   5186     1   117.5500507 404.174400
   1911   5258   5259     1   117.5500507 404.174400
   1916   1919   1920     1   109.5600471 388.275200
   1916   1919   1921     1   109.5600471 388.275200
   1917   1916   1919     1   109.5600471 388.275200
   1917   1916   1922     1   109.8800469 414.216000
   1917   1916   1918     1   108.4600466 328.025600
   1918   1916   1919     1   109.5600471 388.275200
   1918   1916   1922     1   109.8800469 414.216000
   1919   1939   1940     1   117.6800502 383.254400
   1920   1919   1939     1   108.8800464 416.726400
   1920   1919   1921     1   108.4600466 328.025600
   1921   1919   1939     1   108.8800464 416.726400
   1922   1923   1924     1   109.8800469 414.216000
   1922   1923   1925     1   109.8800469 414.216000
   1922   1926   1927     1   109.8800469 414.216000
   1922   1926   1928     1   109.8800469 414.216000
   1923   1932   1933     1   109.8000471 387.438400
   1923   1932   1934     1   109.8000471 387.438400
   1924   1923   1932     1   109.5600471 388.275200
   1924   1923   1925     1   108.4600466 328.025600
   1925   1923   1932     1   109.5600471 388.275200
   1926   1929   1930     1   109.8000471 387.438400
   1926   1929   1931     1   109.8000471 387.438400
   1927   1926   1929     1   109.5600471 388.275200
   1927   1926   1928     1   108.4600466 328.025600
   1928   1926   1929     1   109.5600471 388.275200
   1930   1929   1935     1   108.7700466 392.459200
   1930   1929   1931     1   107.5800459 329.699200
   1931   1929   1935     1   108.7700466 392.459200
   1933   1932   1936     1   108.7700466 392.459200
   1933   1932   1934     1   107.5800459 329.699200
   1934   1932   1936     1   108.7700466 392.459200
   1935   5331   5332     1   117.5500507 404.174400
   1936   5404   5405     1   117.5500507 404.174400
   1941   1944   1945     1   109.5600471 388.275200
   1941   1944   1946     1   109.5600471 388.275200
   1942   1941   1944     1   109.5600471 388.275200
   1942   1941   1947     1   109.8800469 414.216000
   1942   1941   1943     1   108.4600466 328.025600
   1943   1941   1944     1   109.5600471 388.275200
   1943   1941   1947     1   109.8800469 414.216000
   1944   1964   1965     1   117.6800502 383.254400
   1945   1944   1964     1   108.8800464 416.726400
   1945   1944   1946     1   108.4600466 328.025600
   1946   1944   1964     1   108.8800464 416.726400
   1947   1948   1949     1   109.8800469 414.216000
   1947   1948   1950     1   109.8800469 414.216000
   1947   1951   1952     1   109.8800469 414.216000
   1947   1951   1953     1   109.8800469 414.216000
   1948   1957   1958     1   109.8000471 387.438400
   1948   1957   1959     1   109.8000471 387.438400
   1949   1948   1957     1   109.5600471 388.275200
   1949   1948   1950     1   108.4600466 328.025600
   1950   1948   1957     1   109.5600471 388.275200
   1951   1954   1955     1   109.8000471 387.438400
   1951   1954   1956     1   109.8000471 387.438400
   1952   1951   1954     1   109.5600471 388.275200
   1952   1951   1953     1   108.4600466 328.025600
   1953   1951   1954     1   109.5600471 388.275200
   1955   1954   1960     1   108.7700466 392.459200
   1955   1954   1956     1   107.5800459 329.699200
   1956   1954   1960     1   108.7700466 392.459200
   1958   1957   1961     1   108.7700466 392.459200
   1958   1957   1959     1   107.5800459 329.699200
   1959   1957   1961     1   108.7700466 392.459200
   1960   5477   5478     1   117.5500507 404.174400
   1961   5550   5551     1   117.5500507 404.174400
   1966   1969   1970     1   109.5600471 388.275200
   1966   1969   1971     1   109.5600471 388.275200
   1967   1966   1969     1   109.5600471 388.275200
   1967   1966   1972     1   109.8800469 414.216000
   1967   1966   1968     1   108.4600466 328.025600
   1968   1966   1969     1   109.5600471 388.275200
   1968   1966   1972     1   109.8800469 414.216000
   1969   1989   1990     1   117.6800502 383.254400
   1970   1969   1989     1   108.8800464 416.726400
   1970   1969   1971     1   108.4600466 328.025600
   1971   1969   1989     1   108.8800464 416.726400
   1972   1973   1974     1   109.8800469 414.216000
   1972   1973   1975     1   109.8800469 414.216000
   1972   1976   1977     1   109.8800469 414.216000
   1972   1976   1978     1   109.8800469 414.216000
   1973   1982   1983     1   109.8000471 387.438400
   1973   1982   1984     1   109.8000471 387.438400
   1974   1973   1982     1   109.5600471 388.275200
   1974   1973   1975     1   108.4600466 328.025600
   1975   1973   1982     1   109.5600471 388.275200
   1976   1979   1980     1   109.8000471 387.438400
   1976   1979   1981     1   109.8000471 387.438400
   1977   1976   1979     1   109.5600471 388.275200
   1977   1976   1978     1   108.4600466 328.025600
   1978   1976   1979     1   109.5600471 388.275200
   1980   1979   1985     1   108.7700466 392.459200
   1980   1979   1981     1   107.5800459 329.699200
   1981   1979   1985     1   108.7700466 392.459200
   1983   1982   1986     1   108.7700466 392.459200
   1983   1982   1984     1   107.5800459 329.699200
   1984   1982   1986     1   108.7700466 392.459200
   1985   5623   5624     1   117.5500507 404.174400
   1986   5696   5697     1   117.5500507 404.174400
   1991   1994   1995     1   109.5600471 388.275200
   1991   1994   1996     1   109.5600471 388.275200
   1992   1991   1994     1   109.5600471 388.275200
   1992   1991   1997     1   109.8800469 414.216000
   1992   1991   1993     1   108.4600466 328.025600
   1993   1991   1994     1   109.5600471 388.275200
   1993   1991   1997     1   109.8800469 414.216000
   1994   2014   2015     1   117.6800502 383.254400
   1995   1994   2014     1   108.8800464 416.726400
   1995   1994   1996     1   108.4600466 328.025600
   1996   1994   2014     1   108.8800464 416.726400
   1997   1998   1999     1   109.8800469 414.216000
   1997   1998   2000     1   109.8800469 414.216000
   1997   2001   2002     1   109.8800469 414.216000
   1997   2001   2003     1   109.8800469 414.216000
   1998   2007   2008     1   109.8000471 387.438400
   1998   2007   2009     1   109.8000471 387.438400
   1999   1998   2007     1   109.5600471 388.275200
   1999   1998   2000     1   108.4600466 328.025600
   2000   1998   2007     1   109.5600471 388.275200
   2001   2004   2005     1   109.8000471 387.438400
   2001   2004   2006     1   109.8000471 387.438400
   2002   2001   2004     1   109.5600471 388.275200
   2002   2001   2003     1   108.4600466 328.025600
   2003   2001   2004     1   109.5600471 388.275200
   2005   2004   2010     1   108.7700466 392.459200
   2005   2004   2006     1   107.5800459 329.699200
   2006   2004   2010     1   108.7700466 392.459200
   2008   2007   2011     1   108.7700466 392.459200
   2008   2007   2009     1   107.5800459 329.699200
   2009   2007   2011     1   108.7700466 392.459200
   2010   5769   5770     1   117.5500507 404.174400
   2011   5842   5843     1   117.5500507 404.174400
   2016   2019   2020     1   109.5600471 388.275200
   2016   2019   2021     1   109.5600471 388.275200
   2017   2016   2019     1   109.5600471 388.275200
   2017   2016   2022     1   109.8800469 414.216000
   2017   2016   2018     1   108.4600466 328.025600
   2018   2016   2019     1   109.5600471 388.275200
   2018   2016   2022     1   109.8800469 414.216000
   2019   2039   2040     1   117.6800502 383.254400
   2020   2019   2039     1   108.8800464 416.726400
   2020   2019   2021     1   108.4600466 328.025600
   2021   2019   2039     1   108.8800464 416.726400
   2022   2023   2024     1   109.8800469 414.216000
   2022   2023   2025     1   109.8800469 414.216000
   2022   2026   2027     1   109.8800469 414.216000
   2022   2026   2028     1   109.8800469 414.216000
   2023   2032   2033     1   109.8000471 387.438400
   2023   2032   2034     1   109.8000471 387.438400
   2024   2023   2032     1   109.5600471 388.275200
   2024   2023   2025     1   108.4600466 328.025600
   2025   2023   2032     1   109.5600471 388.275200
   2026   2029   2030     1   109.8000471 387.438400
   2026   2029   2031     1   109.8000471 387.438400
   2027   2026   2029     1   109.5600471 388.275200
   2027   2026   2028     1   108.4600466 328.025600
   2028   2026   2029     1   109.5600471 388.275200
   2030   2029   2035     1   108.7700466 392.459200
   2030   2029   2031     1   107.5800459 329.699200
   2031   2029   2035     1   108.7700466 392.459200
   2033   2032   2036     1   108.7700466 392.459200
   2033   2032   2034     1   107.5800459 329.699200
   2034   2032   2036     1   108.7700466 392.459200
   2035   5915   5916     1   117.5500507 404.174400
   2036   5988   5989     1   117.5500507 404.174400
   2041   2044   2045     1   109.5600471 388.275200
   2041   2044   2046     1   109.5600471 388.275200
   2042   2041   2044     1   109.5600471 388.275200
   2042   2041   2047     1   109.8800469 414.216000
   2042   2041   2043     1   108.4600466 328.025600
   2043   2041   2044     1   109.5600471 388.275200
   2043   2041   2047     1   109.8800469 414.216000
   2044   2064   2065     1   117.6800502 383.254400
   2045   2044   2064     1   108.8800464 416.726400
   2045   2044   2046     1   108.4600466 328.025600
   2046   2044   2064     1   108.8800464 416.726400
   2047   2048   2049     1   109.8800469 414.216000
   2047   2048   2050     1   109.8800469 414.216000
   2047   2051   2052     1   109.8800469 414.216000
   2047   2051   2053     1   109.8800469 414.216000
   2048   2057   2058     1   109.8000471 387.438400
   2048   2057   2059     1   109.8000471 387.438400
   2049   2048   2057     1   109.5600471 388.275200
   2049   2048   2050     1   108.4600466 328.025600
   2050   2048   2057     1   109.5600471 388.275200
   2051   2054   2055     1   109.8000471 387.438400
   2051   2054   2056     1   109.8000471 387.438400
   2052   2051   2054     1   109.5600471 388.275200
   2052   2051   2053     1   108.4600466 328.025600
   2053   2051   2054     1   109.5600471 388.275200
   2055   2054   2060     1   108.7700466 392.459200
   2055   2054   2056     1   107.5800459 329.699200
   2056   2054   2060     1   108.7700466 392.459200
   2058   2057   2061     1   108.7700466 392.459200
   2058   2057   2059     1   107.5800459 329.699200
   2059   2057   2061     1   108.7700466 392.459200
   2060   6061   6062     1   117.5500507 404.174400
   2061   6134   6135     1   117.5500507 404.174400
   2066   2069   2070     1   109.5600471 388.275200
   2066   2069   2071     1   109.5600471 388.275200
   2067   2066   2069     1   109.5600471 388.275200
   2067   2066   2072     1   109.8800469 414.216000
   2067   2066   2068     1   108.4600466 328.025600
   2068   2066   2069     1   109.5600471 388.275200
   2068   2066   2072     1   109.8800469 414.216000
   2069   2089   2090     1   117.6800502 383.254400
   2070   2069   2089     1   108.8800464 416.726400
   2070   2069   2071     1   108.4600466 328.025600
   2071   2069   2089     1   108.8800464 416.726400
   2072   2073   2074     1   109.8800469 414.216000
   2072   2073   2075     1   109.8800469 414.216000
   2072   2076   2077     1   109.8800469 414.216000
   2072   2076   2078     1   109.8800469 414.216000
   2073   2082   2083     1   109.8000471 387.438400
   2073   2082   2084     1   109.8000471 387.438400
   2074   2073   2082     1   109.5600471 388.275200
   2074   2073   2075     1   108.4600466 328.025600
   2075   2073   2082     1   109.5600471 388.275200
   2076   2079   2080     1   109.8000471 387.438400
   2076   2079   2081     1   109.8000471 387.438400
   2077   2076   2079     1   109.5600471 388.275200
   2077   2076   2078     1   108.4600466 328.025600
   2078   2076   2079     1   109.5600471 388.275200
   2080   2079   2085     1   108.7700466 392.459200
   2080   2079   2081     1   107.5800459 329.699200
   2081   2079   2085     1   108.7700466 392.459200
   2083   2082   2086     1   108.7700466 392.459200
   2083   2082   2084     1   107.5800459 329.699200
   2084   2082   2086     1   108.7700466 392.459200
   2085   6207   6208     1   117.5500507 404.174400
   2086   6280   6281     1   117.5500507 404.174400
   2091   2094   2095     1   109.5600471 388.275200
   2091   2094   2096     1   109.5600471 388.275200
   2092   2091   2094     1   109.5600471 388.275200
   2092   2091   2097     1   109.8800469 414.216000
   2092   2091   2093     1   108.4600466 328.025600
   2093   2091   2094     1   109.5600471 388.275200
   2093   2091   2097     1   109.8800469 414.216000
   2094   2114   2115     1   117.6800502 383.254400
   2095   2094   2114     1   108.8800464 416.726400
   2095   2094   2096     1   108.4600466 328.025600
   2096   2094   2114     1   108.8800464 416.726400
   2097   2098   2099     1   109.8800469 414.216000
   2097   2098   2100     1   109.8800469 414.216000
   2097   2101   2102     1   109.8800469 414.216000
   2097   2101   2103     1   109.8800469 414.216000
   2098   2107   2108     1   109.8000471 387.438400
   2098   2107   2109     1   109.8000471 387.438400
   2099   2098   2107     1   109.5600471 388.275200
   2099   2098   2100     1   108.4600466 328.025600
   2100   2098   2107     1   109.5600471 388.275200
   2101   2104   2105     1   109.8000471 387.438400
   2101   2104   2106     1   109.8000471 387.438400
   2102   2101   2104     1   109.5600471 388.275200
   2102   2101   2103     1   108.4600466 328.025600
   2103   2101   2104     1   109.5600471 388.275200
   2105   2104   2110     1   108.7700466 392.459200
   2105   2104   2106     1   107.5800459 329.699200
   2106   2104   2110     1   108.7700466 392.459200
   2108   2107   2111     1   108.7700466 392.459200
   2108   2107   2109     1   107.5800459 329.699200
   2109   2107   2111     1   108.7700466 392.459200
   2110   6353   6354     1   117.5500507 404.174400
   2111   6426   6427     1   117.5500507 404.174400
   2116   2119   2120     1   109.5600471 388.275200
   2116   2119   2121     1   109.5600471 388.275200
   2117   2116   2119     1   109.5600471 388.275200
   2117   2116   2122     1   109.8800469 414.216000
   2117   2116   2118     1   108.4600466 328.025600
   2118   2116   2119     1   109.5600471 388.275200
   2118   2116   2122     1   109.8800469 414.216000
   2119   2139   2140     1   117.6800502 383.254400
   2120   2119   2139     1   108.8800464 416.726400
   2120   2119   2121     1   108.4600466 328.025600
   2121   2119   2139     1   108.8800464 416.726400
   2122   2123   2124     1   109.8800469 414.216000
   2122   2123   2125     1   109.8800469 414.216000
   2122   2126   2127     1   109.8800469 414.216000
   2122   2126   2128     1   109.8800469 414.216000
   2123   2132   2133     1   109.8000471 387.438400
   2123   2132   2134     1   109.8000471 387.438400
   2124   2123   2132     1   109.5600471 388.275200
   2124   2123   2125     1   108.4600466 328.025600
   2125   2123   2132     1   109.5600471 388.275200
   2126   2129   2130     1   109.8000471 387.438400
   2126   2129   2131     1   109.8000471 387.438400
   2127   2126   2129     1   109.5600471 388.275200
   2127   2126   2128     1   108.4600466 328.025600
   2128   2126   2129     1   109.5600471 388.275200
   2130   2129   2135     1   108.7700466 392.459200
   2130   2129   2131     1   107.5800459 329.699200
   2131   2129   2135     1   108.7700466 392.459200
   2133   2132   2136     1   108.7700466 392.459200
   2133   2132   2134     1   107.5800459 329.699200
   2134   2132   2136     1   108.7700466 392.459200
   2135   6499   6500     1   117.5500507 404.174400
   2136   6572   6573     1   117.5500507 404.174400
   2141   2144   2145     1   109.5600471 388.275200
   2141   2144   2146     1   109.5600471 388.275200
   2142   2141   2144     1   109.5600471 388.275200
   2142   2141   2147     1   109.8800469 414.216000
   2142   2141   2143     1   108.4600466 328.025600
   2143   2141   2144     1   109.5600471 388.275200
   2143   2141   2147     1   109.8800469 414.216000
   2144   2164   2165     1   117.6800502 383.254400
   2145   2144   2164     1   108.8800464 416.726400
   2145   2144   2146     1   108.4600466 328.025600
   2146   2144   2164     1   108.8800464 416.726400
   2147   2148   2149     1   109.8800469 414.216000
   2147   2148   2150     1   109.8800469 414.216000
   2147   2151   2152     1   109.8800469 414.216000
   2147   2151   2153     1   109.8800469 414.216000
   2148   2157   2158     1   109.8000471 387.438400
   2148   2157   2159     1   109.8000471 387.438400
   2149   2148   2157     1   109.5600471 388.275200
   2149   2148   2150     1   108.4600466 328.025600
   2150   2148   2157     1   109.5600471 388.275200
   2151   2154   2155     1   109.8000471 387.438400
   2151   2154   2156     1   109.8000471 387.438400
   2152   2151   2154     1   109.5600471 388.275200
   2152   2151   2153     1   108.4600466 328.025600
   2153   2151   2154     1   109.5600471 388.275200
   2155   2154   2160     1   108.7700466 392.459200
   2155   2154   2156     1   107.5800459 329.699200
   2156   2154   2160     1   108.7700466 392.459200
   2158   2157   2161     1   108.7700466 392.459200
   2158   2157   2159     1   107.5800459 329.699200
   2159   2157   2161     1   108.7700466 392.459200
   2160   6645   6646     1   117.5500507 404.174400
   2161   6718   6719     1   117.5500507 404.174400
   2166   2169   2170     1   109.5600471 388.275200
   2166   2169   2171     1   109.5600471 388.275200
   2167   2166   2169     1   109.5600471 388.275200
   2167   2166   2172     1   109.8800469 414.216000
   2167   2166   2168     1   108.4600466 328.025600
   2168   2166   2169     1   109.5600471 388.275200
   2168   2166   2172     1   109.8800469 414.216000
   2169   2189   2190     1   117.6800502 383.254400
   2170   2169   2189     1   108.8800464 416.726400
   2170   2169   2171     1   108.4600466 328.025600
   2171   2169   2189     1   108.8800464 416.726400
   2172   2173   2174     1   109.8800469 414.216000
   2172   2173   2175     1   109.8800469 414.216000
   2172   2176   2177     1   109.8800469 414.216000
   2172   2176   2178     1   109.8800469 414.216000
   2173   2182   2183     1   109.8000471 387.438400
   2173   2182   2184     1   109.8000471 387.438400
   2174   2173   2182     1   109.5600471 388.275200
   2174   2173   2175     1   108.4600466 328.025600
   2175   2173   2182     1   109.5600471 388.275200
   2176   2179   2180     1   109.8000471 387.438400
   2176   2179   2181     1   109.8000471 387.438400
   2177   2176   2179     1   109.5600471 388.275200
   2177   2176   2178     1   108.4600466 328.025600
   2178   2176   2179     1   109.5600471 388.275200
   2180   2179   2185     1   108.7700466 392.459200
   2180   2179   2181     1   107.5800459 329.699200
   2181   2179   2185     1   108.7700466 392.459200
   2183   2182   2186     1   108.7700466 392.459200
   2183   2182   2184     1   107.5800459 329.699200
   2184   2182   2186     1   108.7700466 392.459200
   2185   6791   6792     1   117.5500507 404.174400
   2186   6864   6865     1   117.5500507 404.174400
   2191   2194   2195     1   109.5600471 388.275200
   2191   2194   2196     1   109.5600471 388.275200
   2192   2191   2194     1   109.5600471 388.275200
   2192   2191   2197     1   109.8800469 414.216000
   2192   2191   2193     1   108.4600466 328.025600
   2193   2191   2194     1   109.5600471 388.275200
   2193   2191   2197     1   109.8800469 414.216000
   2194   2214   2215     1   117.6800502 383.254400
   2195   2194   2214     1   108.8800464 416.726400
   2195   2194   2196     1   108.4600466 328.025600
   2196   2194   2214     1   108.8800464 416.726400
   2197   2198   2199     1   109.8800469 414.216000
   2197   2198   2200     1   109.8800469 414.216000
   2197   2201   2202     1   109.8800469 414.216000
   2197   2201   2203     1   109.8800469 414.216000
   2198   2207   2208     1   109.8000471 387.438400
   2198   2207   2209     1   109.8000471 387.438400
   2199   2198   2207     1   109.5600471 388.275200
   2199   2198   2200     1   108.4600466 328.025600
   2200   2198   2207     1   109.5600471 388.275200
   2201   2204   2205     1   109.8000471 387.438400
   2201   2204   2206     1   109.8000471 387.438400
   2202   2201   2204     1   109.5600471 388.275200
   2202   2201   2203     1   108.4600466 328.025600
   2203   2201   2204     1   109.5600471 388.275200
   2205   2204   2210     1   108.7700466 392.459200
   2205   2204   2206     1   107.5800459 329.699200
   2206   2204   2210     1   108.7700466 392.459200
   2208   2207   2211     1   108.7700466 392.459200
   2208   2207   2209     1   107.5800459 329.699200
   2209   2207   2211     1   108.7700466 392.459200
   2210   6937   6938     1   117.5500507 404.174400
   2211   7010   7011     1   117.5500507 404.174400
   2216   2219   2220     1   109.5600471 388.275200
   2216   2219   2221     1   109.5600471 388.275200
   2217   2216   2219     1   109.5600471 388.275200
   2217   2216   2222     1   109.8800469 414.216000
   2217   2216   2218     1   108.4600466 328.025600
   2218   2216   2219     1   109.5600471 388.275200
   2218   2216   2222     1   109.8800469 414.216000
   2219   2239   2240     1   117.6800502 383.254400
   2220   2219   2239     1   108.8800464 416.726400
   2220   2219   2221     1   108.4600466 328.025600
   2221   2219   2239     1   108.8800464 416.726400
   2222   2223   2224     1   109.8800469 414.216000
   2222   2223   2225     1   109.8800469 414.216000
   2222   2226   2227     1   109.8800469 414.216000
   2222   2226   2228     1   109.8800469 414.216000
   2223   2232   2233     1   109.8000471 387.438400
   2223   2232   2234     1   109.8000471 387.438400
   2224   2223   2232     1   109.5600471 388.275200
   2224   2223   2225     1   108.4600466 328.025600
   2225   2223   2232     1   109.5600471 388.275200
   2226   2229   2230     1   109.8000471 387.438400
   2226   2229   2231     1   109.8000471 387.438400
   2227   2226   2229     1   109.5600471 388.275200
   2227   2226   2228     1   108.4600466 328.025600
   2228   2226   2229     1   109.5600471 388.275200
   2230   2229   2235     1   108.7700466 392.459200
   2230   2229   2231     1   107.5800459 329.699200
   2231   2229   2235     1   108.7700466 392.459200
   2233   2232   2236     1   108.7700466 392.459200
   2233   2232   2234     1   107.5800459 329.699200
   2234   2232   2236     1   108.7700466 392.459200
   2235   7083   7084     1   117.5500507 404.174400
   2236   7156   7157     1   117.5500507 404.174400
   2241   2244   2245     1   109.5600471 388.275200
   2241   2244   2246     1   109.5600471 388.275200
   2242   2241   2244     1   109.5600471 388.275200
   2242   2241   2247     1   109.8800469 414.216000
   2242   2241   2243     1   108.4600466 328.025600
   2243   2241   2244     1   109.5600471 388.275200
   2243   2241   2247     1   109.8800469 414.216000
   2244   2264   2265     1   117.6800502 383.254400
   2245   2244   2264     1   108.8800464 416.726400
   2245   2244   2246     1   108.4600466 328.025600
   2246   2244   2264     1   108.8800464 416.726400
   2247   2248   2249     1   109.8800469 414.216000
   2247   2248   2250     1   109.8800469 414.216000
   2247   2251   2252     1   109.8800469 414.216000
   2247   2251   2253     1   109.8800469 414.216000
   2248   2257   2258     1   109.8000471 387.438400
   2248   2257   2259     1   109.8000471 387.438400
   2249   2248   2257     1   109.5600471 388.275200
   2249   2248   2250     1   108.4600466 328.025600
   2250   2248   2257     1   109.5600471 388.275200
   2251   2254   2255     1   109.8000471 387.438400
   2251   2254   2256     1   109.8000471 387.438400
   2252   2251   2254     1   109.5600471 388.275200
   2252   2251   2253     1   108.4600466 328.025600
   2253   2251   2254     1   109.5600471 388.275200
   2255   2254   2260     1   108.7700466 392.459200
   2255   2254   2256     1   107.5800459 329.699200
   2256   2254   2260     1   108.7700466 392.459200
   2258   2257   2261     1   108.7700466 392.459200
   2258   2257   2259     1   107.5800459 329.699200
   2259   2257   2261     1   108.7700466 392.459200
   2260   7229   7230     1   117.5500507 404.174400
   2261   7302   7303     1   117.5500507 404.174400
   2266   2269   2270     1   109.5600471 388.275200
   2266   2269   2271     1   109.5600471 388.275200
   2267   2266   2269     1   109.5600471 388.275200
   2267   2266   2272     1   109.8800469 414.216000
   2267   2266   2268     1   108.4600466 328.025600
   2268   2266   2269     1   109.5600471 388.275200
   2268   2266   2272     1   109.8800469 414.216000
   2269   2289   2290     1   117.6800502 383.254400
   2270   2269   2289     1   108.8800464 416.726400
   2270   2269   2271     1   108.4600466 328.025600
   2271   2269   2289     1   108.8800464 416.726400
   2272   2273   2274     1   109.8800469 414.216000
   2272   2273   2275     1   109.8800469 414.216000
   2272   2276   2277     1   109.8800469 414.216000
   2272   2276   2278     1   109.8800469 414.216000
   2273   2282   2283     1   109.8000471 387.438400
   2273   2282   2284     1   109.8000471 387.438400
   2274   2273   2282     1   109.5600471 388.275200
   2274   2273   2275     1   108.4600466 328.025600
   2275   2273   2282     1   109.5600471 388.275200
   2276   2279   2280     1   109.8000471 387.438400
   2276   2279   2281     1   109.8000471 387.438400
   2277   2276   2279     1   109.5600471 388.275200
   2277   2276   2278     1   108.4600466 328.025600
   2278   2276   2279     1   109.5600471 388.275200
   2280   2279   2285     1   108.7700466 392.459200
   2280   2279   2281     1   107.5800459 329.699200
   2281   2279   2285     1   108.7700466 392.459200
   2283   2282   2286     1   108.7700466 392.459200
   2283   2282   2284     1   107.5800459 329.699200
   2284   2282   2286     1   108.7700466 392.459200
   2285   7375   7376     1   117.5500507 404.174400
   2286   7448   7449     1   117.5500507 404.174400
   2291   2294   2295     1   109.5600471 388.275200
   2291   2294   2296     1   109.5600471 388.275200
   2292   2291   2294     1   109.5600471 388.275200
   2292   2291   2297     1   109.8800469 414.216000
   2292   2291   2293     1   108.4600466 328.025600
   2293   2291   2294     1   109.5600471 388.275200
   2293   2291   2297     1   109.8800469 414.216000
   2294   2314   2315     1   117.6800502 383.254400
   2295   2294   2314     1   108.8800464 416.726400
   2295   2294   2296     1   108.4600466 328.025600
   2296   2294   2314     1   108.8800464 416.726400
   2297   2298   2299     1   109.8800469 414.216000
   2297   2298   2300     1   109.8800469 414.216000
   2297   2301   2302     1   109.8800469 414.216000
   2297   2301   2303     1   109.8800469 414.216000
   2298   2307   2308     1   109.8000471 387.438400
   2298   2307   2309     1   109.8000471 387.438400
   2299   2298   2307     1   109.5600471 388.275200
   2299   2298   2300     1   108.4600466 328.025600
   2300   2298   2307     1   109.5600471 388.275200
   2301   2304   2305     1   109.8000471 387.438400
   2301   2304   2306     1   109.8000471 387.438400
   2302   2301   2304     1   109.5600471 388.275200
   2302   2301   2303     1   108.4600466 328.025600
   2303   2301   2304     1   109.5600471 388.275200
   2305   2304   2310     1   108.7700466 392.459200
   2305   2304   2306     1   107.5800459 329.699200
   2306   2304   2310     1   108.7700466 392.459200
   2308   2307   2311     1   108.7700466 392.459200
   2308   2307   2309     1   107.5800459 329.699200
   2309   2307   2311     1   108.7700466 392.459200
   2310   7521   7522     1   117.5500507 404.174400
   2311   7594   7595     1   117.5500507 404.174400
   2316   2319   2320     1   109.5600471 388.275200
   2316   2319   2321     1   109.5600471 388.275200
   2317   2316   2319     1   109.5600471 388.275200
   2317   2316   2322     1   109.8800469 414.216000
   2317   2316   2318     1   108.4600466 328.025600
   2318   2316   2319     1   109.5600471 388.275200
   2318   2316   2322     1   109.8800469 414.216000
   2319   2339   2340     1   117.6800502 383.254400
   2320   2319   2339     1   108.8800464 416.726400
   2320   2319   2321     1   108.4600466 328.025600
   2321   2319   2339     1   108.8800464 416.726400
   2322   2323   2324     1   109.8800469 414.216000
   2322   2323   2325     1   109.8800469 414.216000
   2322   2326   2327     1   109.8800469 414.216000
   2322   2326   2328     1   109.8800469 414.216000
   2323   2332   2333     1   109.8000471 387.438400
   2323   2332   2334     1   109.8000471 387.438400
   2324   2323   2332     1   109.5600471 388.275200
   2324   2323   2325     1   108.4600466 328.025600
   2325   2323   2332     1   109.5600471 388.275200
   2326   2329   2330     1   109.8000471 387.438400
   2326   2329   2331     1   109.8000471 387.438400
   2327   2326   2329     1   109.5600471 388.275200
   2327   2326   2328     1   108.4600466 328.025600
   2328   2326   2329     1   109.5600471 388.275200
   2330   2329   2335     1   108.7700466 392.459200
   2330   2329   2331     1   107.5800459 329.699200
   2331   2329   2335     1   108.7700466 392.459200
   2333   2332   2336     1   108.7700466 392.459200
   2333   2332   2334     1   107.5800459 329.699200
   2334   2332   2336     1   108.7700466 392.459200
   2335   7667   7668     1   117.5500507 404.174400
   2336   7740   7741     1   117.5500507 404.174400
   2341   2344   2345     1   109.5600471 388.275200
   2341   2344   2346     1   109.5600471 388.275200
   2342   2341   2344     1   109.5600471 388.275200
   2342   2341   2347     1   109.8800469 414.216000
   2342   2341   2343     1   108.4600466 328.025600
   2343   2341   2344     1   109.5600471 388.275200
   2343   2341   2347     1   109.8800469 414.216000
   2344   2364   2365     1   117.6800502 383.254400
   2345   2344   2364     1   108.8800464 416.726400
   2345   2344   2346     1   108.4600466 328.025600
   2346   2344   2364     1   108.8800464 416.726400
   2347   2348   2349     1   109.8800469 414.216000
   2347   2348   2350     1   109.8800469 414.216000
   2347   2351   2352     1   109.8800469 414.216000
   2347   2351   2353     1   109.8800469 414.216000
   2348   2357   2358     1   109.8000471 387.438400
   2348   2357   2359     1   109.8000471 387.438400
   2349   2348   2357     1   109.5600471 388.275200
   2349   2348   2350     1   108.4600466 328.025600
   2350   2348   2357     1   109.5600471 388.275200
   2351   2354   2355     1   109.8000471 387.438400
   2351   2354   2356     1   109.8000471 387.438400
   2352   2351   2354     1   109.5600471 388.275200
   2352   2351   2353     1   108.4600466 328.025600
   2353   2351   2354     1   109.5600471 388.275200
   2355   2354   2360     1   108.7700466 392.459200
   2355   2354   2356     1   107.5800459 329.699200
   2356   2354   2360     1   108.7700466 392.459200
   2358   2357   2361     1   108.7700466 392.459200
   2358   2357   2359     1   107.5800459 329.699200
   2359   2357   2361     1   108.7700466 392.459200
   2360   7813   7814     1   117.5500507 404.174400
   2361   7886   7887     1   117.5500507 404.174400
   2366   2369   2370     1   109.5600471 388.275200
   2366   2369   2371     1   109.5600471 388.275200
   2367   2366   2369     1   109.5600471 388.275200
   2367   2366   2372     1   109.8800469 414.216000
   2367   2366   2368     1   108.4600466 328.025600
   2368   2366   2369     1   109.5600471 388.275200
   2368   2366   2372     1   109.8800469 414.216000
   2369   2389   2390     1   117.6800502 383.254400
   2370   2369   2389     1   108.8800464 416.726400
   2370   2369   2371     1   108.4600466 328.025600
   2371   2369   2389     1   108.8800464 416.726400
   2372   2373   2374     1   109.8800469 414.216000
   2372   2373   2375     1   109.8800469 414.216000
   2372   2376   2377     1   109.8800469 414.216000
   2372   2376   2378     1   109.8800469 414.216000
   2373   2382   2383     1   109.8000471 387.438400
   2373   2382   2384     1   109.8000471 387.438400
   2374   2373   2382     1   109.5600471 388.275200
   2374   2373   2375     1   108.4600466 328.025600
   2375   2373   2382     1   109.5600471 388.275200
   2376   2379   2380     1   109.8000471 387.438400
   2376   2379   2381     1   109.8000471 387.438400
   2377   2376   2379     1   109.5600471 388.275200
   2377   2376   2378     1   108.4600466 328.025600
   2378   2376   2379     1   109.5600471 388.275200
   2380   2379   2385     1   108.7700466 392.459200
   2380   2379   2381     1   107.5800459 329.699200
   2381   2379   2385     1   108.7700466 392.459200
   2383   2382   2386     1   108.7700466 392.459200
   2383   2382   2384     1   107.5800459 329.699200
   2384   2382   2386     1   108.7700466 392.459200
   2385   7959   7960     1   117.5500507 404.174400
   2386   8032   8033     1   117.5500507 404.174400
   2391   2394   2395     1   109.5600471 388.275200
   2391   2394   2396     1   109.5600471 388.275200
   2392   2391   2394     1   109.5600471 388.275200
   2392   2391   2397     1   109.8800469 414.216000
   2392   2391   2393     1   108.4600466 328.025600
   2393   2391   2394     1   109.5600471 388.275200
   2393   2391   2397     1   109.8800469 414.216000
   2394   2414   2415     1   117.6800502 383.254400
   2395   2394   2414     1   108.8800464 416.726400
   2395   2394   2396     1   108.4600466 328.025600
   2396   2394   2414     1   108.8800464 416.726400
   2397   2398   2399     1   109.8800469 414.216000
   2397   2398   2400     1   109.8800469 414.216000
   2397   2401   2402     1   109.8800469 414.216000
   2397   2401   2403     1   109.8800469 414.216000
   2398   2407   2408     1   109.8000471 387.438400
   2398   2407   2409     1   109.8000471 387.438400
   2399   2398   2407     1   109.5600471 388.275200
   2399   2398   2400     1   108.4600466 328.025600
   2400   2398   2407     1   109.5600471 388.275200
   2401   2404   2405     1   109.8000471 387.438400
   2401   2404   2406     1   109.8000471 387.438400
   2402   2401   2404     1   109.5600471 388.275200
   2402   2401   2403     1   108.4600466 328.025600
   2403   2401   2404     1   109.5600471 388.275200
   2405   2404   2410     1   108.7700466 392.459200
   2405   2404   2406     1   107.5800459 329.699200
   2406   2404   2410     1   108.7700466 392.459200
   2408   2407   2411     1   108.7700466 392.459200
   2408   2407   2409     1   107.5800459 329.699200
   2409   2407   2411     1   108.7700466 392.459200
   2410   8105   8106     1   117.5500507 404.174400
   2411   8178   8179     1   117.5500507 404.174400
   2416   2419   2420     1   109.5600471 388.275200
   2416   2419   2421     1   109.5600471 388.275200
   2417   2416   2419     1   109.5600471 388.275200
   2417   2416   2422     1   109.8800469 414.216000
   2417   2416   2418     1   108.4600466 328.025600
   2418   2416   2419     1   109.5600471 388.275200
   2418   2416   2422     1   109.8800469 414.216000
   2419   2439   2440     1   117.6800502 383.254400
   2420   2419   2439     1   108.8800464 416.726400
   2420   2419   2421     1   108.4600466 328.025600
   2421   2419   2439     1   108.8800464 416.726400
   2422   2423   2424     1   109.8800469 414.216000
   2422   2423   2425     1   109.8800469 414.216000
   2422   2426   2427     1   109.8800469 414.216000
   2422   2426   2428     1   109.8800469 414.216000
   2423   2432   2433     1   109.8000471 387.438400
   2423   2432   2434     1   109.8000471 387.438400
   2424   2423   2432     1   109.5600471 388.275200
   2424   2423   2425     1   108.4600466 328.025600
   2425   2423   2432     1   109.5600471 388.275200
   2426   2429   2430     1   109.8000471 387.438400
   2426   2429   2431     1   109.8000471 387.438400
   2427   2426   2429     1   109.5600471 388.275200
   2427   2426   2428     1   108.4600466 328.025600
   2428   2426   2429     1   109.5600471 388.275200
   2430   2429   2435     1   108.7700466 392.459200
   2430   2429   2431     1   107.5800459 329.699200
   2431   2429   2435     1   108.7700466 392.459200
   2433   2432   2436     1   108.7700466 392.459200
   2433   2432   2434     1   107.5800459 329.699200
   2434   2432   2436     1   108.7700466 392.459200
   2435   8251   8252     1   117.5500507 404.174400
   2436   8324   8325     1   117.5500507 404.174400
   2441   2444   2445     1   109.5600471 388.275200
   2441   2444   2446     1   109.5600471 388.275200
   2442   2441   2444     1   109.5600471 388.275200
   2442   2441   2447     1   109.8800469 414.216000
   2442   2441   2443     1   108.4600466 328.025600
   2443   2441   2444     1   109.5600471 388.275200
   2443   2441   2447     1   109.8800469 414.216000
   2444   2464   2465     1   117.6800502 383.254400
   2445   2444   2464     1   108.8800464 416.726400
   2445   2444   2446     1   108.4600466 328.025600
   2446   2444   2464     1   108.8800464 416.726400
   2447   2448   2449     1   109.8800469 414.216000
   2447   2448   2450     1   109.8800469 414.216000
   2447   2451   2452     1   109.8800469 414.216000
   2447   2451   2453     1   109.8800469 414.216000
   2448   2457   2458     1   109.8000471 387.438400
   2448   2457   2459     1   109.8000471 387.438400
   2449   2448   2457     1   109.5600471 388.275200
   2449   2448   2450     1   108.4600466 328.025600
   2450   2448   2457     1   109.5600471 388.275200
   2451   2454   2455     1   109.8000471 387.438400
   2451   2454   2456     1   109.8000471 387.438400
   2452   2451   2454     1   109.5600471 388.275200
   2452   2451   2453     1   108.4600466 328.025600
   2453   2451   2454     1   109.5600471 388.275200
   2455   2454   2460     1   108.7700466 392.459200
   2455   2454   2456     1   107.5800459 329.699200
   2456   2454   2460     1   108.7700466 392.459200
   2458   2457   2461     1   108.7700466 392.459200
   2458   2457   2459     1   107.5800459 329.699200
   2459   2457   2461     1   108.7700466 392.459200
   2460   8397   8398     1   117.5500507 404.174400
   2461   8470   8471     1   117.5500507 404.174400
   2466   2469   2470     1   109.5600471 388.275200
   2466   2469   2471     1   109.5600471 388.275200
   2467   2466   2469     1   109.5600471 388.275200
   2467   2466   2472     1   109.8800469 414.216000
   2467   2466   2468     1   108.4600466 328.025600
   2468   2466   2469     1   109.5600471 388.275200
   2468   2466   2472     1   109.8800469 414.216000
   2469   2489   2490     1   117.6800502 383.254400
   2470   2469   2489     1   108.8800464 416.726400
   2470   2469   2471     1   108.4600466 328.025600
   2471   2469   2489     1   108.8800464 416.726400
   2472   2473   2474     1   109.8800469 414.216000
   2472   2473   2475     1   109.8800469 414.216000
   2472   2476   2477     1   109.8800469 414.216000
   2472   2476   2478     1   109.8800469 414.216000
   2473   2482   2483     1   109.8000471 387.438400
   2473   2482   2484     1   109.8000471 387.438400
   2474   2473   2482     1   109.5600471 388.275200
   2474   2473   2475     1   108.4600466 328.025600
   2475   2473   2482     1   109.5600471 388.275200
   2476   2479   2480     1   109.8000471 387.438400
   2476   2479   2481     1   109.8000471 387.438400
   2477   2476   2479     1   109.5600471 388.275200
   2477   2476   2478     1   108.4600466 328.025600
   2478   2476   2479     1   109.5600471 388.275200
   2480   2479   2485     1   108.7700466 392.459200
   2480   2479   2481     1   107.5800459 329.699200
   2481   2479   2485     1   108.7700466 392.459200
   2483   2482   2486     1   108.7700466 392.459200
   2483   2482   2484     1   107.5800459 329.699200
   2484   2482   2486     1   108.7700466 392.459200
   2485   8543   8544     1   117.5500507 404.174400
   2486   8616   8617     1   117.5500507 404.174400
   2491   2494   2495     1   109.5600471 388.275200
   2491   2494   2496     1   109.5600471 388.275200
   2492   2491   2494     1   109.5600471 388.275200
   2492   2491   2497     1   109.8800469 414.216000
   2492   2491   2493     1   108.4600466 328.025600
   2493   2491   2494     1   109.5600471 388.275200
   2493   2491   2497     1   109.8800469 414.216000
   2494   2514   2515     1   117.6800502 383.254400
   2495   2494   2514     1   108.8800464 416.726400
   2495   2494   2496     1   108.4600466 328.025600
   2496   2494   2514     1   108.8800464 416.726400
   2497   2498   2499     1   109.8800469 414.216000
   2497   2498   2500     1   109.8800469 414.216000
   2497   2501   2502     1   109.8800469 414.216000
   2497   2501   2503     1   109.8800469 414.216000
   2498   2507   2508     1   109.8000471 387.438400
   2498   2507   2509     1   109.8000471 387.438400
   2499   2498   2507     1   109.5600471 388.275200
   2499   2498   2500     1   108.4600466 328.025600
   2500   2498   2507     1   109.5600471 388.275200
   2501   2504   2505     1   109.8000471 387.438400
   2501   2504   2506     1   109.8000471 387.438400
   2502   2501   2504     1   109.5600471 388.275200
   2502   2501   2503     1   108.4600466 328.025600
   2503   2501   2504     1   109.5600471 388.275200
   2505   2504   2510     1   108.7700466 392.459200
   2505   2504   2506     1   107.5800459 329.699200
   2506   2504   2510     1   108.7700466 392.459200
   2508   2507   2511     1   108.7700466 392.459200
   2508   2507   2509     1   107.5800459 329.699200
   2509   2507   2511     1   108.7700466 392.459200
   2510   8689   8690     1   117.5500507 404.174400
   2511   8762   8763     1   117.5500507 404.174400
   2516   2519   2520     1   109.5600471 388.275200
   2516   2519   2521     1   109.5600471 388.275200
   2517   2516   2519     1   109.5600471 388.275200
   2517   2516   2522     1   109.8800469 414.216000
   2517   2516   2518     1   108.4600466 328.025600
   2518   2516   2519     1   109.5600471 388.275200
   2518   2516   2522     1   109.8800469 414.216000
   2519   2539   2540     1   117.6800502 383.254400
   2520   2519   2539     1   108.8800464 416.726400
   2520   2519   2521     1   108.4600466 328.025600
   2521   2519   2539     1   108.8800464 416.726400
   2522   2523   2524     1   109.8800469 414.216000
   2522   2523   2525     1   109.8800469 414.216000
   2522   2526   2527     1   109.8800469 414.216000
   2522   2526   2528     1   109.8800469 414.216000
   2523   2532   2533     1   109.8000471 387.438400
   2523   2532   2534     1   109.8000471 387.438400
   2524   2523   2532     1   109.5600471 388.275200
   2524   2523   2525     1   108.4600466 328.025600
   2525   2523   2532     1   109.5600471 388.275200
   2526   2529   2530     1   109.8000471 387.438400
   2526   2529   2531     1   109.8000471 387.438400
   2527   2526   2529     1   109.5600471 388.275200
   2527   2526   2528     1   108.4600466 328.025600
   2528   2526   2529     1   109.5600471 388.275200
   2530   2529   2535     1   108.7700466 392.459200
   2530   2529   2531     1   107.5800459 329.699200
   2531   2529   2535     1   108.7700466 392.459200
   2533   2532   2536     1   108.7700466 392.459200
   2533   2532   2534     1   107.5800459 329.699200
   2534   2532   2536     1   108.7700466 392.459200
   2535   8835   8836     1   117.5500507 404.174400
   2536   8908   8909     1   117.5500507 404.174400
   2541   2544   2545     1   109.5600471 388.275200
   2541   2544   2546     1   109.5600471 388.275200
   2542   2541   2544     1   109.5600471 388.275200
   2542   2541   2547     1   109.8800469 414.216000
   2542   2541   2543     1   108.4600466 328.025600
   2543   2541   2544     1   109.5600471 388.275200
   2543   2541   2547     1   109.8800469 414.216000
   2544   2564   2565     1   117.6800502 383.254400
   2545   2544   2564     1   108.8800464 416.726400
   2545   2544   2546     1   108.4600466 328.025600
   2546   2544   2564     1   108.8800464 416.726400
   2547   2548   2549     1   109.8800469 414.216000
   2547   2548   2550     1   109.8800469 414.216000
   2547   2551   2552     1   109.8800469 414.216000
   2547   2551   2553     1   109.8800469 414.216000
   2548   2557   2558     1   109.8000471 387.438400
   2548   2557   2559     1   109.8000471 387.438400
   2549   2548   2557     1   109.5600471 388.275200
   2549   2548   2550     1   108.4600466 328.025600
   2550   2548   2557     1   109.5600471 388.275200
   2551   2554   2555     1   109.8000471 387.438400
   2551   2554   2556     1   109.8000471 387.438400
   2552   2551   2554     1   109.5600471 388.275200
   2552   2551   2553     1   108.4600466 328.025600
   2553   2551   2554     1   109.5600471 388.275200
   2555   2554   2560     1   108.7700466 392.459200
   2555   2554   2556     1   107.5800459 329.699200
   2556   2554   2560     1   108.7700466 392.459200
   2558   2557   2561     1   108.7700466 392.459200
   2558   2557   2559     1   107.5800459 329.699200
   2559   2557   2561     1   108.7700466 392.459200
   2560   8981   8982     1   117.5500507 404.174400
   2561   9054   9055     1   117.5500507 404.174400
   2566   2569   2570     1   109.5600471 388.275200
   2566   2569   2571     1   109.5600471 388.275200
   2567   2566   2569     1   109.5600471 388.275200
   2567   2566   2572     1   109.8800469 414.216000
   2567   2566   2568     1   108.4600466 328.025600
   2568   2566   2569     1   109.5600471 388.275200
   2568   2566   2572     1   109.8800469 414.216000
   2569   2589   2590     1   117.6800502 383.254400
   2570   2569   2589     1   108.8800464 416.726400
   2570   2569   2571     1   108.4600466 328.025600
   2571   2569   2589     1   108.8800464 416.726400
   2572   2573   2574     1   109.8800469 414.216000
   2572   2573   2575     1   109.8800469 414.216000
   2572   2576   2577     1   109.8800469 414.216000
   2572   2576   2578     1   109.8800469 414.216000
   2573   2582   2583     1   109.8000471 387.438400
   2573   2582   2584     1   109.8000471 387.438400
   2574   2573   2582     1   109.5600471 388.275200
   2574   2573   2575     1   108.4600466 328.025600
   2575   2573   2582     1   109.5600471 388.275200
   2576   2579   2580     1   109.8000471 387.438400
   2576   2579   2581     1   109.8000471 387.438400
   2577   2576   2579     1   109.5600471 388.275200
   2577   2576   2578     1   108.4600466 328.025600
   2578   2576   2579     1   109.5600471 388.275200
   2580   2579   2585     1   108.7700466 392.459200
   2580   2579   2581     1   107.5800459 329.699200
   2581   2579   2585     1   108.7700466 392.459200
   2583   2582   2586     1   108.7700466 392.459200
   2583   2582   2584     1   107.5800459 329.699200
   2584   2582   2586     1   108.7700466 392.459200
   2585   9127   9128     1   117.5500507 404.174400
   2586   9200   9201     1   117.5500507 404.174400
   2591   2594   2595     1   109.5600471 388.275200
   2591   2594   2596     1   109.5600471 388.275200
   2592   2591   2594     1   109.5600471 388.275200
   2592   2591   2597     1   109.8800469 414.216000
   2592   2591   2593     1   108.4600466 328.025600
   2593   2591   2594     1   109.5600471 388.275200
   2593   2591   2597     1   109.8800469 414.216000
   2594   2614   2615     1   117.6800502 383.254400
   2595   2594   2614     1   108.8800464 416.726400
   2595   2594   2596     1   108.4600466 328.025600
   2596   2594   2614     1   108.8800464 416.726400
   2597   2598   2599     1   109.8800469 414.216000
   2597   2598   2600     1   109.8800469 414.216000
   2597   2601   2602     1   109.8800469 414.216000
   2597   2601   2603     1   109.8800469 414.216000
   2598   2607   2608     1   109.8000471 387.438400
   2598   2607   2609     1   109.8000471 387.438400
   2599   2598   2607     1   109.5600471 388.275200
   2599   2598   2600     1   108.4600466 328.025600
   2600   2598   2607     1   109.5600471 388.275200
   2601   2604   2605     1   109.8000471 387.438400
   2601   2604   2606     1   109.8000471 387.438400
   2602   2601   2604     1   109.5600471 388.275200
   2602   2601   2603     1   108.4600466 328.025600
   2603   2601   2604     1   109.5600471 388.275200
   2605   2604   2610     1   108.7700466 392.459200
   2605   2604   2606     1   107.5800459 329.699200
   2606   2604   2610     1   108.7700466 392.459200
   2608   2607   2611     1   108.7700466 392.459200
   2608   2607   2609     1   107.5800459 329.699200
   2609   2607   2611     1   108.7700466 392.459200
   2610   9273   9274     1   117.5500507 404.174400
   2611   9346   9347     1   117.5500507 404.174400
   2616   2619   2620     1   109.5600471 388.275200
   2616   2619   2621     1   109.5600471 388.275200
   2617   2616   2619     1   109.5600471 388.275200
   2617   2616   2622     1   109.8800469 414.216000
   2617   2616   2618     1   108.4600466 328.025600
   2618   2616   2619     1   109.5600471 388.275200
   2618   2616   2622     1   109.8800469 414.216000
   2619   2639   2640     1   117.6800502 383.254400
   2620   2619   2639     1   108.8800464 416.726400
   2620   2619   2621     1   108.4600466 328.025600
   2621   2619   2639     1   108.8800464 416.726400
   2622   2623   2624     1   109.8800469 414.216000
   2622   2623   2625     1   109.8800469 414.216000
   2622   2626   2627     1   109.8800469 414.216000
   2622   2626   2628     1   109.8800469 414.216000
   2623   2632   2633     1   109.8000471 387.438400
   2623   2632   2634     1   109.8000471 387.438400
   2624   2623   2632     1   109.5600471 388.275200
   2624   2623   2625     1   108.4600466 328.025600
   2625   2623   2632     1   109.5600471 388.275200
   2626   2629   2630     1   109.8000471 387.438400
   2626   2629   2631     1   109.8000471 387.438400
   2627   2626   2629     1   109.5600471 388.275200
   2627   2626   2628     1   108.4600466 328.025600
   2628   2626   2629     1   109.5600471 388.275200
   2630   2629   2635     1   108.7700466 392.459200
   2630   2629   2631     1   107.5800459 329.699200
   2631   2629   2635     1   108.7700466 392.459200
   2633   2632   2636     1   108.7700466 392.459200
   2633   2632   2634     1   107.5800459 329.699200
   2634   2632   2636     1   108.7700466 392.459200
   2635   9419   9420     1   117.5500507 404.174400
   2636   9492   9493     1   117.5500507 404.174400
   2641   2644   2645     1   109.5600471 388.275200
   2641   2644   2646     1   109.5600471 388.275200
   2642   2641   2644     1   109.5600471 388.275200
   2642   2641   2647     1   109.8800469 414.216000
   2642   2641   2643     1   108.4600466 328.025600
   2643   2641   2644     1   109.5600471 388.275200
   2643   2641   2647     1   109.8800469 414.216000
   2644   2664   2665     1   117.6800502 383.254400
   2645   2644   2664     1   108.8800464 416.726400
   2645   2644   2646     1   108.4600466 328.025600
   2646   2644   2664     1   108.8800464 416.726400
   2647   2648   2649     1   109.8800469 414.216000
   2647   2648   2650     1   109.8800469 414.216000
   2647   2651   2652     1   109.8800469 414.216000
   2647   2651   2653     1   109.8800469 414.216000
   2648   2657   2658     1   109.8000471 387.438400
   2648   2657   2659     1   109.8000471 387.438400
   2649   2648   2657     1   109.5600471 388.275200
   2649   2648   2650     1   108.4600466 328.025600
   2650   2648   2657     1   109.5600471 388.275200
   2651   2654   2655     1   109.8000471 387.438400
   2651   2654   2656     1   109.8000471 387.438400
   2652   2651   2654     1   109.5600471 388.275200
   2652   2651   2653     1   108.4600466 328.025600
   2653   2651   2654     1   109.5600471 388.275200
   2655   2654   2660     1   108.7700466 392.459200
   2655   2654   2656     1   107.5800459 329.699200
   2656   2654   2660     1   108.7700466 392.459200
   2658   2657   2661     1   108.7700466 392.459200
   2658   2657   2659     1   107.5800459 329.699200
   2659   2657   2661     1   108.7700466 392.459200
   2660   9565   9566     1   117.5500507 404.174400
   2661   9638   9639     1   117.5500507 404.174400
   2666   2669   2670     1   109.5600471 388.275200
   2666   2669   2671     1   109.5600471 388.275200
   2667   2666   2669     1   109.5600471 388.275200
   2667   2666   2672     1   109.8800469 414.216000
   2667   2666   2668     1   108.4600466 328.025600
   2668   2666   2669     1   109.5600471 388.275200
   2668   2666   2672     1   109.8800469 414.216000
   2669   2689   2690     1   117.6800502 383.254400
   2670   2669   2689     1   108.8800464 416.726400
   2670   2669   2671     1   108.4600466 328.025600
   2671   2669   2689     1   108.8800464 416.726400
   2672   2673   2674     1   109.8800469 414.216000
   2672   2673   2675     1   109.8800469 414.216000
   2672   2676   2677     1   109.8800469 414.216000
   2672   2676   2678     1   109.8800469 414.216000
   2673   2682   2683     1   109.8000471 387.438400
   2673   2682   2684     1   109.8000471 387.438400
   2674   2673   2682     1   109.5600471 388.275200
   2674   2673   2675     1   108.4600466 328.025600
   2675   2673   2682     1   109.5600471 388.275200
   2676   2679   2680     1   109.8000471 387.438400
   2676   2679   2681     1   109.8000471 387.438400
   2677   2676   2679     1   109.5600471 388.275200
   2677   2676   2678     1   108.4600466 328.025600
   2678   2676   2679     1   109.5600471 388.275200
   2680   2679   2685     1   108.7700466 392.459200
   2680   2679   2681     1   107.5800459 329.699200
   2681   2679   2685     1   108.7700466 392.459200
   2683   2682   2686     1   108.7700466 392.459200
   2683   2682   2684     1   107.5800459 329.699200
   2684   2682   2686     1   108.7700466 392.459200
   2685   9711   9712     1   117.5500507 404.174400
   2686   9784   9785     1   117.5500507 404.174400
   2691   2694   2695     1   109.5600471 388.275200
   2691   2694   2696     1   109.5600471 388.275200
   2692   2691   2694     1   109.5600471 388.275200
   2692   2691   2697     1   109.8800469 414.216000
   2692   2691   2693     1   108.4600466 328.025600
   2693   2691   2694     1   109.5600471 388.275200
   2693   2691   2697     1   109.8800469 414.216000
   2694   2714   2715     1   117.6800502 383.254400
   2695   2694   2714     1   108.8800464 416.726400
   2695   2694   2696     1   108.4600466 328.025600
   2696   2694   2714     1   108.8800464 416.726400
   2697   2698   2699     1   109.8800469 414.216000
   2697   2698   2700     1   109.8800469 414.216000
   2697   2701   2702     1   109.8800469 414.216000
   2697   2701   2703     1   109.8800469 414.216000
   2698   2707   2708     1   109.8000471 387.438400
   2698   2707   2709     1   109.8000471 387.438400
   2699   2698   2707     1   109.5600471 388.275200
   2699   2698   2700     1   108.4600466 328.025600
   2700   2698   2707     1   109.5600471 388.275200
   2701   2704   2705     1   109.8000471 387.438400
   2701   2704   2706     1   109.8000471 387.438400
   2702   2701   2704     1   109.5600471 388.275200
   2702   2701   2703     1   108.4600466 328.025600
   2703   2701   2704     1   109.5600471 388.275200
   2705   2704   2710     1   108.7700466 392.459200
   2705   2704   2706     1   107.5800459 329.699200
   2706   2704   2710     1   108.7700466 392.459200
   2708   2707   2711     1   108.7700466 392.459200
   2708   2707   2709     1   107.5800459 329.699200
   2709   2707   2711     1   108.7700466 392.459200
   2710   9857   9858     1   117.5500507 404.174400
   2711   9930   9931     1   117.5500507 404.174400
   2716   2719   2720     1   109.5600471 388.275200
   2716   2719   2721     1   109.5600471 388.275200
   2717   2716   2719     1   109.5600471 388.275200
   2717   2716   2722     1   109.8800469 414.216000
   2717   2716   2718     1   108.4600466 328.025600
   2718   2716   2719     1   109.5600471 388.275200
   2718   2716   2722     1   109.8800469 414.216000
   2719   2739   2740     1   117.6800502 383.254400
   2720   2719   2739     1   108.8800464 416.726400
   2720   2719   2721     1   108.4600466 328.025600
   2721   2719   2739     1   108.8800464 416.726400
   2722   2723   2724     1   109.8800469 414.216000
   2722   2723   2725     1   109.8800469 414.216000
   2722   2726   2727     1   109.8800469 414.216000
   2722   2726   2728     1   109.8800469 414.216000
   2723   2732   2733     1   109.8000471 387.438400
   2723   2732   2734     1   109.8000471 387.438400
   2724   2723   2732     1   109.5600471 388.275200
   2724   2723   2725     1   108.4600466 328.025600
   2725   2723   2732     1   109.5600471 388.275200
   2726   2729   2730     1   109.8000471 387.438400
   2726   2729   2731     1   109.8000471 387.438400
   2727   2726   2729     1   109.5600471 388.275200
   2727   2726   2728     1   108.4600466 328.025600
   2728   2726   2729     1   109.5600471 388.275200
   2730   2729   2735     1   108.7700466 392.459200
   2730   2729   2731     1   107.5800459 329.699200
   2731   2729   2735     1   108.7700466 392.459200
   2733   2732   2736     1   108.7700466 392.459200
   2733   2732   2734     1   107.5800459 329.699200
   2734   2732   2736     1   108.7700466 392.459200
   2735  10003  10004     1   117.5500507 404.174400
   2736  10076  10077     1   117.5500507 404.174400
   2741   2744   2745     1   109.5600471 388.275200
   2741   2744   2746     1   109.5600471 388.275200
   2742   2741   2744     1   109.5600471 388.275200
   2742   2741   2747     1   109.8800469 414.216000
   2742   2741   2743     1   108.4600466 328.025600
   2743   2741   2744     1   109.5600471 388.275200
   2743   2741   2747     1   109.8800469 414.216000
   2744   2764   2765     1   117.6800502 383.254400
   2745   2744   2764     1   108.8800464 416.726400
   2745   2744   2746     1   108.4600466 328.025600
   2746   2744   2764     1   108.8800464 416.726400
   2747   2748   2749     1   109.8800469 414.216000
   2747   2748   2750     1   109.8800469 414.216000
   2747   2751   2752     1   109.8800469 414.216000
   2747   2751   2753     1   109.8800469 414.216000
   2748   2757   2758     1   109.8000471 387.438400
   2748   2757   2759     1   109.8000471 387.438400
   2749   2748   2757     1   109.5600471 388.275200
   2749   2748   2750     1   108.4600466 328.025600
   2750   2748   2757     1   109.5600471 388.275200
   2751   2754   2755     1   109.8000471 387.438400
   2751   2754   2756     1   109.8000471 387.438400
   2752   2751   2754     1   109.5600471 388.275200
   2752   2751   2753     1   108.4600466 328.025600
   2753   2751   2754     1   109.5600471 388.275200
   2755   2754   2760     1   108.7700466 392.459200
   2755   2754   2756     1   107.5800459 329.699200
   2756   2754   2760     1   108.7700466 392.459200
   2758   2757   2761     1   108.7700466 392.459200
   2758   2757   2759     1   107.5800459 329.699200
   2759   2757   2761     1   108.7700466 392.459200
   2760  10149  10150     1   117.5500507 404.174400
   2761  10222  10223     1   117.5500507 404.174400
   2766   2769   2770     1   109.5600471 388.275200
   2766   2769   2771     1   109.5600471 388.275200
   2767   2766   2769     1   109.5600471 388.275200
   2767   2766   2772     1   109.8800469 414.216000
   2767   2766   2768     1   108.4600466 328.025600
   2768   2766   2769     1   109.5600471 388.275200
   2768   2766   2772     1   109.8800469 414.216000
   2769   2789   2790     1   117.6800502 383.254400
   2770   2769   2789     1   108.8800464 416.726400
   2770   2769   2771     1   108.4600466 328.025600
   2771   2769   2789     1   108.8800464 416.726400
   2772   2773   2774     1   109.8800469 414.216000
   2772   2773   2775     1   109.8800469 414.216000
   2772   2776   2777     1   109.8800469 414.216000
   2772   2776   2778     1   109.8800469 414.216000
   2773   2782   2783     1   109.8000471 387.438400
   2773   2782   2784     1   109.8000471 387.438400
   2774   2773   2782     1   109.5600471 388.275200
   2774   2773   2775     1   108.4600466 328.025600
   2775   2773   2782     1   109.5600471 388.275200
   2776   2779   2780     1   109.8000471 387.438400
   2776   2779   2781     1   109.8000471 387.438400
   2777   2776   2779     1   109.5600471 388.275200
   2777   2776   2778     1   108.4600466 328.025600
   2778   2776   2779     1   109.5600471 388.275200
   2780   2779   2785     1   108.7700466 392.459200
   2780   2779   2781     1   107.5800459 329.699200
   2781   2779   2785     1   108.7700466 392.459200
   2783   2782   2786     1   108.7700466 392.459200
   2783   2782   2784     1   107.5800459 329.699200
   2784   2782   2786     1   108.7700466 392.459200
   2785  10295  10296     1   117.5500507 404.174400
   2786  10368  10369     1   117.5500507 404.174400
   2791   2794   2795     1   109.5600471 388.275200
   2791   2794   2796     1   109.5600471 388.275200
   2792   2791   2794     1   109.5600471 388.275200
   2792   2791   2797     1   109.8800469 414.216000
   2792   2791   2793     1   108.4600466 328.025600
   2793   2791   2794     1   109.5600471 388.275200
   2793   2791   2797     1   109.8800469 414.216000
   2794   2814   2815     1   117.6800502 383.254400
   2795   2794   2814     1   108.8800464 416.726400
   2795   2794   2796     1   108.4600466 328.025600
   2796   2794   2814     1   108.8800464 416.726400
   2797   2798   2799     1   109.8800469 414.216000
   2797   2798   2800     1   109.8800469 414.216000
   2797   2801   2802     1   109.8800469 414.216000
   2797   2801   2803     1   109.8800469 414.216000
   2798   2807   2808     1   109.8000471 387.438400
   2798   2807   2809     1   109.8000471 387.438400
   2799   2798   2807     1   109.5600471 388.275200
   2799   2798   2800     1   108.4600466 328.025600
   2800   2798   2807     1   109.5600471 388.275200
   2801   2804   2805     1   109.8000471 387.438400
   2801   2804   2806     1   109.8000471 387.438400
   2802   2801   2804     1   109.5600471 388.275200
   2802   2801   2803     1   108.4600466 328.025600
   2803   2801   2804     1   109.5600471 388.275200
   2805   2804   2810     1   108.7700466 392.459200
   2805   2804   2806     1   107.5800459 329.699200
   2806   2804   2810     1   108.7700466 392.459200
   2808   2807   2811     1   108.7700466 392.459200
   2808   2807   2809     1   107.5800459 329.699200
   2809   2807   2811     1   108.7700466 392.459200
   2810  10441  10442     1   117.5500507 404.174400
   2811  10514  10515     1   117.5500507 404.174400
   2816   2819   2820     1   109.5600471 388.275200
   2816   2819   2821     1   109.5600471 388.275200
   2817   2816   2819     1   109.5600471 388.275200
   2817   2816   2822     1   109.8800469 414.216000
   2817   2816   2818     1   108.4600466 328.025600
   2818   2816   2819     1   109.5600471 388.275200
   2818   2816   2822     1   109.8800469 414.216000
   2819   2839   2840     1   117.6800502 383.254400
   2820   2819   2839     1   108.8800464 416.726400
   2820   2819   2821     1   108.4600466 328.025600
   2821   2819   2839     1   108.8800464 416.726400
   2822   2823   2824     1   109.8800469 414.216000
   2822   2823   2825     1   109.8800469 414.216000
   2822   2826   2827     1   109.8800469 414.216000
   2822   2826   2828     1   109.8800469 414.216000
   2823   2832   2833     1   109.8000471 387.438400
   2823   2832   2834     1   109.8000471 387.438400
   2824   2823   2832     1   109.5600471 388.275200
   2824   2823   2825     1   108.4600466 328.025600
   2825   2823   2832     1   109.5600471 388.275200
   2826   2829   2830     1   109.8000471 387.438400
   2826   2829   2831     1   109.8000471 387.438400
   2827   2826   2829     1   109.5600471 388.275200
   2827   2826   2828     1   108.4600466 328.025600
   2828   2826   2829     1   109.5600471 388.275200
   2830   2829   2835     1   108.7700466 392.459200
   2830   2829   2831     1   107.5800459 329.699200
   2831   2829   2835     1   108.7700466 392.459200
   2833   2832   2836     1   108.7700466 392.459200
   2833   2832   2834     1   107.5800459 329.699200
   2834   2832   2836     1   108.7700466 392.459200
   2835  10587  10588     1   117.5500507 404.174400
   2836  10660  10661     1   117.5500507 404.174400
   2841   2844   2845     1   109.5600471 388.275200
   2841   2844   2846     1   109.5600471 388.275200
   2842   2841   2844     1   109.5600471 388.275200
   2842   2841   2847     1   109.8800469 414.216000
   2842   2841   2843     1   108.4600466 328.025600
   2843   2841   2844     1   109.5600471 388.275200
   2843   2841   2847     1   109.8800469 414.216000
   2844   2864   2865     1   117.6800502 383.254400
   2845   2844   2864     1   108.8800464 416.726400
   2845   2844   2846     1   108.4600466 328.025600
   2846   2844   2864     1   108.8800464 416.726400
   2847   2848   2849     1   109.8800469 414.216000
   2847   2848   2850     1   109.8800469 414.216000
   2847   2851   2852     1   109.8800469 414.216000
   2847   2851   2853     1   109.8800469 414.216000
   2848   2857   2858     1   109.8000471 387.438400
   2848   2857   2859     1   109.8000471 387.438400
   2849   2848   2857     1   109.5600471 388.275200
   2849   2848   2850     1   108.4600466 328.025600
   2850   2848   2857     1   109.5600471 388.275200
   2851   2854   2855     1   109.8000471 387.438400
   2851   2854   2856     1   109.8000471 387.438400
   2852   2851   2854     1   109.5600471 388.275200
   2852   2851   2853     1   108.4600466 328.025600
   2853   2851   2854     1   109.5600471 388.275200
   2855   2854   2860     1   108.7700466 392.459200
   2855   2854   2856     1   107.5800459 329.699200
   2856   2854   2860     1   108.7700466 392.459200
   2858   2857   2861     1   108.7700466 392.459200
   2858   2857   2859     1   107.5800459 329.699200
   2859   2857   2861     1   108.7700466 392.459200
   2860  10733  10734     1   117.5500507 404.174400
   2861  10806  10807     1   117.5500507 404.174400
   2866   2869   2870     1   109.5600471 388.275200
   2866   2869   2871     1   109.5600471 388.275200
   2867   2866   2869     1   109.5600471 388.275200
   2867   2866   2872     1   109.8800469 414.216000
   2867   2866   2868     1   108.4600466 328.025600
   2868   2866   2869     1   109.5600471 388.275200
   2868   2866   2872     1   109.8800469 414.216000
   2869   2889   2890     1   117.6800502 383.254400
   2870   2869   2889     1   108.8800464 416.726400
   2870   2869   2871     1   108.4600466 328.025600
   2871   2869   2889     1   108.8800464 416.726400
   2872   2873   2874     1   109.8800469 414.216000
   2872   2873   2875     1   109.8800469 414.216000
   2872   2876   2877     1   109.8800469 414.216000
   2872   2876   2878     1   109.8800469 414.216000
   2873   2882   2883     1   109.8000471 387.438400
   2873   2882   2884     1   109.8000471 387.438400
   2874   2873   2882     1   109.5600471 388.275200
   2874   2873   2875     1   108.4600466 328.025600
   2875   2873   2882     1   109.5600471 388.275200
   2876   2879   2880     1   109.8000471 387.438400
   2876   2879   2881     1   109.8000471 387.438400
   2877   2876   2879     1   109.5600471 388.275200
   2877   2876   2878     1   108.4600466 328.025600
   2878   2876   2879     1   109.5600471 388.275200
   2880   2879   2885     1   108.7700466 392.459200
   2880   2879   2881     1   107.5800459 329.699200
   2881   2879   2885     1   108.7700466 392.459200
   2883   2882   2886     1   108.7700466 392.459200
   2883   2882   2884     1   107.5800459 329.699200
   2884   2882   2886     1   108.7700466 392.459200
   2885  10879  10880     1   117.5500507 404.174400
   2886  10952  10953     1   117.5500507 404.174400
   2891   2894   2895     1   109.5600471 388.275200
   2891   2894   2896     1   109.5600471 388.275200
   2892   2891   2894     1   109.5600471 388.275200
   2892   2891   2897     1   109.8800469 414.216000
   2892   2891   2893     1   108.4600466 328.025600
   2893   2891   2894     1   109.5600471 388.275200
   2893   2891   2897     1   109.8800469 414.216000
   2894   2914   2915     1   117.6800502 383.254400
   2895   2894   2914     1   108.8800464 416.726400
   2895   2894   2896     1   108.4600466 328.025600
   2896   2894   2914     1   108.8800464 416.726400
   2897   2898   2899     1   109.8800469 414.216000
   2897   2898   2900     1   109.8800469 414.216000
   2897   2901   2902     1   109.8800469 414.216000
   2897   2901   2903     1   109.8800469 414.216000
   2898   2907   2908     1   109.8000471 387.438400
   2898   2907   2909     1   109.8000471 387.438400
   2899   2898   2907     1   109.5600471 388.275200
   2899   2898   2900     1   108.4600466 328.025600
   2900   2898   2907     1   109.5600471 388.275200
   2901   2904   2905     1   109.8000471 387.438400
   2901   2904   2906     1   109.8000471 387.438400
   2902   2901   2904     1   109.5600471 388.275200
   2902   2901   2903     1   108.4600466 328.025600
   2903   2901   2904     1   109.5600471 388.275200
   2905   2904   2910     1   108.7700466 392.459200
   2905   2904   2906     1   107.5800459 329.699200
   2906   2904   2910     1   108.7700466 392.459200
   2908   2907   2911     1   108.7700466 392.459200
   2908   2907   2909     1   107.5800459 329.699200
   2909   2907   2911     1   108.7700466 392.459200
   2910  11025  11026     1   117.5500507 404.174400
   2911  11098  11099     1   117.5500507 404.174400
   2916   2919   2920     1   109.5600471 388.275200
   2916   2919   2921     1   109.5600471 388.275200
   2917   2916   2919     1   109.5600471 388.275200
   2917   2916   2922     1   109.8800469 414.216000
   2917   2916   2918     1   108.4600466 328.025600
   2918   2916   2919     1   109.5600471 388.275200
   2918   2916   2922     1   109.8800469 414.216000
   2919   2939   2940     1   117.6800502 383.254400
   2920   2919   2939     1   108.8800464 416.726400
   2920   2919   2921     1   108.4600466 328.025600
   2921   2919   2939     1   108.8800464 416.726400
   2922   2923   2924     1   109.8800469 414.216000
   2922   2923   2925     1   109.8800469 414.216000
   2922   2926   2927     1   109.8800469 414.216000
   2922   2926   2928     1   109.8800469 414.216000
   2923   2932   2933     1   109.8000471 387.438400
   2923   2932   2934     1   109.8000471 387.438400
   2924   2923   2932     1   109.5600471 388.275200
   2924   2923   2925     1   108.4600466 328.025600
   2925   2923   2932     1   109.5600471 388.275200
   2926   2929   2930     1   109.8000471 387.438400
   2926   2929   2931     1   109.8000471 387.438400
   2927   2926   2929     1   109.5600471 388.275200
   2927   2926   2928     1   108.4600466 328.025600
   2928   2926   2929     1   109.5600471 388.275200
   2930   2929   2935     1   108.7700466 392.459200
   2930   2929   2931     1   107.5800459 329.699200
   2931   2929   2935     1   108.7700466 392.459200
   2933   2932   2936     1   108.7700466 392.459200
   2933   2932   2934     1   107.5800459 329.699200
   2934   2932   2936     1   108.7700466 392.459200
   2935  11171  11172     1   117.5500507 404.174400
   2936  11244  11245     1   117.5500507 404.174400
   2941   2944   2945     1   109.5600471 388.275200
   2941   2944   2946     1   109.5600471 388.275200
   2942   2941   2944     1   109.5600471 388.275200
   2942   2941   2947     1   109.8800469 414.216000
   2942   2941   2943     1   108.4600466 328.025600
   2943   2941   2944     1   109.5600471 388.275200
   2943   2941   2947     1   109.8800469 414.216000
   2944   2964   2965     1   117.6800502 383.254400
   2945   2944   2964     1   108.8800464 416.726400
   2945   2944   2946     1   108.4600466 328.025600
   2946   2944   2964     1   108.8800464 416.726400
   2947   2948   2949     1   109.8800469 414.216000
   2947   2948   2950     1   109.8800469 414.216000
   2947   2951   2952     1   109.8800469 414.216000
   2947   2951   2953     1   109.8800469 414.216000
   2948   2957   2958     1   109.8000471 387.438400
   2948   2957   2959     1   109.8000471 387.438400
   2949   2948   2957     1   109.5600471 388.275200
   2949   2948   2950     1   108.4600466 328.025600
   2950   2948   2957     1   109.5600471 388.275200
   2951   2954   2955     1   109.8000471 387.438400
   2951   2954   2956     1   109.8000471 387.438400
   2952   2951   2954     1   109.5600471 388.275200
   2952   2951   2953     1   108.4600466 328.025600
   2953   2951   2954     1   109.5600471 388.275200
   2955   2954   2960     1   108.7700466 392.459200
   2955   2954   2956     1   107.5800459 329.699200
   2956   2954   2960     1   108.7700466 392.459200
   2958   2957   2961     1   108.7700466 392.459200
   2958   2957   2959     1   107.5800459 329.699200
   2959   2957   2961     1   108.7700466 392.459200
   2960  11317  11318     1   117.5500507 404.174400
   2961  11390  11391     1   117.5500507 404.174400
   2966   2969   2970     1   109.5600471 388.275200
   2966   2969   2971     1   109.5600471 388.275200
   2967   2966   2969     1   109.5600471 388.275200
   2967   2966   2972     1   109.8800469 414.216000
   2967   2966   2968     1   108.4600466 328.025600
   2968   2966   2969     1   109.5600471 388.275200
   2968   2966   2972     1   109.8800469 414.216000
   2969   2989   2990     1   117.6800502 383.254400
   2970   2969   2989     1   108.8800464 416.726400
   2970   2969   2971     1   108.4600466 328.025600
   2971   2969   2989     1   108.8800464 416.726400
   2972   2973   2974     1   109.8800469 414.216000
   2972   2973   2975     1   109.8800469 414.216000
   2972   2976   2977     1   109.8800469 414.216000
   2972   2976   2978     1   109.8800469 414.216000
   2973   2982   2983     1   109.8000471 387.438400
   2973   2982   2984     1   109.8000471 387.438400
   2974   2973   2982     1   109.5600471 388.275200
   2974   2973   2975     1   108.4600466 328.025600
   2975   2973   2982     1   109.5600471 388.275200
   2976   2979   2980     1   109.8000471 387.438400
   2976   2979   2981     1   109.8000471 387.438400
   2977   2976   2979     1   109.5600471 388.275200
   2977   2976   2978     1   108.4600466 328.025600
   2978   2976   2979     1   109.5600471 388.275200
   2980   2979   2985     1   108.7700466 392.459200
   2980   2979   2981     1   107.5800459 329.699200
   2981   2979   2985     1   108.7700466 392.459200
   2983   2982   2986     1   108.7700466 392.459200
   2983   2982   2984     1   107.5800459 329.699200
   2984   2982   2986     1   108.7700466 392.459200
   2985  11463  11464     1   117.5500507 404.174400
   2986  11536  11537     1   117.5500507 404.174400
   2991   2994   2995     1   109.5600471 388.275200
   2991   2994   2996     1   109.5600471 388.275200
   2992   2991   2994     1   109.5600471 388.275200
   2992   2991   2997     1   109.8800469 414.216000
   2992   2991   2993     1   108.4600466 328.025600
   2993   2991   2994     1   109.5600471 388.275200
   2993   2991   2997     1   109.8800469 414.216000
   2994   3014   3015     1   117.6800502 383.254400
   2995   2994   3014     1   108.8800464 416.726400
   2995   2994   2996     1   108.4600466 328.025600
   2996   2994   3014     1   108.8800464 416.726400
   2997   2998   2999     1   109.8800469 414.216000
   2997   2998   3000     1   109.8800469 414.216000
   2997   3001   3002     1   109.8800469 414.216000
   2997   3001   3003     1   109.8800469 414.216000
   2998   3007   3008     1   109.8000471 387.438400
   2998   3007   3009     1   109.8000471 387.438400
   2999   2998   3007     1   109.5600471 388.275200
   2999   2998   3000     1   108.4600466 328.025600
   3000   2998   3007     1   109.5600471 388.275200
   3001   3004   3005     1   109.8000471 387.438400
   3001   3004   3006     1   109.8000471 387.438400
   3002   3001   3004     1   109.5600471 388.275200
   3002   3001   3003     1   108.4600466 328.025600
   3003   3001   3004     1   109.5600471 388.275200
   3005   3004   3010     1   108.7700466 392.459200
   3005   3004   3006     1   107.5800459 329.699200
   3006   3004   3010     1   108.7700466 392.459200
   3008   3007   3011     1   108.7700466 392.459200
   3008   3007   3009     1   107.5800459 329.699200
   3009   3007   3011     1   108.7700466 392.459200
   3010  11609  11610     1   117.5500507 404.174400
   3011  11682  11683     1   117.5500507 404.174400
   3016   3019   3020     1   109.5600471 388.275200
   3016   3019   3021     1   109.5600471 388.275200
   3017   3016   3019     1   109.5600471 388.275200
   3017   3016   3022     1   109.8800469 414.216000
   3017   3016   3018     1   108.4600466 328.025600
   3018   3016   3019     1   109.5600471 388.275200
   3018   3016   3022     1   109.8800469 414.216000
   3019   3039   3040     1   117.6800502 383.254400
   3020   3019   3039     1   108.8800464 416.726400
   3020   3019   3021     1   108.4600466 328.025600
   3021   3019   3039     1   108.8800464 416.726400
   3022   3023   3024     1   109.8800469 414.216000
   3022   3023   3025     1   109.8800469 414.216000
   3022   3026   3027     1   109.8800469 414.216000
   3022   3026   3028     1   109.8800469 414.216000
   3023   3032   3033     1   109.8000471 387.438400
   3023   3032   3034     1   109.8000471 387.438400
   3024   3023   3032     1   109.5600471 388.275200
   3024   3023   3025     1   108.4600466 328.025600
   3025   3023   3032     1   109.5600471 388.275200
   3026   3029   3030     1   109.8000471 387.438400
   3026   3029   3031     1   109.8000471 387.438400
   3027   3026   3029     1   109.5600471 388.275200
   3027   3026   3028     1   108.4600466 328.025600
   3028   3026   3029     1   109.5600471 388.275200
   3030   3029   3035     1   108.7700466 392.459200
   3030   3029   3031     1   107.5800459 329.699200
   3031   3029   3035     1   108.7700466 392.459200
   3033   3032   3036     1   108.7700466 392.459200
   3033   3032   3034     1   107.5800459 329.699200
   3034   3032   3036     1   108.7700466 392.459200
   3035  11755  11756     1   117.5500507 404.174400
   3036  11828  11829     1   117.5500507 404.174400
   3041   3044   3045     1   109.5600471 388.275200
   3041   3044   3046     1   109.5600471 388.275200
   3042   3041   3044     1   109.5600471 388.275200
   3042   3041   3047     1   109.8800469 414.216000
   3042   3041   3043     1   108.4600466 328.025600
   3043   3041   3044     1   109.5600471 388.275200
   3043   3041   3047     1   109.8800469 414.216000
   3044   3064   3065     1   117.6800502 383.254400
   3045   3044   3064     1   108.8800464 416.726400
   3045   3044   3046     1   108.4600466 328.025600
   3046   3044   3064     1   108.8800464 416.726400
   3047   3048   3049     1   109.8800469 414.216000
   3047   3048   3050     1   109.8800469 414.216000
   3047   3051   3052     1   109.8800469 414.216000
   3047   3051   3053     1   109.8800469 414.216000
   3048   3057   3058     1   109.8000471 387.438400
   3048   3057   3059     1   109.8000471 387.438400
   3049   3048   3057     1   109.5600471 388.275200
   3049   3048   3050     1   108.4600466 328.025600
   3050   3048   3057     1   109.5600471 388.275200
   3051   3054   3055     1   109.8000471 387.438400
   3051   3054   3056     1   109.8000471 387.438400
   3052   3051   3054     1   109.5600471 388.275200
   3052   3051   3053     1   108.4600466 328.025600
   3053   3051   3054     1   109.5600471 388.275200
   3055   3054   3060     1   108.7700466 392.459200
   3055   3054   3056     1   107.5800459 329.699200
   3056   3054   3060     1   108.7700466 392.459200
   3058   3057   3061     1   108.7700466 392.459200
   3058   3057   3059     1   107.5800459 329.699200
   3059   3057   3061     1   108.7700466 392.459200
   3060  11901  11902     1   117.5500507 404.174400
   3061  11974  11975     1   117.5500507 404.174400
   3066   3069   3070     1   109.5600471 388.275200
   3066   3069   3071     1   109.5600471 388.275200
   3067   3066   3069     1   109.5600471 388.275200
   3067   3066   3072     1   109.8800469 414.216000
   3067   3066   3068     1   108.4600466 328.025600
   3068   3066   3069     1   109.5600471 388.275200
   3068   3066   3072     1   109.8800469 414.216000
   3069   3089   3090     1   117.6800502 383.254400
   3070   3069   3089     1   108.8800464 416.726400
   3070   3069   3071     1   108.4600466 328.025600
   3071   3069   3089     1   108.8800464 416.726400
   3072   3073   3074     1   109.8800469 414.216000
   3072   3073   3075     1   109.8800469 414.216000
   3072   3076   3077     1   109.8800469 414.216000
   3072   3076   3078     1   109.8800469 414.216000
   3073   3082   3083     1   109.8000471 387.438400
   3073   3082   3084     1   109.8000471 387.438400
   3074   3073   3082     1   109.5600471 388.275200
   3074   3073   3075     1   108.4600466 328.025600
   3075   3073   3082     1   109.5600471 388.275200
   3076   3079   3080     1   109.8000471 387.438400
   3076   3079   3081     1   109.8000471 387.438400
   3077   3076   3079     1   109.5600471 388.275200
   3077   3076   3078     1   108.4600466 328.025600
   3078   3076   3079     1   109.5600471 388.275200
   3080   3079   3085     1   108.7700466 392.459200
   3080   3079   3081     1   107.5800459 329.699200
   3081   3079   3085     1   108.7700466 392.459200
   3083   3082   3086     1   108.7700466 392.459200
   3083   3082   3084     1   107.5800459 329.699200
   3084   3082   3086     1   108.7700466 392.459200
   3085  12047  12048     1   117.5500507 404.174400
   3086  12120  12121     1   117.5500507 404.174400
   3091   3094   3095     1   109.5600471 388.275200
   3091   3094   3096     1   109.5600471 388.275200
   3092   3091   3094     1   109.5600471 388.275200
   3092   3091   3097     1   109.8800469 414.216000
   3092   3091   3093     1   108.4600466 328.025600
   3093   3091   3094     1   109.5600471 388.275200
   3093   3091   3097     1   109.8800469 414.216000
   3094   3114   3115     1   117.6800502 383.254400
   3095   3094   3114     1   108.8800464 416.726400
   3095   3094   3096     1   108.4600466 328.025600
   3096   3094   3114     1   108.8800464 416.726400
   3097   3098   3099     1   109.8800469 414.216000
   3097   3098   3100     1   109.8800469 414.216000
   3097   3101   3102     1   109.8800469 414.216000
   3097   3101   3103     1   109.8800469 414.216000
   3098   3107   3108     1   109.8000471 387.438400
   3098   3107   3109     1   109.8000471 387.438400
   3099   3098   3107     1   109.5600471 388.275200
   3099   3098   3100     1   108.4600466 328.025600
   3100   3098   3107     1   109.5600471 388.275200
   3101   3104   3105     1   109.8000471 387.438400
   3101   3104   3106     1   109.8000471 387.438400
   3102   3101   3104     1   109.5600471 388.275200
   3102   3101   3103     1   108.4600466 328.025600
   3103   3101   3104     1   109.5600471 388.275200
   3105   3104   3110     1   108.7700466 392.459200
   3105   3104   3106     1   107.5800459 329.699200
   3106   3104   3110     1   108.7700466 392.459200
   3108   3107   3111     1   108.7700466 392.459200
   3108   3107   3109     1   107.5800459 329.699200
   3109   3107   3111     1   108.7700466 392.459200
   3110  12193  12194     1   117.5500507 404.174400
   3111  12266  12267     1   117.5500507 404.174400
   3116   3119   3120     1   109.5600471 388.275200
   3116   3119   3121     1   109.5600471 388.275200
   3117   3116   3119     1   109.5600471 388.275200
   3117   3116   3122     1   109.8800469 414.216000
   3117   3116   3118     1   108.4600466 328.025600
   3118   3116   3119     1   109.5600471 388.275200
   3118   3116   3122     1   109.8800469 414.216000
   3119   3139   3140     1   117.6800502 383.254400
   3120   3119   3139     1   108.8800464 416.726400
   3120   3119   3121     1   108.4600466 328.025600
   3121   3119   3139     1   108.8800464 416.726400
   3122   3123   3124     1   109.8800469 414.216000
   3122   3123   3125     1   109.8800469 414.216000
   3122   3126   3127     1   109.8800469 414.216000
   3122   3126   3128     1   109.8800469 414.216000
   3123   3132   3133     1   109.8000471 387.438400
   3123   3132   3134     1   109.8000471 387.438400
   3124   3123   3132     1   109.5600471 388.275200
   3124   3123   3125     1   108.4600466 328.025600
   3125   3123   3132     1   109.5600471 388.275200
   3126   3129   3130     1   109.8000471 387.438400
   3126   3129   3131     1   109.8000471 387.438400
   3127   3126   3129     1   109.5600471 388.275200
   3127   3126   3128     1   108.4600466 328.025600
   3128   3126   3129     1   109.5600471 388.275200
   3130   3129   3135     1   108.7700466 392.459200
   3130   3129   3131     1   107.5800459 329.699200
   3131   3129   3135     1   108.7700466 392.459200
   3133   3132   3136     1   108.7700466 392.459200
   3133   3132   3134     1   107.5800459 329.699200
   3134   3132   3136     1   108.7700466 392.459200
   3135  12339  12340     1   117.5500507 404.174400
   3136  12412  12413     1   117.5500507 404.174400
   3141   3143   3144     1   108.8800464 416.726400
   3141   3143   3146     1   108.8800464 416.726400
   3142   3141   3143     1   117.6800502 383.254400
   3143   3145   3147     1   109.5600471 388.275200
   3143   3145   3148     1   109.5600471 388.275200
   3144   3143   3145     1   109.5600471 388.275200
   3144   3143   3146     1   108.4600466 328.025600
   3145   3143   3146     1   109.5600471 388.275200
   3147   3145   3149     1   109.8800469 414.216000
   3147   3145   3148     1   108.4600466 328.025600
   3148   3145   3149     1   109.8800469 414.216000
   3149   3150   3159     1   109.8800469 414.216000
   3149   3150   3160     1   109.8800469 414.216000
   3149   3151   3152     1   109.8800469 414.216000
   3149   3151   3154     1   109.8800469 414.216000
   3150   3161   3162     1   109.8000471 387.438400
   3150   3161   3163     1   109.8000471 387.438400
   3151   3153   3155     1   109.8000471 387.438400
   3151   3153   3156     1   109.8000471 387.438400
   3152   3151   3153     1   109.5600471 388.275200
   3152   3151   3154     1   108.4600466 328.025600
   3153   3151   3154     1   109.5600471 388.275200
   3155   3153   3157     1   108.7700466 392.459200
   3155   3153   3156     1   107.5800459 329.699200
   3156   3153   3157     1   108.7700466 392.459200
   3157   3189   3179     1   119.3800509 410.868800
   3159   3150   3161     1   109.5600471 388.275200
   3159   3150   3160     1   108.4600466 328.025600
   3160   3150   3161     1   109.5600471 388.275200
   3162   3161   3164     1   108.7700466 392.459200
   3162   3161   3163     1   107.5800459 329.699200
   3163   3161   3164     1   108.7700466 392.459200
   3164   3213   3203     1   119.3800509 410.868800
   3166   3167   3186     1   109.5600471 388.275200
   3166   3177   3180     1   109.5600471 388.275200
   3166   3177   3181     1   109.5600471 388.275200
   3167   3166   3168     1   109.5600471 388.275200
   3167   3169   3173     1   109.5600471 388.275200
   3167   3187   3188     1   107.2600461 396.643200
   3168   3166   3177     1   109.5600471 388.275200
   3168   3166   3184     1   109.7800468 425.094400
   3169   3167   3186     1   109.5600471 388.275200
   3169   3170   3172     1   109.5600471 388.275200
   3169   3176   3178     1   107.2600461 396.643200
   3170   3169   3173     1   109.5600471 388.275200
   3170   3171   3174     1   110.2200475 386.601600
   3170   3189   3179     1   109.2900470 396.643200
   3171   3170   3172     1   109.5600471 388.275200
   3171   3175   3185     1   107.2600461 396.643200
   3172   3170   3189     1   109.8800469 414.216000
   3173   3169   3176     1   110.2600474 425.931200
   3174   3171   3175     1   109.4300470 427.604800
   3174   3171   3184     1   109.5800467 425.931200
   3177   3182   3183     1   107.2600461 396.643200
   3180   3177   3182     1   110.2600474 425.931200
   3180   3177   3181     1   108.4600466 328.025600
   3181   3177   3182     1   110.2600474 425.931200
   3186   3167   3187     1   110.2600474 425.931200
   3190   3191   3210     1   109.5600471 388.275200
   3190   3201   3204     1   109.5600471 388.275200
   3190   3201   3205     1   109.5600471 388.275200
   3191   3190   3192     1   109.5600471 388.275200
   3191   3193   3197     1   109.5600471 388.275200
   3191   3211   3212     1   107.2600461 396.643200
   3192   3190   3201     1   109.5600471 388.275200
   3192   3190   3208     1   109.7800468 425.094400
   3193   3191   3210     1   109.5600471 388.275200
   3193   3194   3196     1   109.5600471 388.275200
   3193   3200   3202     1   107.2600461 396.643200
   3194   3193   3197     1   109.5600471 388.275200
   3194   3195   3198     1   110.2200475 386.601600
   3194   3213   3203     1   109.2900470 396.643200
   3195   3194   3196     1   109.5600471 388.275200
   3195   3199   3209     1   107.2600461 396.643200
   3196   3194   3213     1   109.8800469 414.216000
   3197   3193   3200     1   110.2600474 425.931200
   3198   3195   3199     1   109.4300470 427.604800
   3198   3195   3208     1   109.5800467 425.931200
   3201   3206   3207     1   107.2600461 396.643200
   3204   3201   3206     1   110.2600474 425.931200
   3204   3201   3205     1   108.4600466 328.025600
   3205   3201   3206     1   110.2600474 425.931200
   3210   3191   3211     1   110.2600474 425.931200
   3214   3216   3217     1   108.8800464 416.726400
   3214   3216   3219     1   108.8800464 416.726400
   3215   3214   3216     1   117.6800502 383.254400
   3216   3218   3220     1   109.5600471 388.275200
   3216   3218   3221     1   109.5600471 388.275200
   3217   3216   3218     1   109.5600471 388.275200
   3217   3216   3219     1   108.4600466 328.025600
   3218   3216   3219     1   109.5600471 388.275200
   3220   3218   3222     1   109.8800469 414.216000
   3220   3218   3221     1   108.4600466 328.025600
   3221   3218   3222     1   109.8800469 414.216000
   3222   3223   3232     1   109.8800469 414.216000
   3222   3223   3233     1   109.8800469 414.216000
   3222   3224   3225     1   109.8800469 414.216000
   3222   3224   3227     1   109.8800469 414.216000
   3223   3234   3235     1   109.8000471 387.438400
   3223   3234   3236     1   109.8000471 387.438400
   3224   3226   3228     1   109.8000471 387.438400
   3224   3226   3229     1   109.8000471 387.438400
   3225   3224   3226     1   109.5600471 388.275200
   3225   3224   3227     1   108.4600466 328.025600
   3226   3224   3227     1   109.5600471 388.275200
   3228   3226   3230     1   108.7700466 392.459200
   3228   3226   3229     1   107.5800459 329.699200
   3229   3226   3230     1   108.7700466 392.459200
   3230   3262   3252     1   119.3800509 410.868800
   3232   3223   3234     1   109.5600471 388.275200
   3232   3223   3233     1   108.4600466 328.025600
   3233   3223   3234     1   109.5600471 388.275200
   3235   3234   3237     1   108.7700466 392.459200
   3235   3234   3236     1   107.5800459 329.699200
   3236   3234   3237     1   108.7700466 392.459200
   3237   3286   3276     1   119.3800509 410.868800
   3239   3240   3259     1   109.5600471 388.275200
   3239   3250   3253     1   109.5600471 388.275200
   3239   3250   3254     1   109.5600471 388.275200
   3240   3242   3246     1   109.5600471 388.275200
   3240   3260   3261     1   107.2600461 396.643200
   3240   3239   3241     1   109.5600471 388.275200
   3241   3239   3250     1   109.5600471 388.275200
   3241   3239   3257     1   109.7800468 425.094400
   3242   3243   3245     1   109.5600471 388.275200
   3242   3249   3251     1   107.2600461 396.643200
   3242   3240   3259     1   109.5600471 388.275200
   3243   3244   3247     1   110.2200475 386.601600
   3243   3262   3252     1   109.2900470 396.643200
   3243   3242   3246     1   109.5600471 388.275200
   3244   3248   3258     1   107.2600461 396.643200
   3244   3243   3245     1   109.5600471 388.275200
   3245   3243   3262     1   109.8800469 414.216000
   3246   3242   3249     1   110.2600474 425.931200
   3247   3244   3248     1   109.4300470 427.604800
   3247   3244   3257     1   109.5800467 425.931200
   3250   3255   3256     1   107.2600461 396.643200
   3253   3250   3255     1   110.2600474 425.931200
   3253   3250   3254     1   108.4600466 328.025600
   3254   3250   3255     1   110.2600474 425.931200
   3259   3240   3260     1   110.2600474 425.931200
   3263   3264   3283     1   109.5600471 388.275200
   3263   3274   3277     1   109.5600471 388.275200
   3263   3274   3278     1   109.5600471 388.275200
   3264   3266   3270     1   109.5600471 388.275200
   3264   3284   3285     1   107.2600461 396.643200
   3264   3263   3265     1   109.5600471 388.275200
   3265   3263   3274     1   109.5600471 388.275200
   3265   3263   3281     1   109.7800468 425.094400
   3266   3267   3269     1   109.5600471 388.275200
   3266   3273   3275     1   107.2600461 396.643200
   3266   3264   3283     1   109.5600471 388.275200
   3267   3268   3271     1   110.2200475 386.601600
   3267   3286   3276     1   109.2900470 396.643200
   3267   3266   3270     1   109.5600471 388.275200
   3268   3272   3282     1   107.2600461 396.643200
   3268   3267   3269     1   109.5600471 388.275200
   3269   3267   3286     1   109.8800469 414.216000
   3270   3266   3273     1   110.2600474 425.931200
   3271   3268   3272     1   109.4300470 427.604800
   3271   3268   3281     1   109.5800467 425.931200
   3274   3279   3280     1   107.2600461 396.643200
   3277   3274   3279     1   110.2600474 425.931200
   3277   3274   3278     1   108.4600466 328.025600
   3278   3274   3279     1   110.2600474 425.931200
   3283   3264   3284     1   110.2600474 425.931200
   3287   3289   3290     1   108.8800464 416.726400
   3287   3289   3292     1   108.8800464 416.726400
   3288   3287   3289     1   117.6800502 383.254400
   3289   3291   3293     1   109.5600471 388.275200
   3289   3291   3294     1   109.5600471 388.275200
   3290   3289   3291     1   109.5600471 388.275200
   3290   3289   3292     1   108.4600466 328.025600
   3291   3289   3292     1   109.5600471 388.275200
   3293   3291   3295     1   109.8800469 414.216000
   3293   3291   3294     1   108.4600466 328.025600
   3294   3291   3295     1   109.8800469 414.216000
   3295   3296   3305     1   109.8800469 414.216000
   3295   3296   3306     1   109.8800469 414.216000
   3295   3297   3298     1   109.8800469 414.216000
   3295   3297   3300     1   109.8800469 414.216000
   3296   3307   3308     1   109.8000471 387.438400
   3296   3307   3309     1   109.8000471 387.438400
   3297   3299   3301     1   109.8000471 387.438400
   3297   3299   3302     1   109.8000471 387.438400
   3298   3297   3299     1   109.5600471 388.275200
   3298   3297   3300     1   108.4600466 328.025600
   3299   3297   3300     1   109.5600471 388.275200
   3301   3299   3303     1   108.7700466 392.459200
   3301   3299   3302     1   107.5800459 329.699200
   3302   3299   3303     1   108.7700466 392.459200
   3303   3335   3325     1   119.3800509 410.868800
   3305   3296   3307     1   109.5600471 388.275200
   3305   3296   3306     1   108.4600466 328.025600
   3306   3296   3307     1   109.5600471 388.275200
   3308   3307   3310     1   108.7700466 392.459200
   3308   3307   3309     1   107.5800459 329.699200
   3309   3307   3310     1   108.7700466 392.459200
   3310   3359   3349     1   119.3800509 410.868800
   3312   3313   3332     1   109.5600471 388.275200
   3312   3323   3326     1   109.5600471 388.275200
   3312   3323   3327     1   109.5600471 388.275200
   3313   3312   3314     1   109.5600471 388.275200
   3313   3315   3319     1   109.5600471 388.275200
   3313   3333   3334     1   107.2600461 396.643200
   3314   3312   3323     1   109.5600471 388.275200
   3314   3312   3330     1   109.7800468 425.094400
   3315   3313   3332     1   109.5600471 388.275200
   3315   3316   3318     1   109.5600471 388.275200
   3315   3322   3324     1   107.2600461 396.643200
   3316   3315   3319     1   109.5600471 388.275200
   3316   3317   3320     1   110.2200475 386.601600
   3316   3335   3325     1   109.2900470 396.643200
   3317   3316   3318     1   109.5600471 388.275200
   3317   3321   3331     1   107.2600461 396.643200
   3318   3316   3335     1   109.8800469 414.216000
   3319   3315   3322     1   110.2600474 425.931200
   3320   3317   3321     1   109.4300470 427.604800
   3320   3317   3330     1   109.5800467 425.931200
   3323   3328   3329     1   107.2600461 396.643200
   3326   3323   3328     1   110.2600474 425.931200
   3326   3323   3327     1   108.4600466 328.025600
   3327   3323   3328     1   110.2600474 425.931200
   3332   3313   3333     1   110.2600474 425.931200
   3336   3337   3356     1   109.5600471 388.275200
   3336   3347   3350     1   109.5600471 388.275200
   3336   3347   3351     1   109.5600471 388.275200
   3337   3336   3338     1   109.5600471 388.275200
   3337   3339   3343     1   109.5600471 388.275200
   3337   3357   3358     1   107.2600461 396.643200
   3338   3336   3347     1   109.5600471 388.275200
   3338   3336   3354     1   109.7800468 425.094400
   3339   3337   3356     1   109.5600471 388.275200
   3339   3340   3342     1   109.5600471 388.275200
   3339   3346   3348     1   107.2600461 396.643200
   3340   3339   3343     1   109.5600471 388.275200
   3340   3341   3344     1   110.2200475 386.601600
   3340   3359   3349     1   109.2900470 396.643200
   3341   3340   3342     1   109.5600471 388.275200
   3341   3345   3355     1   107.2600461 396.643200
   3342   3340   3359     1   109.8800469 414.216000
   3343   3339   3346     1   110.2600474 425.931200
   3344   3341   3345     1   109.4300470 427.604800
   3344   3341   3354     1   109.5800467 425.931200
   3347   3352   3353     1   107.2600461 396.643200
   3350   3347   3352     1   110.2600474 425.931200
   3350   3347   3351     1   108.4600466 328.025600
   3351   3347   3352     1   110.2600474 425.931200
   3356   3337   3357     1   110.2600474 425.931200
   3360   3362   3363     1   108.8800464 416.726400
   3360   3362   3365     1   108.8800464 416.726400
   3361   3360   3362     1   117.6800502 383.254400
   3362   3364   3366     1   109.5600471 388.275200
   3362   3364   3367     1   109.5600471 388.275200
   3363   3362   3364     1   109.5600471 388.275200
   3363   3362   3365     1   108.4600466 328.025600
   3364   3362   3365     1   109.5600471 388.275200
   3366   3364   3368     1   109.8800469 414.216000
   3366   3364   3367     1   108.4600466 328.025600
   3367   3364   3368     1   109.8800469 414.216000
   3368   3369   3378     1   109.8800469 414.216000
   3368   3369   3379     1   109.8800469 414.216000
   3368   3370   3371     1   109.8800469 414.216000
   3368   3370   3373     1   109.8800469 414.216000
   3369   3380   3381     1   109.8000471 387.438400
   3369   3380   3382     1   109.8000471 387.438400
   3370   3372   3374     1   109.8000471 387.438400
   3370   3372   3375     1   109.8000471 387.438400
   3371   3370   3372     1   109.5600471 388.275200
   3371   3370   3373     1   108.4600466 328.025600
   3372   3370   3373     1   109.5600471 388.275200
   3374   3372   3376     1   108.7700466 392.459200
   3374   3372   3375     1   107.5800459 329.699200
   3375   3372   3376     1   108.7700466 392.459200
   3376   3408   3398     1   119.3800509 410.868800
   3378   3369   3380     1   109.5600471 388.275200
   3378   3369   3379     1   108.4600466 328.025600
   3379   3369   3380     1   109.5600471 388.275200
   3381   3380   3383     1   108.7700466 392.459200
   3381   3380   3382     1   107.5800459 329.699200
   3382   3380   3383     1   108.7700466 392.459200
   3383   3432   3422     1   119.3800509 410.868800
   3385   3386   3405     1   109.5600471 388.275200
   3385   3396   3399     1   109.5600471 388.275200
   3385   3396   3400     1   109.5600471 388.275200
   3386   3388   3392     1   109.5600471 388.275200
   3386   3406   3407     1   107.2600461 396.643200
   3386   3385   3387     1   109.5600471 388.275200
   3387   3385   3396     1   109.5600471 388.275200
   3387   3385   3403     1   109.7800468 425.094400
   3388   3389   3391     1   109.5600471 388.275200
   3388   3395   3397     1   107.2600461 396.643200
   3388   3386   3405     1   109.5600471 388.275200
   3389   3390   3393     1   110.2200475 386.601600
   3389   3408   3398     1   109.2900470 396.643200
   3389   3388   3392     1   109.5600471 388.275200
   3390   3394   3404     1   107.2600461 396.643200
   3390   3389   3391     1   109.5600471 388.275200
   3391   3389   3408     1   109.8800469 414.216000
   3392   3388   3395     1   110.2600474 425.931200
   3393   3390   3394     1   109.4300470 427.604800
   3393   3390   3403     1   109.5800467 425.931200
   3396   3401   3402     1   107.2600461 396.643200
   3399   3396   3401     1   110.2600474 425.931200
   3399   3396   3400     1   108.4600466 328.025600
   3400   3396   3401     1   110.2600474 425.931200
   3405   3386   3406     1   110.2600474 425.931200
   3409   3410   3429     1   109.5600471 388.275200
   3409   3420   3423     1   109.5600471 388.275200
   3409   3420   3424     1   109.5600471 388.275200
   3410   3412   3416     1   109.5600471 388.275200
   3410   3430   3431     1   107.2600461 396.643200
   3410   3409   3411     1   109.5600471 388.275200
   3411   3409   3420     1   109.5600471 388.275200
   3411   3409   3427     1   109.7800468 425.094400
   3412   3413   3415     1   109.5600471 388.275200
   3412   3419   3421     1   107.2600461 396.643200
   3412   3410   3429     1   109.5600471 388.275200
   3413   3414   3417     1   110.2200475 386.601600
   3413   3432   3422     1   109.2900470 396.643200
   3413   3412   3416     1   109.5600471 388.275200
   3414   3418   3428     1   107.2600461 396.643200
   3414   3413   3415     1   109.5600471 388.275200
   3415   3413   3432     1   109.8800469 414.216000
   3416   3412   3419     1   110.2600474 425.931200
   3417   3414   3418     1   109.4300470 427.604800
   3417   3414   3427     1   109.5800467 425.931200
   3420   3425   3426     1   107.2600461 396.643200
   3423   3420   3425     1   110.2600474 425.931200
   3423   3420   3424     1   108.4600466 328.025600
   3424   3420   3425     1   110.2600474 425.931200
   3429   3410   3430     1   110.2600474 425.931200
   3433   3435   3436     1   108.8800464 416.726400
   3433   3435   3438     1   108.8800464 416.726400
   3434   3433   3435     1   117.6800502 383.254400
   3435   3437   3439     1   109.5600471 388.275200
   3435   3437   3440     1   109.5600471 388.275200
   3436   3435   3437     1   109.5600471 388.275200
   3436   3435   3438     1   108.4600466 328.025600
   3437   3435   3438     1   109.5600471 388.275200
   3439   3437   3441     1   109.8800469 414.216000
   3439   3437   3440     1   108.4600466 328.025600
   3440   3437   3441     1   109.8800469 414.216000
   3441   3442   3451     1   109.8800469 414.216000
   3441   3442   3452     1   109.8800469 414.216000
   3441   3443   3444     1   109.8800469 414.216000
   3441   3443   3446     1   109.8800469 414.216000
   3442   3453   3454     1   109.8000471 387.438400
   3442   3453   3455     1   109.8000471 387.438400
   3443   3445   3447     1   109.8000471 387.438400
   3443   3445   3448     1   109.8000471 387.438400
   3444   3443   3445     1   109.5600471 388.275200
   3444   3443   3446     1   108.4600466 328.025600
   3445   3443   3446     1   109.5600471 388.275200
   3447   3445   3449     1   108.7700466 392.459200
   3447   3445   3448     1   107.5800459 329.699200
   3448   3445   3449     1   108.7700466 392.459200
   3449   3481   3471     1   119.3800509 410.868800
   3451   3442   3453     1   109.5600471 388.275200
   3451   3442   3452     1   108.4600466 328.025600
   3452   3442   3453     1   109.5600471 388.275200
   3454   3453   3456     1   108.7700466 392.459200
   3454   3453   3455     1   107.5800459 329.699200
   3455   3453   3456     1   108.7700466 392.459200
   3456   3505   3495     1   119.3800509 410.868800
   3458   3459   3478     1   109.5600471 388.275200
   3458   3469   3472     1   109.5600471 388.275200
   3458   3469   3473     1   109.5600471 388.275200
   3459   3458   3460     1   109.5600471 388.275200
   3459   3461   3465     1   109.5600471 388.275200
   3459   3479   3480     1   107.2600461 396.643200
   3460   3458   3469     1   109.5600471 388.275200
   3460   3458   3476     1   109.7800468 425.094400
   3461   3459   3478     1   109.5600471 388.275200
   3461   3462   3464     1   109.5600471 388.275200
   3461   3468   3470     1   107.2600461 396.643200
   3462   3461   3465     1   109.5600471 388.275200
   3462   3463   3466     1   110.2200475 386.601600
   3462   3481   3471     1   109.2900470 396.643200
   3463   3462   3464     1   109.5600471 388.275200
   3463   3467   3477     1   107.2600461 396.643200
   3464   3462   3481     1   109.8800469 414.216000
   3465   3461   3468     1   110.2600474 425.931200
   3466   3463   3467     1   109.4300470 427.604800
   3466   3463   3476     1   109.5800467 425.931200
   3469   3474   3475     1   107.2600461 396.643200
   3472   3469   3474     1   110.2600474 425.931200
   3472   3469   3473     1   108.4600466 328.025600
   3473   3469   3474     1   110.2600474 425.931200
   3478   3459   3479     1   110.2600474 425.931200
   3482   3483   3502     1   109.5600471 388.275200
   3482   3493   3496     1   109.5600471 388.275200
   3482   3493   3497     1   109.5600471 388.275200
   3483   3482   3484     1   109.5600471 388.275200
   3483   3485   3489     1   109.5600471 388.275200
   3483   3503   3504     1   107.2600461 396.643200
   3484   3482   3493     1   109.5600471 388.275200
   3484   3482   3500     1   109.7800468 425.094400
   3485   3483   3502     1   109.5600471 388.275200
   3485   3486   3488     1   109.5600471 388.275200
   3485   3492   3494     1   107.2600461 396.643200
   3486   3485   3489     1   109.5600471 388.275200
   3486   3487   3490     1   110.2200475 386.601600
   3486   3505   3495     1   109.2900470 396.643200
   3487   3486   3488     1   109.5600471 388.275200
   3487   3491   3501     1   107.2600461 396.643200
   3488   3486   3505     1   109.8800469 414.216000
   3489   3485   3492     1   110.2600474 425.931200
   3490   3487   3491     1   109.4300470 427.604800
   3490   3487   3500     1   109.5800467 425.931200
   3493   3498   3499     1   107.2600461 396.643200
   3496   3493   3498     1   110.2600474 425.931200
   3496   3493   3497     1   108.4600466 328.025600
   3497   3493   3498     1   110.2600474 425.931200
   3502   3483   3503     1   110.2600474 425.931200
   3506   3508   3509     1   108.8800464 416.726400
   3506   3508   3511     1   108.8800464 416.726400
   3507   3506   3508     1   117.6800502 383.254400
   3508   3510   3512     1   109.5600471 388.275200
   3508   3510   3513     1   109.5600471 388.275200
   3509   3508   3510     1   109.5600471 388.275200
   3509   3508   3511     1   108.4600466 328.025600
   3510   3508   3511     1   109.5600471 388.275200
   3512   3510   3514     1   109.8800469 414.216000
   3512   3510   3513     1   108.4600466 328.025600
   3513   3510   3514     1   109.8800469 414.216000
   3514   3515   3524     1   109.8800469 414.216000
   3514   3515   3525     1   109.8800469 414.216000
   3514   3516   3517     1   109.8800469 414.216000
   3514   3516   3519     1   109.8800469 414.216000
   3515   3526   3527     1   109.8000471 387.438400
   3515   3526   3528     1   109.8000471 387.438400
   3516   3518   3520     1   109.8000471 387.438400
   3516   3518   3521     1   109.8000471 387.438400
   3517   3516   3518     1   109.5600471 388.275200
   3517   3516   3519     1   108.4600466 328.025600
   3518   3516   3519     1   109.5600471 388.275200
   3520   3518   3522     1   108.7700466 392.459200
   3520   3518   3521     1   107.5800459 329.699200
   3521   3518   3522     1   108.7700466 392.459200
   3522   3554   3544     1   119.3800509 410.868800
   3524   3515   3526     1   109.5600471 388.275200
   3524   3515   3525     1   108.4600466 328.025600
   3525   3515   3526     1   109.5600471 388.275200
   3527   3526   3529     1   108.7700466 392.459200
   3527   3526   3528     1   107.5800459 329.699200
   3528   3526   3529     1   108.7700466 392.459200
   3529   3578   3568     1   119.3800509 410.868800
   3531   3532   3551     1   109.5600471 388.275200
   3531   3542   3545     1   109.5600471 388.275200
   3531   3542   3546     1   109.5600471 388.275200
   3532   3534   3538     1   109.5600471 388.275200
   3532   3552   3553     1   107.2600461 396.643200
   3532   3531   3533     1   109.5600471 388.275200
   3533   3531   3542     1   109.5600471 388.275200
   3533   3531   3549     1   109.7800468 425.094400
   3534   3535   3537     1   109.5600471 388.275200
   3534   3541   3543     1   107.2600461 396.643200
   3534   3532   3551     1   109.5600471 388.275200
   3535   3536   3539     1   110.2200475 386.601600
   3535   3554   3544     1   109.2900470 396.643200
   3535   3534   3538     1   109.5600471 388.275200
   3536   3540   3550     1   107.2600461 396.643200
   3536   3535   3537     1   109.5600471 388.275200
   3537   3535   3554     1   109.8800469 414.216000
   3538   3534   3541     1   110.2600474 425.931200
   3539   3536   3540     1   109.4300470 427.604800
   3539   3536   3549     1   109.5800467 425.931200
   3542   3547   3548     1   107.2600461 396.643200
   3545   3542   3547     1   110.2600474 425.931200
   3545   3542   3546     1   108.4600466 328.025600
   3546   3542   3547     1   110.2600474 425.931200
   3551   3532   3552     1   110.2600474 425.931200
   3555   3556   3575     1   109.5600471 388.275200
   3555   3566   3569     1   109.5600471 388.275200
   3555   3566   3570     1   109.5600471 388.275200
   3556   3558   3562     1   109.5600471 388.275200
   3556   3576   3577     1   107.2600461 396.643200
   3556   3555   3557     1   109.5600471 388.275200
   3557   3555   3566     1   109.5600471 388.275200
   3557   3555   3573     1   109.7800468 425.094400
   3558   3559   3561     1   109.5600471 388.275200
   3558   3565   3567     1   107.2600461 396.643200
   3558   3556   3575     1   109.5600471 388.275200
   3559   3560   3563     1   110.2200475 386.601600
   3559   3578   3568     1   109.2900470 396.643200
   3559   3558   3562     1   109.5600471 388.275200
   3560   3564   3574     1   107.2600461 396.643200
   3560   3559   3561     1   109.5600471 388.275200
   3561   3559   3578     1   109.8800469 414.216000
   3562   3558   3565     1   110.2600474 425.931200
   3563   3560   3564     1   109.4300470 427.604800
   3563   3560   3573     1   109.5800467 425.931200
   3566   3571   3572     1   107.2600461 396.643200
   3569   3566   3571     1   110.2600474 425.931200
   3569   3566   3570     1   108.4600466 328.025600
   3570   3566   3571     1   110.2600474 425.931200
   3575   3556   3576     1   110.2600474 425.931200
   3579   3581   3582     1   108.8800464 416.726400
   3579   3581   3584     1   108.8800464 416.726400
   3580   3579   3581     1   117.6800502 383.254400
   3581   3583   3585     1   109.5600471 388.275200
   3581   3583   3586     1   109.5600471 388.275200
   3582   3581   3583     1   109.5600471 388.275200
   3582   3581   3584     1   108.4600466 328.025600
   3583   3581   3584     1   109.5600471 388.275200
   3585   3583   3587     1   109.8800469 414.216000
   3585   3583   3586     1   108.4600466 328.025600
   3586   3583   3587     1   109.8800469 414.216000
   3587   3588   3597     1   109.8800469 414.216000
   3587   3588   3598     1   109.8800469 414.216000
   3587   3589   3590     1   109.8800469 414.216000
   3587   3589   3592     1   109.8800469 414.216000
   3588   3599   3600     1   109.8000471 387.438400
   3588   3599   3601     1   109.8000471 387.438400
   3589   3591   3593     1   109.8000471 387.438400
   3589   3591   3594     1   109.8000471 387.438400
   3590   3589   3591     1   109.5600471 388.275200
   3590   3589   3592     1   108.4600466 328.025600
   3591   3589   3592     1   109.5600471 388.275200
   3593   3591   3595     1   108.7700466 392.459200
   3593   3591   3594     1   107.5800459 329.699200
   3594   3591   3595     1   108.7700466 392.459200
   3595   3627   3617     1   119.3800509 410.868800
   3597   3588   3599     1   109.5600471 388.275200
   3597   3588   3598     1   108.4600466 328.025600
   3598   3588   3599     1   109.5600471 388.275200
   3600   3599   3602     1   108.7700466 392.459200
   3600   3599   3601     1   107.5800459 329.699200
   3601   3599   3602     1   108.7700466 392.459200
   3602   3651   3641     1   119.3800509 410.868800
   3604   3605   3624     1   109.5600471 388.275200
   3604   3615   3618     1   109.5600471 388.275200
   3604   3615   3619     1   109.5600471 388.275200
   3605   3604   3606     1   109.5600471 388.275200
   3605   3607   3611     1   109.5600471 388.275200
   3605   3625   3626     1   107.2600461 396.643200
   3606   3604   3615     1   109.5600471 388.275200
   3606   3604   3622     1   109.7800468 425.094400
   3607   3605   3624     1   109.5600471 388.275200
   3607   3608   3610     1   109.5600471 388.275200
   3607   3614   3616     1   107.2600461 396.643200
   3608   3607   3611     1   109.5600471 388.275200
   3608   3609   3612     1   110.2200475 386.601600
   3608   3627   3617     1   109.2900470 396.643200
   3609   3608   3610     1   109.5600471 388.275200
   3609   3613   3623     1   107.2600461 396.643200
   3610   3608   3627     1   109.8800469 414.216000
   3611   3607   3614     1   110.2600474 425.931200
   3612   3609   3613     1   109.4300470 427.604800
   3612   3609   3622     1   109.5800467 425.931200
   3615   3620   3621     1   107.2600461 396.643200
   3618   3615   3620     1   110.2600474 425.931200
   3618   3615   3619     1   108.4600466 328.025600
   3619   3615   3620     1   110.2600474 425.931200
   3624   3605   3625     1   110.2600474 425.931200
   3628   3629   3648     1   109.5600471 388.275200
   3628   3639   3642     1   109.5600471 388.275200
   3628   3639   3643     1   109.5600471 388.275200
   3629   3628   3630     1   109.5600471 388.275200
   3629   3631   3635     1   109.5600471 388.275200
   3629   3649   3650     1   107.2600461 396.643200
   3630   3628   3639     1   109.5600471 388.275200
   3630   3628   3646     1   109.7800468 425.094400
   3631   3629   3648     1   109.5600471 388.275200
   3631   3632   3634     1   109.5600471 388.275200
   3631   3638   3640     1   107.2600461 396.643200
   3632   3631   3635     1   109.5600471 388.275200
   3632   3633   3636     1   110.2200475 386.601600
   3632   3651   3641     1   109.2900470 396.643200
   3633   3632   3634     1   109.5600471 388.275200
   3633   3637   3647     1   107.2600461 396.643200
   3634   3632   3651     1   109.8800469 414.216000
   3635   3631   3638     1   110.2600474 425.931200
   3636   3633   3637     1   109.4300470 427.604800
   3636   3633   3646     1   109.5800467 425.931200
   3639   3644   3645     1   107.2600461 396.643200
   3642   3639   3644     1   110.2600474 425.931200
   3642   3639   3643     1   108.4600466 328.025600
   3643   3639   3644     1   110.2600474 425.931200
   3648   3629   3649     1   110.2600474 425.931200
   3652   3654   3655     1   108.8800464 416.726400
   3652   3654   3657     1   108.8800464 416.726400
   3653   3652   3654     1   117.6800502 383.254400
   3654   3656   3658     1   109.5600471 388.275200
   3654   3656   3659     1   109.5600471 388.275200
   3655   3654   3656     1   109.5600471 388.275200
   3655   3654   3657     1   108.4600466 328.025600
   3656   3654   3657     1   109.5600471 388.275200
   3658   3656   3660     1   109.8800469 414.216000
   3658   3656   3659     1   108.4600466 328.025600
   3659   3656   3660     1   109.8800469 414.216000
   3660   3661   3670     1   109.8800469 414.216000
   3660   3661   3671     1   109.8800469 414.216000
   3660   3662   3663     1   109.8800469 414.216000
   3660   3662   3665     1   109.8800469 414.216000
   3661   3672   3673     1   109.8000471 387.438400
   3661   3672   3674     1   109.8000471 387.438400
   3662   3664   3666     1   109.8000471 387.438400
   3662   3664   3667     1   109.8000471 387.438400
   3663   3662   3664     1   109.5600471 388.275200
   3663   3662   3665     1   108.4600466 328.025600
   3664   3662   3665     1   109.5600471 388.275200
   3666   3664   3668     1   108.7700466 392.459200
   3666   3664   3667     1   107.5800459 329.699200
   3667   3664   3668     1   108.7700466 392.459200
   3668   3700   3690     1   119.3800509 410.868800
   3670   3661   3672     1   109.5600471 388.275200
   3670   3661   3671     1   108.4600466 328.025600
   3671   3661   3672     1   109.5600471 388.275200
   3673   3672   3675     1   108.7700466 392.459200
   3673   3672   3674     1   107.5800459 329.699200
   3674   3672   3675     1   108.7700466 392.459200
   3675   3724   3714     1   119.3800509 410.868800
   3677   3678   3697     1   109.5600471 388.275200
   3677   3688   3691     1   109.5600471 388.275200
   3677   3688   3692     1   109.5600471 388.275200
   3678   3680   3684     1   109.5600471 388.275200
   3678   3698   3699     1   107.2600461 396.643200
   3678   3677   3679     1   109.5600471 388.275200
   3679   3677   3688     1   109.5600471 388.275200
   3679   3677   3695     1   109.7800468 425.094400
   3680   3681   3683     1   109.5600471 388.275200
   3680   3687   3689     1   107.2600461 396.643200
   3680   3678   3697     1   109.5600471 388.275200
   3681   3682   3685     1   110.2200475 386.601600
   3681   3700   3690     1   109.2900470 396.643200
   3681   3680   3684     1   109.5600471 388.275200
   3682   3686   3696     1   107.2600461 396.643200
   3682   3681   3683     1   109.5600471 388.275200
   3683   3681   3700     1   109.8800469 414.216000
   3684   3680   3687     1   110.2600474 425.931200
   3685   3682   3686     1   109.4300470 427.604800
   3685   3682   3695     1   109.5800467 425.931200
   3688   3693   3694     1   107.2600461 396.643200
   3691   3688   3693     1   110.2600474 425.931200
   3691   3688   3692     1   108.4600466 328.025600
   3692   3688   3693     1   110.2600474 425.931200
   3697   3678   3698     1   110.2600474 425.931200
   3701   3702   3721     1   109.5600471 388.275200
   3701   3712   3715     1   109.5600471 388.275200
   3701   3712   3716     1   109.5600471 388.275200
   3702   3704   3708     1   109.5600471 388.275200
   3702   3722   3723     1   107.2600461 396.643200
   3702   3701   3703     1   109.5600471 388.275200
   3703   3701   3712     1   109.5600471 388.275200
   3703   3701   3719     1   109.7800468 425.094400
   3704   3705   3707     1   109.5600471 388.275200
   3704   3711   3713     1   107.2600461 396.643200
   3704   3702   3721     1   109.5600471 388.275200
   3705   3706   3709     1   110.2200475 386.601600
   3705   3724   3714     1   109.2900470 396.643200
   3705   3704   3708     1   109.5600471 388.275200
   3706   3710   3720     1   107.2600461 396.643200
   3706   3705   3707     1   109.5600471 388.275200
   3707   3705   3724     1   109.8800469 414.216000
   3708   3704   3711     1   110.2600474 425.931200
   3709   3706   3710     1   109.4300470 427.604800
   3709   3706   3719     1   109.5800467 425.931200
   3712   3717   3718     1   107.2600461 396.643200
   3715   3712   3717     1   110.2600474 425.931200
   3715   3712   3716     1   108.4600466 328.025600
   3716   3712   3717     1   110.2600474 425.931200
   3721   3702   3722     1   110.2600474 425.931200
   3725   3727   3728     1   108.8800464 416.726400
   3725   3727   3730     1   108.8800464 416.726400
   3726   3725   3727     1   117.6800502 383.254400
   3727   3729   3731     1   109.5600471 388.275200
   3727   3729   3732     1   109.5600471 388.275200
   3728   3727   3729     1   109.5600471 388.275200
   3728   3727   3730     1   108.4600466 328.025600
   3729   3727   3730     1   109.5600471 388.275200
   3731   3729   3733     1   109.8800469 414.216000
   3731   3729   3732     1   108.4600466 328.025600
   3732   3729   3733     1   109.8800469 414.216000
   3733   3734   3743     1   109.8800469 414.216000
   3733   3734   3744     1   109.8800469 414.216000
   3733   3735   3736     1   109.8800469 414.216000
   3733   3735   3738     1   109.8800469 414.216000
   3734   3745   3746     1   109.8000471 387.438400
   3734   3745   3747     1   109.8000471 387.438400
   3735   3737   3739     1   109.8000471 387.438400
   3735   3737   3740     1   109.8000471 387.438400
   3736   3735   3737     1   109.5600471 388.275200
   3736   3735   3738     1   108.4600466 328.025600
   3737   3735   3738     1   109.5600471 388.275200
   3739   3737   3741     1   108.7700466 392.459200
   3739   3737   3740     1   107.5800459 329.699200
   3740   3737   3741     1   108.7700466 392.459200
   3741   3773   3763     1   119.3800509 410.868800
   3743   3734   3745     1   109.5600471 388.275200
   3743   3734   3744     1   108.4600466 328.025600
   3744   3734   3745     1   109.5600471 388.275200
   3746   3745   3748     1   108.7700466 392.459200
   3746   3745   3747     1   107.5800459 329.699200
   3747   3745   3748     1   108.7700466 392.459200
   3748   3797   3787     1   119.3800509 410.868800
   3750   3751   3770     1   109.5600471 388.275200
   3750   3761   3764     1   109.5600471 388.275200
   3750   3761   3765     1   109.5600471 388.275200
   3751   3750   3752     1   109.5600471 388.275200
   3751   3753   3757     1   109.5600471 388.275200
   3751   3771   3772     1   107.2600461 396.643200
   3752   3750   3761     1   109.5600471 388.275200
   3752   3750   3768     1   109.7800468 425.094400
   3753   3751   3770     1   109.5600471 388.275200
   3753   3754   3756     1   109.5600471 388.275200
   3753   3760   3762     1   107.2600461 396.643200
   3754   3753   3757     1   109.5600471 388.275200
   3754   3755   3758     1   110.2200475 386.601600
   3754   3773   3763     1   109.2900470 396.643200
   3755   3754   3756     1   109.5600471 388.275200
   3755   3759   3769     1   107.2600461 396.643200
   3756   3754   3773     1   109.8800469 414.216000
   3757   3753   3760     1   110.2600474 425.931200
   3758   3755   3759     1   109.4300470 427.604800
   3758   3755   3768     1   109.5800467 425.931200
   3761   3766   3767     1   107.2600461 396.643200
   3764   3761   3766     1   110.2600474 425.931200
   3764   3761   3765     1   108.4600466 328.025600
   3765   3761   3766     1   110.2600474 425.931200
   3770   3751   3771     1   110.2600474 425.931200
   3774   3775   3794     1   109.5600471 388.275200
   3774   3785   3788     1   109.5600471 388.275200
   3774   3785   3789     1   109.5600471 388.275200
   3775   3774   3776     1   109.5600471 388.275200
   3775   3777   3781     1   109.5600471 388.275200
   3775   3795   3796     1   107.2600461 396.643200
   3776   3774   3785     1   109.5600471 388.275200
   3776   3774   3792     1   109.7800468 425.094400
   3777   3775   3794     1   109.5600471 388.275200
   3777   3778   3780     1   109.5600471 388.275200
   3777   3784   3786     1   107.2600461 396.643200
   3778   3777   3781     1   109.5600471 388.275200
   3778   3779   3782     1   110.2200475 386.601600
   3778   3797   3787     1   109.2900470 396.643200
   3779   3778   3780     1   109.5600471 388.275200
   3779   3783   3793     1   107.2600461 396.643200
   3780   3778   3797     1   109.8800469 414.216000
   3781   3777   3784     1   110.2600474 425.931200
   3782   3779   3783     1   109.4300470 427.604800
   3782   3779   3792     1   109.5800467 425.931200
   3785   3790   3791     1   107.2600461 396.643200
   3788   3785   3790     1   110.2600474 425.931200
   3788   3785   3789     1   108.4600466 328.025600
   3789   3785   3790     1   110.2600474 425.931200
   3794   3775   3795     1   110.2600474 425.931200
   3798   3800   3801     1   108.8800464 416.726400
   3798   3800   3803     1   108.8800464 416.726400
   3799   3798   3800     1   117.6800502 383.254400
   3800   3802   3804     1   109.5600471 388.275200
   3800   3802   3805     1   109.5600471 388.275200
   3801   3800   3802     1   109.5600471 388.275200
   3801   3800   3803     1   108.4600466 328.025600
   3802   3800   3803     1   109.5600471 388.275200
   3804   3802   3806     1   109.8800469 414.216000
   3804   3802   3805     1   108.4600466 328.025600
   3805   3802   3806     1   109.8800469 414.216000
   3806   3807   3816     1   109.8800469 414.216000
   3806   3807   3817     1   109.8800469 414.216000
   3806   3808   3809     1   109.8800469 414.216000
   3806   3808   3811     1   109.8800469 414.216000
   3807   3818   3819     1   109.8000471 387.438400
   3807   3818   3820     1   109.8000471 387.438400
   3808   3810   3812     1   109.8000471 387.438400
   3808   3810   3813     1   109.8000471 387.438400
   3809   3808   3810     1   109.5600471 388.275200
   3809   3808   3811     1   108.4600466 328.025600
   3810   3808   3811     1   109.5600471 388.275200
   3812   3810   3814     1   108.7700466 392.459200
   3812   3810   3813     1   107.5800459 329.699200
   3813   3810   3814     1   108.7700466 392.459200
   3814   3846   3836     1   119.3800509 410.868800
   3816   3807   3818     1   109.5600471 388.275200
   3816   3807   3817     1   108.4600466 328.025600
   3817   3807   3818     1   109.5600471 388.275200
   3819   3818   3821     1   108.7700466 392.459200
   3819   3818   3820     1   107.5800459 329.699200
   3820   3818   3821     1   108.7700466 392.459200
   3821   3870   3860     1   119.3800509 410.868800
   3823   3824   3843     1   109.5600471 388.275200
   3823   3834   3837     1   109.5600471 388.275200
   3823   3834   3838     1   109.5600471 388.275200
   3824   3826   3830     1   109.5600471 388.275200
   3824   3844   3845     1   107.2600461 396.643200
   3824   3823   3825     1   109.5600471 388.275200
   3825   3823   3834     1   109.5600471 388.275200
   3825   3823   3841     1   109.7800468 425.094400
   3826   3827   3829     1   109.5600471 388.275200
   3826   3833   3835     1   107.2600461 396.643200
   3826   3824   3843     1   109.5600471 388.275200
   3827   3828   3831     1   110.2200475 386.601600
   3827   3846   3836     1   109.2900470 396.643200
   3827   3826   3830     1   109.5600471 388.275200
   3828   3832   3842     1   107.2600461 396.643200
   3828   3827   3829     1   109.5600471 388.275200
   3829   3827   3846     1   109.8800469 414.216000
   3830   3826   3833     1   110.2600474 425.931200
   3831   3828   3832     1   109.4300470 427.604800
   3831   3828   3841     1   109.5800467 425.931200
   3834   3839   3840     1   107.2600461 396.643200
   3837   3834   3839     1   110.2600474 425.931200
   3837   3834   3838     1   108.4600466 328.025600
   3838   3834   3839     1   110.2600474 425.931200
   3843   3824   3844     1   110.2600474 425.931200
   3847   3848   3867     1   109.5600471 388.275200
   3847   3858   3861     1   109.5600471 388.275200
   3847   3858   3862     1   109.5600471 388.275200
   3848   3850   3854     1   109.5600471 388.275200
   3848   3868   3869     1   107.2600461 396.643200
   3848   3847   3849     1   109.5600471 388.275200
   3849   3847   3858     1   109.5600471 388.275200
   3849   3847   3865     1   109.7800468 425.094400
   3850   3851   3853     1   109.5600471 388.275200
   3850   3857   3859     1   107.2600461 396.643200
   3850   3848   3867     1   109.5600471 388.275200
   3851   3852   3855     1   110.2200475 386.601600
   3851   3870   3860     1   109.2900470 396.643200
   3851   3850   3854     1   109.5600471 388.275200
   3852   3856   3866     1   107.2600461 396.643200
   3852   3851   3853     1   109.5600471 388.275200
   3853   3851   3870     1   109.8800469 414.216000
   3854   3850   3857     1   110.2600474 425.931200
   3855   3852   3856     1   109.4300470 427.604800
   3855   3852   3865     1   109.5800467 425.931200
   3858   3863   3864     1   107.2600461 396.643200
   3861   3858   3863     1   110.2600474 425.931200
   3861   3858   3862     1   108.4600466 328.025600
   3862   3858   3863     1   110.2600474 425.931200
   3867   3848   3868     1   110.2600474 425.931200
   3871   3873   3874     1   108.8800464 416.726400
   3871   3873   3876     1   108.8800464 416.726400
   3872   3871   3873     1   117.6800502 383.254400
   3873   3875   3877     1   109.5600471 388.275200
   3873   3875   3878     1   109.5600471 388.275200
   3874   3873   3875     1   109.5600471 388.275200
   3874   3873   3876     1   108.4600466 328.025600
   3875   3873   3876     1   109.5600471 388.275200
   3877   3875   3879     1   109.8800469 414.216000
   3877   3875   3878     1   108.4600466 328.025600
   3878   3875   3879     1   109.8800469 414.216000
   3879   3880   3889     1   109.8800469 414.216000
   3879   3880   3890     1   109.8800469 414.216000
   3879   3881   3882     1   109.8800469 414.216000
   3879   3881   3884     1   109.8800469 414.216000
   3880   3891   3892     1   109.8000471 387.438400
   3880   3891   3893     1   109.8000471 387.438400
   3881   3883   3885     1   109.8000471 387.438400
   3881   3883   3886     1   109.8000471 387.438400
   3882   3881   3883     1   109.5600471 388.275200
   3882   3881   3884     1   108.4600466 328.025600
   3883   3881   3884     1   109.5600471 388.275200
   3885   3883   3887     1   108.7700466 392.459200
   3885   3883   3886     1   107.5800459 329.699200
   3886   3883   3887     1   108.7700466 392.459200
   3887   3919   3909     1   119.3800509 410.868800
   3889   3880   3891     1   109.5600471 388.275200
   3889   3880   3890     1   108.4600466 328.025600
   3890   3880   3891     1   109.5600471 388.275200
   3892   3891   3894     1   108.7700466 392.459200
   3892   3891   3893     1   107.5800459 329.699200
   3893   3891   3894     1   108.7700466 392.459200
   3894   3943   3933     1   119.3800509 410.868800
   3896   3897   3916     1   109.5600471 388.275200
   3896   3907   3910     1   109.5600471 388.275200
   3896   3907   3911     1   109.5600471 388.275200
   3897   3896   3898     1   109.5600471 388.275200
   3897   3899   3903     1   109.5600471 388.275200
   3897   3917   3918     1   107.2600461 396.643200
   3898   3896   3907     1   109.5600471 388.275200
   3898   3896   3914     1   109.7800468 425.094400
   3899   3897   3916     1   109.5600471 388.275200
   3899   3900   3902     1   109.5600471 388.275200
   3899   3906   3908     1   107.2600461 396.643200
   3900   3899   3903     1   109.5600471 388.275200
   3900   3901   3904     1   110.2200475 386.601600
   3900   3919   3909     1   109.2900470 396.643200
   3901   3900   3902     1   109.5600471 388.275200
   3901   3905   3915     1   107.2600461 396.643200
   3902   3900   3919     1   109.8800469 414.216000
   3903   3899   3906     1   110.2600474 425.931200
   3904   3901   3905     1   109.4300470 427.604800
   3904   3901   3914     1   109.5800467 425.931200
   3907   3912   3913     1   107.2600461 396.643200
   3910   3907   3912     1   110.2600474 425.931200
   3910   3907   3911     1   108.4600466 328.025600
   3911   3907   3912     1   110.2600474 425.931200
   3916   3897   3917     1   110.2600474 425.931200
   3920   3921   3940     1   109.5600471 388.275200
   3920   3931   3934     1   109.5600471 388.275200
   3920   3931   3935     1   109.5600471 388.275200
   3921   3920   3922     1   109.5600471 388.275200
   3921   3923   3927     1   109.5600471 388.275200
   3921   3941   3942     1   107.2600461 396.643200
   3922   3920   3931     1   109.5600471 388.275200
   3922   3920   3938     1   109.7800468 425.094400
   3923   3921   3940     1   109.5600471 388.275200
   3923   3924   3926     1   109.5600471 388.275200
   3923   3930   3932     1   107.2600461 396.643200
   3924   3923   3927     1   109.5600471 388.275200
   3924   3925   3928     1   110.2200475 386.601600
   3924   3943   3933     1   109.2900470 396.643200
   3925   3924   3926     1   109.5600471 388.275200
   3925   3929   3939     1   107.2600461 396.643200
   3926   3924   3943     1   109.8800469 414.216000
   3927   3923   3930     1   110.2600474 425.931200
   3928   3925   3929     1   109.4300470 427.604800
   3928   3925   3938     1   109.5800467 425.931200
   3931   3936   3937     1   107.2600461 396.643200
   3934   3931   3936     1   110.2600474 425.931200
   3934   3931   3935     1   108.4600466 328.025600
   3935   3931   3936     1   110.2600474 425.931200
   3940   3921   3941     1   110.2600474 425.931200
   3944   3946   3947     1   108.8800464 416.726400
   3944   3946   3949     1   108.8800464 416.726400
   3945   3944   3946     1   117.6800502 383.254400
   3946   3948   3950     1   109.5600471 388.275200
   3946   3948   3951     1   109.5600471 388.275200
   3947   3946   3948     1   109.5600471 388.275200
   3947   3946   3949     1   108.4600466 328.025600
   3948   3946   3949     1   109.5600471 388.275200
   3950   3948   3952     1   109.8800469 414.216000
   3950   3948   3951     1   108.4600466 328.025600
   3951   3948   3952     1   109.8800469 414.216000
   3952   3953   3962     1   109.8800469 414.216000
   3952   3953   3963     1   109.8800469 414.216000
   3952   3954   3955     1   109.8800469 414.216000
   3952   3954   3957     1   109.8800469 414.216000
   3953   3964   3965     1   109.8000471 387.438400
   3953   3964   3966     1   109.8000471 387.438400
   3954   3956   3958     1   109.8000471 387.438400
   3954   3956   3959     1   109.8000471 387.438400
   3955   3954   3956     1   109.5600471 388.275200
   3955   3954   3957     1   108.4600466 328.025600
   3956   3954   3957     1   109.5600471 388.275200
   3958   3956   3960     1   108.7700466 392.459200
   3958   3956   3959     1   107.5800459 329.699200
   3959   3956   3960     1   108.7700466 392.459200
   3960   3992   3982     1   119.3800509 410.868800
   3962   3953   3964     1   109.5600471 388.275200
   3962   3953   3963     1   108.4600466 328.025600
   3963   3953   3964     1   109.5600471 388.275200
   3965   3964   3967     1   108.7700466 392.459200
   3965   3964   3966     1   107.5800459 329.699200
   3966   3964   3967     1   108.7700466 392.459200
   3967   4016   4006     1   119.3800509 410.868800
   3969   3970   3989     1   109.5600471 388.275200
   3969   3980   3983     1   109.5600471 388.275200
   3969   3980   3984     1   109.5600471 388.275200
   3970   3972   3976     1   109.5600471 388.275200
   3970   3990   3991     1   107.2600461 396.643200
   3970   3969   3971     1   109.5600471 388.275200
   3971   3969   3980     1   109.5600471 388.275200
   3971   3969   3987     1   109.7800468 425.094400
   3972   3973   3975     1   109.5600471 388.275200
   3972   3979   3981     1   107.2600461 396.643200
   3972   3970   3989     1   109.5600471 388.275200
   3973   3974   3977     1   110.2200475 386.601600
   3973   3992   3982     1   109.2900470 396.643200
   3973   3972   3976     1   109.5600471 388.275200
   3974   3978   3988     1   107.2600461 396.643200
   3974   3973   3975     1   109.5600471 388.275200
   3975   3973   3992     1   109.8800469 414.216000
   3976   3972   3979     1   110.2600474 425.931200
   3977   3974   3978     1   109.4300470 427.604800
   3977   3974   3987     1   109.5800467 425.931200
   3980   3985   3986     1   107.2600461 396.643200
   3983   3980   3985     1   110.2600474 425.931200
   3983   3980   3984     1   108.4600466 328.025600
   3984   3980   3985     1   110.2600474 425.931200
   3989   3970   3990     1   110.2600474 425.931200
   3993   3994   4013     1   109.5600471 388.275200
   3993   4004   4007     1   109.5600471 388.275200
   3993   4004   4008     1   109.5600471 388.275200
   3994   3996   4000     1   109.5600471 388.275200
   3994   4014   4015     1   107.2600461 396.643200
   3994   3993   3995     1   109.5600471 388.275200
   3995   3993   4004     1   109.5600471 388.275200
   3995   3993   4011     1   109.7800468 425.094400
   3996   3997   3999     1   109.5600471 388.275200
   3996   4003   4005     1   107.2600461 396.643200
   3996   3994   4013     1   109.5600471 388.275200
   3997   3998   4001     1   110.2200475 386.601600
   3997   4016   4006     1   109.2900470 396.643200
   3997   3996   4000     1   109.5600471 388.275200
   3998   4002   4012     1   107.2600461 396.643200
   3998   3997   3999     1   109.5600471 388.275200
   3999   3997   4016     1   109.8800469 414.216000
   4000   3996   4003     1   110.2600474 425.931200
   4001   3998   4002     1   109.4300470 427.604800
   4001   3998   4011     1   109.5800467 425.931200
   4004   4009   4010     1   107.2600461 396.643200
   4007   4004   4009     1   110.2600474 425.931200
   4007   4004   4008     1   108.4600466 328.025600
   4008   4004   4009     1   110.2600474 425.931200
   4013   3994   4014     1   110.2600474 425.931200
   4017   4019   4020     1   108.8800464 416.726400
   4017   4019   4022     1   108.8800464 416.726400
   4018   4017   4019     1   117.6800502 383.254400
   4019   4021   4023     1   109.5600471 388.275200
   4019   4021   4024     1   109.5600471 388.275200
   4020   4019   4021     1   109.5600471 388.275200
   4020   4019   4022     1   108.4600466 328.025600
   4021   4019   4022     1   109.5600471 388.275200
   4023   4021   4025     1   109.8800469 414.216000
   4023   4021   4024     1   108.4600466 328.025600
   4024   4021   4025     1   109.8800469 414.216000
   4025   4026   4035     1   109.8800469 414.216000
   4025   4026   4036     1   109.8800469 414.216000
   4025   4027   4028     1   109.8800469 414.216000
   4025   4027   4030     1   109.8800469 414.216000
   4026   4037   4038     1   109.8000471 387.438400
   4026   4037   4039     1   109.8000471 387.438400
   4027   4029   4031     1   109.8000471 387.438400
   4027   4029   4032     1   109.8000471 387.438400
   4028   4027   4029     1   109.5600471 388.275200
   4028   4027   4030     1   108.4600466 328.025600
   4029   4027   4030     1   109.5600471 388.275200
   4031   4029   4033     1   108.7700466 392.459200
   4031   4029   4032     1   107.5800459 329.699200
   4032   4029   4033     1   108.7700466 392.459200
   4033   4065   4055     1   119.3800509 410.868800
   4035   4026   4037     1   109.5600471 388.275200
   4035   4026   4036     1   108.4600466 328.025600
   4036   4026   4037     1   109.5600471 388.275200
   4038   4037   4040     1   108.7700466 392.459200
   4038   4037   4039     1   107.5800459 329.699200
   4039   4037   4040     1   108.7700466 392.459200
   4040   4089   4079     1   119.3800509 410.868800
   4042   4043   4062     1   109.5600471 388.275200
   4042   4053   4056     1   109.5600471 388.275200
   4042   4053   4057     1   109.5600471 388.275200
   4043   4042   4044     1   109.5600471 388.275200
   4043   4045   4049     1   109.5600471 388.275200
   4043   4063   4064     1   107.2600461 396.643200
   4044   4042   4053     1   109.5600471 388.275200
   4044   4042   4060     1   109.7800468 425.094400
   4045   4043   4062     1   109.5600471 388.275200
   4045   4046   4048     1   109.5600471 388.275200
   4045   4052   4054     1   107.2600461 396.643200
   4046   4045   4049     1   109.5600471 388.275200
   4046   4047   4050     1   110.2200475 386.601600
   4046   4065   4055     1   109.2900470 396.643200
   4047   4046   4048     1   109.5600471 388.275200
   4047   4051   4061     1   107.2600461 396.643200
   4048   4046   4065     1   109.8800469 414.216000
   4049   4045   4052     1   110.2600474 425.931200
   4050   4047   4051     1   109.4300470 427.604800
   4050   4047   4060     1   109.5800467 425.931200
   4053   4058   4059     1   107.2600461 396.643200
   4056   4053   4058     1   110.2600474 425.931200
   4056   4053   4057     1   108.4600466 328.025600
   4057   4053   4058     1   110.2600474 425.931200
   4062   4043   4063     1   110.2600474 425.931200
   4066   4067   4086     1   109.5600471 388.275200
   4066   4077   4080     1   109.5600471 388.275200
   4066   4077   4081     1   109.5600471 388.275200
   4067   4066   4068     1   109.5600471 388.275200
   4067   4069   4073     1   109.5600471 388.275200
   4067   4087   4088     1   107.2600461 396.643200
   4068   4066   4077     1   109.5600471 388.275200
   4068   4066   4084     1   109.7800468 425.094400
   4069   4067   4086     1   109.5600471 388.275200
   4069   4070   4072     1   109.5600471 388.275200
   4069   4076   4078     1   107.2600461 396.643200
   4070   4069   4073     1   109.5600471 388.275200
   4070   4071   4074     1   110.2200475 386.601600
   4070   4089   4079     1   109.2900470 396.643200
   4071   4070   4072     1   109.5600471 388.275200
   4071   4075   4085     1   107.2600461 396.643200
   4072   4070   4089     1   109.8800469 414.216000
   4073   4069   4076     1   110.2600474 425.931200
   4074   4071   4075     1   109.4300470 427.604800
   4074   4071   4084     1   109.5800467 425.931200
   4077   4082   4083     1   107.2600461 396.643200
   4080   4077   4082     1   110.2600474 425.931200
   4080   4077   4081     1   108.4600466 328.025600
   4081   4077   4082     1   110.2600474 425.931200
   4086   4067   4087     1   110.2600474 425.931200
   4090   4092   4093     1   108.8800464 416.726400
   4090   4092   4095     1   108.8800464 416.726400
   4091   4090   4092     1   117.6800502 383.254400
   4092   4094   4096     1   109.5600471 388.275200
   4092   4094   4097     1   109.5600471 388.275200
   4093   4092   4094     1   109.5600471 388.275200
   4093   4092   4095     1   108.4600466 328.025600
   4094   4092   4095     1   109.5600471 388.275200
   4096   4094   4098     1   109.8800469 414.216000
   4096   4094   4097     1   108.4600466 328.025600
   4097   4094   4098     1   109.8800469 414.216000
   4098   4099   4108     1   109.8800469 414.216000
   4098   4099   4109     1   109.8800469 414.216000
   4098   4100   4101     1   109.8800469 414.216000
   4098   4100   4103     1   109.8800469 414.216000
   4099   4110   4111     1   109.8000471 387.438400
   4099   4110   4112     1   109.8000471 387.438400
   4100   4102   4104     1   109.8000471 387.438400
   4100   4102   4105     1   109.8000471 387.438400
   4101   4100   4102     1   109.5600471 388.275200
   4101   4100   4103     1   108.4600466 328.025600
   4102   4100   4103     1   109.5600471 388.275200
   4104   4102   4106     1   108.7700466 392.459200
   4104   4102   4105     1   107.5800459 329.699200
   4105   4102   4106     1   108.7700466 392.459200
   4106   4138   4128     1   119.3800509 410.868800
   4108   4099   4110     1   109.5600471 388.275200
   4108   4099   4109     1   108.4600466 328.025600
   4109   4099   4110     1   109.5600471 388.275200
   4111   4110   4113     1   108.7700466 392.459200
   4111   4110   4112     1   107.5800459 329.699200
   4112   4110   4113     1   108.7700466 392.459200
   4113   4162   4152     1   119.3800509 410.868800
   4115   4116   4135     1   109.5600471 388.275200
   4115   4126   4129     1   109.5600471 388.275200
   4115   4126   4130     1   109.5600471 388.275200
   4116   4118   4122     1   109.5600471 388.275200
   4116   4136   4137     1   107.2600461 396.643200
   4116   4115   4117     1   109.5600471 388.275200
   4117   4115   4126     1   109.5600471 388.275200
   4117   4115   4133     1   109.7800468 425.094400
   4118   4119   4121     1   109.5600471 388.275200
   4118   4125   4127     1   107.2600461 396.643200
   4118   4116   4135     1   109.5600471 388.275200
   4119   4120   4123     1   110.2200475 386.601600
   4119   4138   4128     1   109.2900470 396.643200
   4119   4118   4122     1   109.5600471 388.275200
   4120   4124   4134     1   107.2600461 396.643200
   4120   4119   4121     1   109.5600471 388.275200
   4121   4119   4138     1   109.8800469 414.216000
   4122   4118   4125     1   110.2600474 425.931200
   4123   4120   4124     1   109.4300470 427.604800
   4123   4120   4133     1   109.5800467 425.931200
   4126   4131   4132     1   107.2600461 396.643200
   4129   4126   4131     1   110.2600474 425.931200
   4129   4126   4130     1   108.4600466 328.025600
   4130   4126   4131     1   110.2600474 425.931200
   4135   4116   4136     1   110.2600474 425.931200
   4139   4140   4159     1   109.5600471 388.275200
   4139   4150   4153     1   109.5600471 388.275200
   4139   4150   4154     1   109.5600471 388.275200
   4140   4142   4146     1   109.5600471 388.275200
   4140   4160   4161     1   107.2600461 396.643200
   4140   4139   4141     1   109.5600471 388.275200
   4141   4139   4150     1   109.5600471 388.275200
   4141   4139   4157     1   109.7800468 425.094400
   4142   4143   4145     1   109.5600471 388.275200
   4142   4149   4151     1   107.2600461 396.643200
   4142   4140   4159     1   109.5600471 388.275200
   4143   4144   4147     1   110.2200475 386.601600
   4143   4162   4152     1   109.2900470 396.643200
   4143   4142   4146     1   109.5600471 388.275200
   4144   4148   4158     1   107.2600461 396.643200
   4144   4143   4145     1   109.5600471 388.275200
   4145   4143   4162     1   109.8800469 414.216000
   4146   4142   4149     1   110.2600474 425.931200
   4147   4144   4148     1   109.4300470 427.604800
   4147   4144   4157     1   109.5800467 425.931200
   4150   4155   4156     1   107.2600461 396.643200
   4153   4150   4155     1   110.2600474 425.931200
   4153   4150   4154     1   108.4600466 328.025600
   4154   4150   4155     1   110.2600474 425.931200
   4159   4140   4160     1   110.2600474 425.931200
   4163   4165   4166     1   108.8800464 416.726400
   4163   4165   4168     1   108.8800464 416.726400
   4164   4163   4165     1   117.6800502 383.254400
   4165   4167   4169     1   109.5600471 388.275200
   4165   4167   4170     1   109.5600471 388.275200
   4166   4165   4167     1   109.5600471 388.275200
   4166   4165   4168     1   108.4600466 328.025600
   4167   4165   4168     1   109.5600471 388.275200
   4169   4167   4171     1   109.8800469 414.216000
   4169   4167   4170     1   108.4600466 328.025600
   4170   4167   4171     1   109.8800469 414.216000
   4171   4172   4181     1   109.8800469 414.216000
   4171   4172   4182     1   109.8800469 414.216000
   4171   4173   4174     1   109.8800469 414.216000
   4171   4173   4176     1   109.8800469 414.216000
   4172   4183   4184     1   109.8000471 387.438400
   4172   4183   4185     1   109.8000471 387.438400
   4173   4175   4177     1   109.8000471 387.438400
   4173   4175   4178     1   109.8000471 387.438400
   4174   4173   4175     1   109.5600471 388.275200
   4174   4173   4176     1   108.4600466 328.025600
   4175   4173   4176     1   109.5600471 388.275200
   4177   4175   4179     1   108.7700466 392.459200
   4177   4175   4178     1   107.5800459 329.699200
   4178   4175   4179     1   108.7700466 392.459200
   4179   4211   4201     1   119.3800509 410.868800
   4181   4172   4183     1   109.5600471 388.275200
   4181   4172   4182     1   108.4600466 328.025600
   4182   4172   4183     1   109.5600471 388.275200
   4184   4183   4186     1   108.7700466 392.459200
   4184   4183   4185     1   107.5800459 329.699200
   4185   4183   4186     1   108.7700466 392.459200
   4186   4235   4225     1   119.3800509 410.868800
   4188   4189   4208     1   109.5600471 388.275200
   4188   4199   4202     1   109.5600471 388.275200
   4188   4199   4203     1   109.5600471 388.275200
   4189   4188   4190     1   109.5600471 388.275200
   4189   4191   4195     1   109.5600471 388.275200
   4189   4209   4210     1   107.2600461 396.643200
   4190   4188   4199     1   109.5600471 388.275200
   4190   4188   4206     1   109.7800468 425.094400
   4191   4189   4208     1   109.5600471 388.275200
   4191   4192   4194     1   109.5600471 388.275200
   4191   4198   4200     1   107.2600461 396.643200
   4192   4191   4195     1   109.5600471 388.275200
   4192   4193   4196     1   110.2200475 386.601600
   4192   4211   4201     1   109.2900470 396.643200
   4193   4192   4194     1   109.5600471 388.275200
   4193   4197   4207     1   107.2600461 396.643200
   4194   4192   4211     1   109.8800469 414.216000
   4195   4191   4198     1   110.2600474 425.931200
   4196   4193   4197     1   109.4300470 427.604800
   4196   4193   4206     1   109.5800467 425.931200
   4199   4204   4205     1   107.2600461 396.643200
   4202   4199   4204     1   110.2600474 425.931200
   4202   4199   4203     1   108.4600466 328.025600
   4203   4199   4204     1   110.2600474 425.931200
   4208   4189   4209     1   110.2600474 425.931200
   4212   4213   4232     1   109.5600471 388.275200
   4212   4223   4226     1   109.5600471 388.275200
   4212   4223   4227     1   109.5600471 388.275200
   4213   4212   4214     1   109.5600471 388.275200
   4213   4215   4219     1   109.5600471 388.275200
   4213   4233   4234     1   107.2600461 396.643200
   4214   4212   4223     1   109.5600471 388.275200
   4214   4212   4230     1   109.7800468 425.094400
   4215   4213   4232     1   109.5600471 388.275200
   4215   4216   4218     1   109.5600471 388.275200
   4215   4222   4224     1   107.2600461 396.643200
   4216   4215   4219     1   109.5600471 388.275200
   4216   4217   4220     1   110.2200475 386.601600
   4216   4235   4225     1   109.2900470 396.643200
   4217   4216   4218     1   109.5600471 388.275200
   4217   4221   4231     1   107.2600461 396.643200
   4218   4216   4235     1   109.8800469 414.216000
   4219   4215   4222     1   110.2600474 425.931200
   4220   4217   4221     1   109.4300470 427.604800
   4220   4217   4230     1   109.5800467 425.931200
   4223   4228   4229     1   107.2600461 396.643200
   4226   4223   4228     1   110.2600474 425.931200
   4226   4223   4227     1   108.4600466 328.025600
   4227   4223   4228     1   110.2600474 425.931200
   4232   4213   4233     1   110.2600474 425.931200
   4236   4238   4239     1   108.8800464 416.726400
   4236   4238   4241     1   108.8800464 416.726400
   4237   4236   4238     1   117.6800502 383.254400
   4238   4240   4242     1   109.5600471 388.275200
   4238   4240   4243     1   109.5600471 388.275200
   4239   4238   4240     1   109.5600471 388.275200
   4239   4238   4241     1   108.4600466 328.025600
   4240   4238   4241     1   109.5600471 388.275200
   4242   4240   4244     1   109.8800469 414.216000
   4242   4240   4243     1   108.4600466 328.025600
   4243   4240   4244     1   109.8800469 414.216000
   4244   4245   4254     1   109.8800469 414.216000
   4244   4245   4255     1   109.8800469 414.216000
   4244   4246   4247     1   109.8800469 414.216000
   4244   4246   4249     1   109.8800469 414.216000
   4245   4256   4257     1   109.8000471 387.438400
   4245   4256   4258     1   109.8000471 387.438400
   4246   4248   4250     1   109.8000471 387.438400
   4246   4248   4251     1   109.8000471 387.438400
   4247   4246   4248     1   109.5600471 388.275200
   4247   4246   4249     1   108.4600466 328.025600
   4248   4246   4249     1   109.5600471 388.275200
   4250   4248   4252     1   108.7700466 392.459200
   4250   4248   4251     1   107.5800459 329.699200
   4251   4248   4252     1   108.7700466 392.459200
   4252   4284   4274     1   119.3800509 410.868800
   4254   4245   4256     1   109.5600471 388.275200
   4254   4245   4255     1   108.4600466 328.025600
   4255   4245   4256     1   109.5600471 388.275200
   4257   4256   4259     1   108.7700466 392.459200
   4257   4256   4258     1   107.5800459 329.699200
   4258   4256   4259     1   108.7700466 392.459200
   4259   4308   4298     1   119.3800509 410.868800
   4261   4262   4281     1   109.5600471 388.275200
   4261   4272   4275     1   109.5600471 388.275200
   4261   4272   4276     1   109.5600471 388.275200
   4262   4264   4268     1   109.5600471 388.275200
   4262   4282   4283     1   107.2600461 396.643200
   4262   4261   4263     1   109.5600471 388.275200
   4263   4261   4272     1   109.5600471 388.275200
   4263   4261   4279     1   109.7800468 425.094400
   4264   4265   4267     1   109.5600471 388.275200
   4264   4271   4273     1   107.2600461 396.643200
   4264   4262   4281     1   109.5600471 388.275200
   4265   4266   4269     1   110.2200475 386.601600
   4265   4284   4274     1   109.2900470 396.643200
   4265   4264   4268     1   109.5600471 388.275200
   4266   4270   4280     1   107.2600461 396.643200
   4266   4265   4267     1   109.5600471 388.275200
   4267   4265   4284     1   109.8800469 414.216000
   4268   4264   4271     1   110.2600474 425.931200
   4269   4266   4270     1   109.4300470 427.604800
   4269   4266   4279     1   109.5800467 425.931200
   4272   4277   4278     1   107.2600461 396.643200
   4275   4272   4277     1   110.2600474 425.931200
   4275   4272   4276     1   108.4600466 328.025600
   4276   4272   4277     1   110.2600474 425.931200
   4281   4262   4282     1   110.2600474 425.931200
   4285   4286   4305     1   109.5600471 388.275200
   4285   4296   4299     1   109.5600471 388.275200
   4285   4296   4300     1   109.5600471 388.275200
   4286   4288   4292     1   109.5600471 388.275200
   4286   4306   4307     1   107.2600461 396.643200
   4286   4285   4287     1   109.5600471 388.275200
   4287   4285   4296     1   109.5600471 388.275200
   4287   4285   4303     1   109.7800468 425.094400
   4288   4289   4291     1   109.5600471 388.275200
   4288   4295   4297     1   107.2600461 396.643200
   4288   4286   4305     1   109.5600471 388.275200
   4289   4290   4293     1   110.2200475 386.601600
   4289   4308   4298     1   109.2900470 396.643200
   4289   4288   4292     1   109.5600471 388.275200
   4290   4294   4304     1   107.2600461 396.643200
   4290   4289   4291     1   109.5600471 388.275200
   4291   4289   4308     1   109.8800469 414.216000
   4292   4288   4295     1   110.2600474 425.931200
   4293   4290   4294     1   109.4300470 427.604800
   4293   4290   4303     1   109.5800467 425.931200
   4296   4301   4302     1   107.2600461 396.643200
   4299   4296   4301     1   110.2600474 425.931200
   4299   4296   4300     1   108.4600466 328.025600
   4300   4296   4301     1   110.2600474 425.931200
   4305   4286   4306     1   110.2600474 425.931200
   4309   4311   4312     1   108.8800464 416.726400
   4309   4311   4314     1   108.8800464 416.726400
   4310   4309   4311     1   117.6800502 383.254400
   4311   4313   4315     1   109.5600471 388.275200
   4311   4313   4316     1   109.5600471 388.275200
   4312   4311   4313     1   109.5600471 388.275200
   4312   4311   4314     1   108.4600466 328.025600
   4313   4311   4314     1   109.5600471 388.275200
   4315   4313   4317     1   109.8800469 414.216000
   4315   4313   4316     1   108.4600466 328.025600
   4316   4313   4317     1   109.8800469 414.216000
   4317   4318   4327     1   109.8800469 414.216000
   4317   4318   4328     1   109.8800469 414.216000
   4317   4319   4320     1   109.8800469 414.216000
   4317   4319   4322     1   109.8800469 414.216000
   4318   4329   4330     1   109.8000471 387.438400
   4318   4329   4331     1   109.8000471 387.438400
   4319   4321   4323     1   109.8000471 387.438400
   4319   4321   4324     1   109.8000471 387.438400
   4320   4319   4321     1   109.5600471 388.275200
   4320   4319   4322     1   108.4600466 328.025600
   4321   4319   4322     1   109.5600471 388.275200
   4323   4321   4325     1   108.7700466 392.459200
   4323   4321   4324     1   107.5800459 329.699200
   4324   4321   4325     1   108.7700466 392.459200
   4325   4357   4347     1   119.3800509 410.868800
   4327   4318   4329     1   109.5600471 388.275200
   4327   4318   4328     1   108.4600466 328.025600
   4328   4318   4329     1   109.5600471 388.275200
   4330   4329   4332     1   108.7700466 392.459200
   4330   4329   4331     1   107.5800459 329.699200
   4331   4329   4332     1   108.7700466 392.459200
   4332   4381   4371     1   119.3800509 410.868800
   4334   4335   4354     1   109.5600471 388.275200
   4334   4345   4348     1   109.5600471 388.275200
   4334   4345   4349     1   109.5600471 388.275200
   4335   4334   4336     1   109.5600471 388.275200
   4335   4337   4341     1   109.5600471 388.275200
   4335   4355   4356     1   107.2600461 396.643200
   4336   4334   4345     1   109.5600471 388.275200
   4336   4334   4352     1   109.7800468 425.094400
   4337   4335   4354     1   109.5600471 388.275200
   4337   4338   4340     1   109.5600471 388.275200
   4337   4344   4346     1   107.2600461 396.643200
   4338   4337   4341     1   109.5600471 388.275200
   4338   4339   4342     1   110.2200475 386.601600
   4338   4357   4347     1   109.2900470 396.643200
   4339   4338   4340     1   109.5600471 388.275200
   4339   4343   4353     1   107.2600461 396.643200
   4340   4338   4357     1   109.8800469 414.216000
   4341   4337   4344     1   110.2600474 425.931200
   4342   4339   4343     1   109.4300470 427.604800
   4342   4339   4352     1   109.5800467 425.931200
   4345   4350   4351     1   107.2600461 396.643200
   4348   4345   4350     1   110.2600474 425.931200
   4348   4345   4349     1   108.4600466 328.025600
   4349   4345   4350     1   110.2600474 425.931200
   4354   4335   4355     1   110.2600474 425.931200
   4358   4359   4378     1   109.5600471 388.275200
   4358   4369   4372     1   109.5600471 388.275200
   4358   4369   4373     1   109.5600471 388.275200
   4359   4358   4360     1   109.5600471 388.275200
   4359   4361   4365     1   109.5600471 388.275200
   4359   4379   4380     1   107.2600461 396.643200
   4360   4358   4369     1   109.5600471 388.275200
   4360   4358   4376     1   109.7800468 425.094400
   4361   4359   4378     1   109.5600471 388.275200
   4361   4362   4364     1   109.5600471 388.275200
   4361   4368   4370     1   107.2600461 396.643200
   4362   4361   4365     1   109.5600471 388.275200
   4362   4363   4366     1   110.2200475 386.601600
   4362   4381   4371     1   109.2900470 396.643200
   4363   4362   4364     1   109.5600471 388.275200
   4363   4367   4377     1   107.2600461 396.643200
   4364   4362   4381     1   109.8800469 414.216000
   4365   4361   4368     1   110.2600474 425.931200
   4366   4363   4367     1   109.4300470 427.604800
   4366   4363   4376     1   109.5800467 425.931200
   4369   4374   4375     1   107.2600461 396.643200
   4372   4369   4374     1   110.2600474 425.931200
   4372   4369   4373     1   108.4600466 328.025600
   4373   4369   4374     1   110.2600474 425.931200
   4378   4359   4379     1   110.2600474 425.931200
   4382   4384   4385     1   108.8800464 416.726400
   4382   4384   4387     1   108.8800464 416.726400
   4383   4382   4384     1   117.6800502 383.254400
   4384   4386   4388     1   109.5600471 388.275200
   4384   4386   4389     1   109.5600471 388.275200
   4385   4384   4386     1   109.5600471 388.275200
   4385   4384   4387     1   108.4600466 328.025600
   4386   4384   4387     1   109.5600471 388.275200
   4388   4386   4390     1   109.8800469 414.216000
   4388   4386   4389     1   108.4600466 328.025600
   4389   4386   4390     1   109.8800469 414.216000
   4390   4391   4400     1   109.8800469 414.216000
   4390   4391   4401     1   109.8800469 414.216000
   4390   4392   4393     1   109.8800469 414.216000
   4390   4392   4395     1   109.8800469 414.216000
   4391   4402   4403     1   109.8000471 387.438400
   4391   4402   4404     1   109.8000471 387.438400
   4392   4394   4396     1   109.8000471 387.438400
   4392   4394   4397     1   109.8000471 387.438400
   4393   4392   4394     1   109.5600471 388.275200
   4393   4392   4395     1   108.4600466 328.025600
   4394   4392   4395     1   109.5600471 388.275200
   4396   4394   4398     1   108.7700466 392.459200
   4396   4394   4397     1   107.5800459 329.699200
   4397   4394   4398     1   108.7700466 392.459200
   4398   4430   4420     1   119.3800509 410.868800
   4400   4391   4402     1   109.5600471 388.275200
   4400   4391   4401     1   108.4600466 328.025600
   4401   4391   4402     1   109.5600471 388.275200
   4403   4402   4405     1   108.7700466 392.459200
   4403   4402   4404     1   107.5800459 329.699200
   4404   4402   4405     1   108.7700466 392.459200
   4405   4454   4444     1   119.3800509 410.868800
   4407   4408   4427     1   109.5600471 388.275200
   4407   4418   4421     1   109.5600471 388.275200
   4407   4418   4422     1   109.5600471 388.275200
   4408   4410   4414     1   109.5600471 388.275200
   4408   4428   4429     1   107.2600461 396.643200
   4408   4407   4409     1   109.5600471 388.275200
   4409   4407   4418     1   109.5600471 388.275200
   4409   4407   4425     1   109.7800468 425.094400
   4410   4411   4413     1   109.5600471 388.275200
   4410   4417   4419     1   107.2600461 396.643200
   4410   4408   4427     1   109.5600471 388.275200
   4411   4412   4415     1   110.2200475 386.601600
   4411   4430   4420     1   109.2900470 396.643200
   4411   4410   4414     1   109.5600471 388.275200
   4412   4416   4426     1   107.2600461 396.643200
   4412   4411   4413     1   109.5600471 388.275200
   4413   4411   4430     1   109.8800469 414.216000
   4414   4410   4417     1   110.2600474 425.931200
   4415   4412   4416     1   109.4300470 427.604800
   4415   4412   4425     1   109.5800467 425.931200
   4418   4423   4424     1   107.2600461 396.643200
   4421   4418   4423     1   110.2600474 425.931200
   4421   4418   4422     1   108.4600466 328.025600
   4422   4418   4423     1   110.2600474 425.931200
   4427   4408   4428     1   110.2600474 425.931200
   4431   4432   4451     1   109.5600471 388.275200
   4431   4442   4445     1   109.5600471 388.275200
   4431   4442   4446     1   109.5600471 388.275200
   4432   4434   4438     1   109.5600471 388.275200
   4432   4452   4453     1   107.2600461 396.643200
   4432   4431   4433     1   109.5600471 388.275200
   4433   4431   4442     1   109.5600471 388.275200
   4433   4431   4449     1   109.7800468 425.094400
   4434   4435   4437     1   109.5600471 388.275200
   4434   4441   4443     1   107.2600461 396.643200
   4434   4432   4451     1   109.5600471 388.275200
   4435   4436   4439     1   110.2200475 386.601600
   4435   4454   4444     1   109.2900470 396.643200
   4435   4434   4438     1   109.5600471 388.275200
   4436   4440   4450     1   107.2600461 396.643200
   4436   4435   4437     1   109.5600471 388.275200
   4437   4435   4454     1   109.8800469 414.216000
   4438   4434   4441     1   110.2600474 425.931200
   4439   4436   4440     1   109.4300470 427.604800
   4439   4436   4449     1   109.5800467 425.931200
   4442   4447   4448     1   107.2600461 396.643200
   4445   4442   4447     1   110.2600474 425.931200
   4445   4442   4446     1   108.4600466 328.025600
   4446   4442   4447     1   110.2600474 425.931200
   4451   4432   4452     1   110.2600474 425.931200
   4455   4457   4458     1   108.8800464 416.726400
   4455   4457   4460     1   108.8800464 416.726400
   4456   4455   4457     1   117.6800502 383.254400
   4457   4459   4461     1   109.5600471 388.275200
   4457   4459   4462     1   109.5600471 388.275200
   4458   4457   4459     1   109.5600471 388.275200
   4458   4457   4460     1   108.4600466 328.025600
   4459   4457   4460     1   109.5600471 388.275200
   4461   4459   4463     1   109.8800469 414.216000
   4461   4459   4462     1   108.4600466 328.025600
   4462   4459   4463     1   109.8800469 414.216000
   4463   4464   4473     1   109.8800469 414.216000
   4463   4464   4474     1   109.8800469 414.216000
   4463   4465   4466     1   109.8800469 414.216000
   4463   4465   4468     1   109.8800469 414.216000
   4464   4475   4476     1   109.8000471 387.438400
   4464   4475   4477     1   109.8000471 387.438400
   4465   4467   4469     1   109.8000471 387.438400
   4465   4467   4470     1   109.8000471 387.438400
   4466   4465   4467     1   109.5600471 388.275200
   4466   4465   4468     1   108.4600466 328.025600
   4467   4465   4468     1   109.5600471 388.275200
   4469   4467   4471     1   108.7700466 392.459200
   4469   4467   4470     1   107.5800459 329.699200
   4470   4467   4471     1   108.7700466 392.459200
   4471   4503   4493     1   119.3800509 410.868800
   4473   4464   4475     1   109.5600471 388.275200
   4473   4464   4474     1   108.4600466 328.025600
   4474   4464   4475     1   109.5600471 388.275200
   4476   4475   4478     1   108.7700466 392.459200
   4476   4475   4477     1   107.5800459 329.699200
   4477   4475   4478     1   108.7700466 392.459200
   4478   4527   4517     1   119.3800509 410.868800
   4480   4481   4500     1   109.5600471 388.275200
   4480   4491   4494     1   109.5600471 388.275200
   4480   4491   4495     1   109.5600471 388.275200
   4481   4480   4482     1   109.5600471 388.275200
   4481   4483   4487     1   109.5600471 388.275200
   4481   4501   4502     1   107.2600461 396.643200
   4482   4480   4491     1   109.5600471 388.275200
   4482   4480   4498     1   109.7800468 425.094400
   4483   4481   4500     1   109.5600471 388.275200
   4483   4484   4486     1   109.5600471 388.275200
   4483   4490   4492     1   107.2600461 396.643200
   4484   4483   4487     1   109.5600471 388.275200
   4484   4485   4488     1   110.2200475 386.601600
   4484   4503   4493     1   109.2900470 396.643200
   4485   4484   4486     1   109.5600471 388.275200
   4485   4489   4499     1   107.2600461 396.643200
   4486   4484   4503     1   109.8800469 414.216000
   4487   4483   4490     1   110.2600474 425.931200
   4488   4485   4489     1   109.4300470 427.604800
   4488   4485   4498     1   109.5800467 425.931200
   4491   4496   4497     1   107.2600461 396.643200
   4494   4491   4496     1   110.2600474 425.931200
   4494   4491   4495     1   108.4600466 328.025600
   4495   4491   4496     1   110.2600474 425.931200
   4500   4481   4501     1   110.2600474 425.931200
   4504   4505   4524     1   109.5600471 388.275200
   4504   4515   4518     1   109.5600471 388.275200
   4504   4515   4519     1   109.5600471 388.275200
   4505   4504   4506     1   109.5600471 388.275200
   4505   4507   4511     1   109.5600471 388.275200
   4505   4525   4526     1   107.2600461 396.643200
   4506   4504   4515     1   109.5600471 388.275200
   4506   4504   4522     1   109.7800468 425.094400
   4507   4505   4524     1   109.5600471 388.275200
   4507   4508   4510     1   109.5600471 388.275200
   4507   4514   4516     1   107.2600461 396.643200
   4508   4507   4511     1   109.5600471 388.275200
   4508   4509   4512     1   110.2200475 386.601600
   4508   4527   4517     1   109.2900470 396.643200
   4509   4508   4510     1   109.5600471 388.275200
   4509   4513   4523     1   107.2600461 396.643200
   4510   4508   4527     1   109.8800469 414.216000
   4511   4507   4514     1   110.2600474 425.931200
   4512   4509   4513     1   109.4300470 427.604800
   4512   4509   4522     1   109.5800467 425.931200
   4515   4520   4521     1   107.2600461 396.643200
   4518   4515   4520     1   110.2600474 425.931200
   4518   4515   4519     1   108.4600466 328.025600
   4519   4515   4520     1   110.2600474 425.931200
   4524   4505   4525     1   110.2600474 425.931200
   4528   4530   4531     1   108.8800464 416.726400
   4528   4530   4533     1   108.8800464 416.726400
   4529   4528   4530     1   117.6800502 383.254400
   4530   4532   4534     1   109.5600471 388.275200
   4530   4532   4535     1   109.5600471 388.275200
   4531   4530   4532     1   109.5600471 388.275200
   4531   4530   4533     1   108.4600466 328.025600
   4532   4530   4533     1   109.5600471 388.275200
   4534   4532   4536     1   109.8800469 414.216000
   4534   4532   4535     1   108.4600466 328.025600
   4535   4532   4536     1   109.8800469 414.216000
   4536   4537   4546     1   109.8800469 414.216000
   4536   4537   4547     1   109.8800469 414.216000
   4536   4538   4539     1   109.8800469 414.216000
   4536   4538   4541     1   109.8800469 414.216000
   4537   4548   4549     1   109.8000471 387.438400
   4537   4548   4550     1   109.8000471 387.438400
   4538   4540   4542     1   109.8000471 387.438400
   4538   4540   4543     1   109.8000471 387.438400
   4539   4538   4540     1   109.5600471 388.275200
   4539   4538   4541     1   108.4600466 328.025600
   4540   4538   4541     1   109.5600471 388.275200
   4542   4540   4544     1   108.7700466 392.459200
   4542   4540   4543     1   107.5800459 329.699200
   4543   4540   4544     1   108.7700466 392.459200
   4544   4576   4566     1   119.3800509 410.868800
   4546   4537   4548     1   109.5600471 388.275200
   4546   4537   4547     1   108.4600466 328.025600
   4547   4537   4548     1   109.5600471 388.275200
   4549   4548   4551     1   108.7700466 392.459200
   4549   4548   4550     1   107.5800459 329.699200
   4550   4548   4551     1   108.7700466 392.459200
   4551   4600   4590     1   119.3800509 410.868800
   4553   4554   4573     1   109.5600471 388.275200
   4553   4564   4567     1   109.5600471 388.275200
   4553   4564   4568     1   109.5600471 388.275200
   4554   4556   4560     1   109.5600471 388.275200
   4554   4574   4575     1   107.2600461 396.643200
   4554   4553   4555     1   109.5600471 388.275200
   4555   4553   4564     1   109.5600471 388.275200
   4555   4553   4571     1   109.7800468 425.094400
   4556   4557   4559     1   109.5600471 388.275200
   4556   4563   4565     1   107.2600461 396.643200
   4556   4554   4573     1   109.5600471 388.275200
   4557   4558   4561     1   110.2200475 386.601600
   4557   4576   4566     1   109.2900470 396.643200
   4557   4556   4560     1   109.5600471 388.275200
   4558   4562   4572     1   107.2600461 396.643200
   4558   4557   4559     1   109.5600471 388.275200
   4559   4557   4576     1   109.8800469 414.216000
   4560   4556   4563     1   110.2600474 425.931200
   4561   4558   4562     1   109.4300470 427.604800
   4561   4558   4571     1   109.5800467 425.931200
   4564   4569   4570     1   107.2600461 396.643200
   4567   4564   4569     1   110.2600474 425.931200
   4567   4564   4568     1   108.4600466 328.025600
   4568   4564   4569     1   110.2600474 425.931200
   4573   4554   4574     1   110.2600474 425.931200
   4577   4578   4597     1   109.5600471 388.275200
   4577   4588   4591     1   109.5600471 388.275200
   4577   4588   4592     1   109.5600471 388.275200
   4578   4580   4584     1   109.5600471 388.275200
   4578   4598   4599     1   107.2600461 396.643200
   4578   4577   4579     1   109.5600471 388.275200
   4579   4577   4588     1   109.5600471 388.275200
   4579   4577   4595     1   109.7800468 425.094400
   4580   4581   4583     1   109.5600471 388.275200
   4580   4587   4589     1   107.2600461 396.643200
   4580   4578   4597     1   109.5600471 388.275200
   4581   4582   4585     1   110.2200475 386.601600
   4581   4600   4590     1   109.2900470 396.643200
   4581   4580   4584     1   109.5600471 388.275200
   4582   4586   4596     1   107.2600461 396.643200
   4582   4581   4583     1   109.5600471 388.275200
   4583   4581   4600     1   109.8800469 414.216000
   4584   4580   4587     1   110.2600474 425.931200
   4585   4582   4586     1   109.4300470 427.604800
   4585   4582   4595     1   109.5800467 425.931200
   4588   4593   4594     1   107.2600461 396.643200
   4591   4588   4593     1   110.2600474 425.931200
   4591   4588   4592     1   108.4600466 328.025600
   4592   4588   4593     1   110.2600474 425.931200
   4597   4578   4598     1   110.2600474 425.931200
   4601   4603   4604     1   108.8800464 416.726400
   4601   4603   4606     1   108.8800464 416.726400
   4602   4601   4603     1   117.6800502 383.254400
   4603   4605   4607     1   109.5600471 388.275200
   4603   4605   4608     1   109.5600471 388.275200
   4604   4603   4605     1   109.5600471 388.275200
   4604   4603   4606     1   108.4600466 328.025600
   4605   4603   4606     1   109.5600471 388.275200
   4607   4605   4609     1   109.8800469 414.216000
   4607   4605   4608     1   108.4600466 328.025600
   4608   4605   4609     1   109.8800469 414.216000
   4609   4610   4619     1   109.8800469 414.216000
   4609   4610   4620     1   109.8800469 414.216000
   4609   4611   4612     1   109.8800469 414.216000
   4609   4611   4614     1   109.8800469 414.216000
   4610   4621   4622     1   109.8000471 387.438400
   4610   4621   4623     1   109.8000471 387.438400
   4611   4613   4615     1   109.8000471 387.438400
   4611   4613   4616     1   109.8000471 387.438400
   4612   4611   4613     1   109.5600471 388.275200
   4612   4611   4614     1   108.4600466 328.025600
   4613   4611   4614     1   109.5600471 388.275200
   4615   4613   4617     1   108.7700466 392.459200
   4615   4613   4616     1   107.5800459 329.699200
   4616   4613   4617     1   108.7700466 392.459200
   4617   4649   4639     1   119.3800509 410.868800
   4619   4610   4621     1   109.5600471 388.275200
   4619   4610   4620     1   108.4600466 328.025600
   4620   4610   4621     1   109.5600471 388.275200
   4622   4621   4624     1   108.7700466 392.459200
   4622   4621   4623     1   107.5800459 329.699200
   4623   4621   4624     1   108.7700466 392.459200
   4624   4673   4663     1   119.3800509 410.868800
   4626   4627   4646     1   109.5600471 388.275200
   4626   4637   4640     1   109.5600471 388.275200
   4626   4637   4641     1   109.5600471 388.275200
   4627   4626   4628     1   109.5600471 388.275200
   4627   4629   4633     1   109.5600471 388.275200
   4627   4647   4648     1   107.2600461 396.643200
   4628   4626   4637     1   109.5600471 388.275200
   4628   4626   4644     1   109.7800468 425.094400
   4629   4627   4646     1   109.5600471 388.275200
   4629   4630   4632     1   109.5600471 388.275200
   4629   4636   4638     1   107.2600461 396.643200
   4630   4629   4633     1   109.5600471 388.275200
   4630   4631   4634     1   110.2200475 386.601600
   4630   4649   4639     1   109.2900470 396.643200
   4631   4630   4632     1   109.5600471 388.275200
   4631   4635   4645     1   107.2600461 396.643200
   4632   4630   4649     1   109.8800469 414.216000
   4633   4629   4636     1   110.2600474 425.931200
   4634   4631   4635     1   109.4300470 427.604800
   4634   4631   4644     1   109.5800467 425.931200
   4637   4642   4643     1   107.2600461 396.643200
   4640   4637   4642     1   110.2600474 425.931200
   4640   4637   4641     1   108.4600466 328.025600
   4641   4637   4642     1   110.2600474 425.931200
   4646   4627   4647     1   110.2600474 425.931200
   4650   4651   4670     1   109.5600471 388.275200
   4650   4661   4664     1   109.5600471 388.275200
   4650   4661   4665     1   109.5600471 388.275200
   4651   4650   4652     1   109.5600471 388.275200
   4651   4653   4657     1   109.5600471 388.275200
   4651   4671   4672     1   107.2600461 396.643200
   4652   4650   4661     1   109.5600471 388.275200
   4652   4650   4668     1   109.7800468 425.094400
   4653   4651   4670     1   109.5600471 388.275200
   4653   4654   4656     1   109.5600471 388.275200
   4653   4660   4662     1   107.2600461 396.643200
   4654   4653   4657     1   109.5600471 388.275200
   4654   4655   4658     1   110.2200475 386.601600
   4654   4673   4663     1   109.2900470 396.643200
   4655   4654   4656     1   109.5600471 388.275200
   4655   4659   4669     1   107.2600461 396.643200
   4656   4654   4673     1   109.8800469 414.216000
   4657   4653   4660     1   110.2600474 425.931200
   4658   4655   4659     1   109.4300470 427.604800
   4658   4655   4668     1   109.5800467 425.931200
   4661   4666   4667     1   107.2600461 396.643200
   4664   4661   4666     1   110.2600474 425.931200
   4664   4661   4665     1   108.4600466 328.025600
   4665   4661   4666     1   110.2600474 425.931200
   4670   4651   4671     1   110.2600474 425.931200
   4674   4676   4677     1   108.8800464 416.726400
   4674   4676   4679     1   108.8800464 416.726400
   4675   4674   4676     1   117.6800502 383.254400
   4676   4678   4680     1   109.5600471 388.275200
   4676   4678   4681     1   109.5600471 388.275200
   4677   4676   4678     1   109.5600471 388.275200
   4677   4676   4679     1   108.4600466 328.025600
   4678   4676   4679     1   109.5600471 388.275200
   4680   4678   4682     1   109.8800469 414.216000
   4680   4678   4681     1   108.4600466 328.025600
   4681   4678   4682     1   109.8800469 414.216000
   4682   4683   4692     1   109.8800469 414.216000
   4682   4683   4693     1   109.8800469 414.216000
   4682   4684   4685     1   109.8800469 414.216000
   4682   4684   4687     1   109.8800469 414.216000
   4683   4694   4695     1   109.8000471 387.438400
   4683   4694   4696     1   109.8000471 387.438400
   4684   4686   4688     1   109.8000471 387.438400
   4684   4686   4689     1   109.8000471 387.438400
   4685   4684   4686     1   109.5600471 388.275200
   4685   4684   4687     1   108.4600466 328.025600
   4686   4684   4687     1   109.5600471 388.275200
   4688   4686   4690     1   108.7700466 392.459200
   4688   4686   4689     1   107.5800459 329.699200
   4689   4686   4690     1   108.7700466 392.459200
   4690   4722   4712     1   119.3800509 410.868800
   4692   4683   4694     1   109.5600471 388.275200
   4692   4683   4693     1   108.4600466 328.025600
   4693   4683   4694     1   109.5600471 388.275200
   4695   4694   4697     1   108.7700466 392.459200
   4695   4694   4696     1   107.5800459 329.699200
   4696   4694   4697     1   108.7700466 392.459200
   4697   4746   4736     1   119.3800509 410.868800
   4699   4700   4719     1   109.5600471 388.275200
   4699   4710   4713     1   109.5600471 388.275200
   4699   4710   4714     1   109.5600471 388.275200
   4700   4702   4706     1   109.5600471 388.275200
   4700   4720   4721     1   107.2600461 396.643200
   4700   4699   4701     1   109.5600471 388.275200
   4701   4699   4710     1   109.5600471 388.275200
   4701   4699   4717     1   109.7800468 425.094400
   4702   4703   4705     1   109.5600471 388.275200
   4702   4709   4711     1   107.2600461 396.643200
   4702   4700   4719     1   109.5600471 388.275200
   4703   4704   4707     1   110.2200475 386.601600
   4703   4722   4712     1   109.2900470 396.643200
   4703   4702   4706     1   109.5600471 388.275200
   4704   4708   4718     1   107.2600461 396.643200
   4704   4703   4705     1   109.5600471 388.275200
   4705   4703   4722     1   109.8800469 414.216000
   4706   4702   4709     1   110.2600474 425.931200
   4707   4704   4708     1   109.4300470 427.604800
   4707   4704   4717     1   109.5800467 425.931200
   4710   4715   4716     1   107.2600461 396.643200
   4713   4710   4715     1   110.2600474 425.931200
   4713   4710   4714     1   108.4600466 328.025600
   4714   4710   4715     1   110.2600474 425.931200
   4719   4700   4720     1   110.2600474 425.931200
   4723   4724   4743     1   109.5600471 388.275200
   4723   4734   4737     1   109.5600471 388.275200
   4723   4734   4738     1   109.5600471 388.275200
   4724   4726   4730     1   109.5600471 388.275200
   4724   4744   4745     1   107.2600461 396.643200
   4724   4723   4725     1   109.5600471 388.275200
   4725   4723   4734     1   109.5600471 388.275200
   4725   4723   4741     1   109.7800468 425.094400
   4726   4727   4729     1   109.5600471 388.275200
   4726   4733   4735     1   107.2600461 396.643200
   4726   4724   4743     1   109.5600471 388.275200
   4727   4728   4731     1   110.2200475 386.601600
   4727   4746   4736     1   109.2900470 396.643200
   4727   4726   4730     1   109.5600471 388.275200
   4728   4732   4742     1   107.2600461 396.643200
   4728   4727   4729     1   109.5600471 388.275200
   4729   4727   4746     1   109.8800469 414.216000
   4730   4726   4733     1   110.2600474 425.931200
   4731   4728   4732     1   109.4300470 427.604800
   4731   4728   4741     1   109.5800467 425.931200
   4734   4739   4740     1   107.2600461 396.643200
   4737   4734   4739     1   110.2600474 425.931200
   4737   4734   4738     1   108.4600466 328.025600
   4738   4734   4739     1   110.2600474 425.931200
   4743   4724   4744     1   110.2600474 425.931200
   4747   4749   4750     1   108.8800464 416.726400
   4747   4749   4752     1   108.8800464 416.726400
   4748   4747   4749     1   117.6800502 383.254400
   4749   4751   4753     1   109.5600471 388.275200
   4749   4751   4754     1   109.5600471 388.275200
   4750   4749   4751     1   109.5600471 388.275200
   4750   4749   4752     1   108.4600466 328.025600
   4751   4749   4752     1   109.5600471 388.275200
   4753   4751   4755     1   109.8800469 414.216000
   4753   4751   4754     1   108.4600466 328.025600
   4754   4751   4755     1   109.8800469 414.216000
   4755   4756   4765     1   109.8800469 414.216000
   4755   4756   4766     1   109.8800469 414.216000
   4755   4757   4758     1   109.8800469 414.216000
   4755   4757   4760     1   109.8800469 414.216000
   4756   4767   4768     1   109.8000471 387.438400
   4756   4767   4769     1   109.8000471 387.438400
   4757   4759   4761     1   109.8000471 387.438400
   4757   4759   4762     1   109.8000471 387.438400
   4758   4757   4759     1   109.5600471 388.275200
   4758   4757   4760     1   108.4600466 328.025600
   4759   4757   4760     1   109.5600471 388.275200
   4761   4759   4763     1   108.7700466 392.459200
   4761   4759   4762     1   107.5800459 329.699200
   4762   4759   4763     1   108.7700466 392.459200
   4763   4795   4785     1   119.3800509 410.868800
   4765   4756   4767     1   109.5600471 388.275200
   4765   4756   4766     1   108.4600466 328.025600
   4766   4756   4767     1   109.5600471 388.275200
   4768   4767   4770     1   108.7700466 392.459200
   4768   4767   4769     1   107.5800459 329.699200
   4769   4767   4770     1   108.7700466 392.459200
   4770   4819   4809     1   119.3800509 410.868800
   4772   4773   4792     1   109.5600471 388.275200
   4772   4783   4786     1   109.5600471 388.275200
   4772   4783   4787     1   109.5600471 388.275200
   4773   4772   4774     1   109.5600471 388.275200
   4773   4775   4779     1   109.5600471 388.275200
   4773   4793   4794     1   107.2600461 396.643200
   4774   4772   4783     1   109.5600471 388.275200
   4774   4772   4790     1   109.7800468 425.094400
   4775   4773   4792     1   109.5600471 388.275200
   4775   4776   4778     1   109.5600471 388.275200
   4775   4782   4784     1   107.2600461 396.643200
   4776   4775   4779     1   109.5600471 388.275200
   4776   4777   4780     1   110.2200475 386.601600
   4776   4795   4785     1   109.2900470 396.643200
   4777   4776   4778     1   109.5600471 388.275200
   4777   4781   4791     1   107.2600461 396.643200
   4778   4776   4795     1   109.8800469 414.216000
   4779   4775   4782     1   110.2600474 425.931200
   4780   4777   4781     1   109.4300470 427.604800
   4780   4777   4790     1   109.5800467 425.931200
   4783   4788   4789     1   107.2600461 396.643200
   4786   4783   4788     1   110.2600474 425.931200
   4786   4783   4787     1   108.4600466 328.025600
   4787   4783   4788     1   110.2600474 425.931200
   4792   4773   4793     1   110.2600474 425.931200
   4796   4797   4816     1   109.5600471 388.275200
   4796   4807   4810     1   109.5600471 388.275200
   4796   4807   4811     1   109.5600471 388.275200
   4797   4796   4798     1   109.5600471 388.275200
   4797   4799   4803     1   109.5600471 388.275200
   4797   4817   4818     1   107.2600461 396.643200
   4798   4796   4807     1   109.5600471 388.275200
   4798   4796   4814     1   109.7800468 425.094400
   4799   4797   4816     1   109.5600471 388.275200
   4799   4800   4802     1   109.5600471 388.275200
   4799   4806   4808     1   107.2600461 396.643200
   4800   4799   4803     1   109.5600471 388.275200
   4800   4801   4804     1   110.2200475 386.601600
   4800   4819   4809     1   109.2900470 396.643200
   4801   4800   4802     1   109.5600471 388.275200
   4801   4805   4815     1   107.2600461 396.643200
   4802   4800   4819     1   109.8800469 414.216000
   4803   4799   4806     1   110.2600474 425.931200
   4804   4801   4805     1   109.4300470 427.604800
   4804   4801   4814     1   109.5800467 425.931200
   4807   4812   4813     1   107.2600461 396.643200
   4810   4807   4812     1   110.2600474 425.931200
   4810   4807   4811     1   108.4600466 328.025600
   4811   4807   4812     1   110.2600474 425.931200
   4816   4797   4817     1   110.2600474 425.931200
   4820   4822   4823     1   108.8800464 416.726400
   4820   4822   4825     1   108.8800464 416.726400
   4821   4820   4822     1   117.6800502 383.254400
   4822   4824   4826     1   109.5600471 388.275200
   4822   4824   4827     1   109.5600471 388.275200
   4823   4822   4824     1   109.5600471 388.275200
   4823   4822   4825     1   108.4600466 328.025600
   4824   4822   4825     1   109.5600471 388.275200
   4826   4824   4828     1   109.8800469 414.216000
   4826   4824   4827     1   108.4600466 328.025600
   4827   4824   4828     1   109.8800469 414.216000
   4828   4829   4838     1   109.8800469 414.216000
   4828   4829   4839     1   109.8800469 414.216000
   4828   4830   4831     1   109.8800469 414.216000
   4828   4830   4833     1   109.8800469 414.216000
   4829   4840   4841     1   109.8000471 387.438400
   4829   4840   4842     1   109.8000471 387.438400
   4830   4832   4834     1   109.8000471 387.438400
   4830   4832   4835     1   109.8000471 387.438400
   4831   4830   4832     1   109.5600471 388.275200
   4831   4830   4833     1   108.4600466 328.025600
   4832   4830   4833     1   109.5600471 388.275200
   4834   4832   4836     1   108.7700466 392.459200
   4834   4832   4835     1   107.5800459 329.699200
   4835   4832   4836     1   108.7700466 392.459200
   4836   4868   4858     1   119.3800509 410.868800
   4838   4829   4840     1   109.5600471 388.275200
   4838   4829   4839     1   108.4600466 328.025600
   4839   4829   4840     1   109.5600471 388.275200
   4841   4840   4843     1   108.7700466 392.459200
   4841   4840   4842     1   107.5800459 329.699200
   4842   4840   4843     1   108.7700466 392.459200
   4843   4892   4882     1   119.3800509 410.868800
   4845   4846   4865     1   109.5600471 388.275200
   4845   4856   4859     1   109.5600471 388.275200
   4845   4856   4860     1   109.5600471 388.275200
   4846   4848   4852     1   109.5600471 388.275200
   4846   4866   4867     1   107.2600461 396.643200
   4846   4845   4847     1   109.5600471 388.275200
   4847   4845   4856     1   109.5600471 388.275200
   4847   4845   4863     1   109.7800468 425.094400
   4848   4849   4851     1   109.5600471 388.275200
   4848   4855   4857     1   107.2600461 396.643200
   4848   4846   4865     1   109.5600471 388.275200
   4849   4850   4853     1   110.2200475 386.601600
   4849   4868   4858     1   109.2900470 396.643200
   4849   4848   4852     1   109.5600471 388.275200
   4850   4854   4864     1   107.2600461 396.643200
   4850   4849   4851     1   109.5600471 388.275200
   4851   4849   4868     1   109.8800469 414.216000
   4852   4848   4855     1   110.2600474 425.931200
   4853   4850   4854     1   109.4300470 427.604800
   4853   4850   4863     1   109.5800467 425.931200
   4856   4861   4862     1   107.2600461 396.643200
   4859   4856   4861     1   110.2600474 425.931200
   4859   4856   4860     1   108.4600466 328.025600
   4860   4856   4861     1   110.2600474 425.931200
   4865   4846   4866     1   110.2600474 425.931200
   4869   4870   4889     1   109.5600471 388.275200
   4869   4880   4883     1   109.5600471 388.275200
   4869   4880   4884     1   109.5600471 388.275200
   4870   4872   4876     1   109.5600471 388.275200
   4870   4890   4891     1   107.2600461 396.643200
   4870   4869   4871     1   109.5600471 388.275200
   4871   4869   4880     1   109.5600471 388.275200
   4871   4869   4887     1   109.7800468 425.094400
   4872   4873   4875     1   109.5600471 388.275200
   4872   4879   4881     1   107.2600461 396.643200
   4872   4870   4889     1   109.5600471 388.275200
   4873   4874   4877     1   110.2200475 386.601600
   4873   4892   4882     1   109.2900470 396.643200
   4873   4872   4876     1   109.5600471 388.275200
   4874   4878   4888     1   107.2600461 396.643200
   4874   4873   4875     1   109.5600471 388.275200
   4875   4873   4892     1   109.8800469 414.216000
   4876   4872   4879     1   110.2600474 425.931200
   4877   4874   4878     1   109.4300470 427.604800
   4877   4874   4887     1   109.5800467 425.931200
   4880   4885   4886     1   107.2600461 396.643200
   4883   4880   4885     1   110.2600474 425.931200
   4883   4880   4884     1   108.4600466 328.025600
   4884   4880   4885     1   110.2600474 425.931200
   4889   4870   4890     1   110.2600474 425.931200
   4893   4895   4896     1   108.8800464 416.726400
   4893   4895   4898     1   108.8800464 416.726400
   4894   4893   4895     1   117.6800502 383.254400
   4895   4897   4899     1   109.5600471 388.275200
   4895   4897   4900     1   109.5600471 388.275200
   4896   4895   4897     1   109.5600471 388.275200
   4896   4895   4898     1   108.4600466 328.025600
   4897   4895   4898     1   109.5600471 388.275200
   4899   4897   4901     1   109.8800469 414.216000
   4899   4897   4900     1   108.4600466 328.025600
   4900   4897   4901     1   109.8800469 414.216000
   4901   4902   4911     1   109.8800469 414.216000
   4901   4902   4912     1   109.8800469 414.216000
   4901   4903   4904     1   109.8800469 414.216000
   4901   4903   4906     1   109.8800469 414.216000
   4902   4913   4914     1   109.8000471 387.438400
   4902   4913   4915     1   109.8000471 387.438400
   4903   4905   4907     1   109.8000471 387.438400
   4903   4905   4908     1   109.8000471 387.438400
   4904   4903   4905     1   109.5600471 388.275200
   4904   4903   4906     1   108.4600466 328.025600
   4905   4903   4906     1   109.5600471 388.275200
   4907   4905   4909     1   108.7700466 392.459200
   4907   4905   4908     1   107.5800459 329.699200
   4908   4905   4909     1   108.7700466 392.459200
   4909   4941   4931     1   119.3800509 410.868800
   4911   4902   4913     1   109.5600471 388.275200
   4911   4902   4912     1   108.4600466 328.025600
   4912   4902   4913     1   109.5600471 388.275200
   4914   4913   4916     1   108.7700466 392.459200
   4914   4913   4915     1   107.5800459 329.699200
   4915   4913   4916     1   108.7700466 392.459200
   4916   4965   4955     1   119.3800509 410.868800
   4918   4919   4938     1   109.5600471 388.275200
   4918   4929   4932     1   109.5600471 388.275200
   4918   4929   4933     1   109.5600471 388.275200
   4919   4918   4920     1   109.5600471 388.275200
   4919   4921   4925     1   109.5600471 388.275200
   4919   4939   4940     1   107.2600461 396.643200
   4920   4918   4929     1   109.5600471 388.275200
   4920   4918   4936     1   109.7800468 425.094400
   4921   4919   4938     1   109.5600471 388.275200
   4921   4922   4924     1   109.5600471 388.275200
   4921   4928   4930     1   107.2600461 396.643200
   4922   4921   4925     1   109.5600471 388.275200
   4922   4923   4926     1   110.2200475 386.601600
   4922   4941   4931     1   109.2900470 396.643200
   4923   4922   4924     1   109.5600471 388.275200
   4923   4927   4937     1   107.2600461 396.643200
   4924   4922   4941     1   109.8800469 414.216000
   4925   4921   4928     1   110.2600474 425.931200
   4926   4923   4927     1   109.4300470 427.604800
   4926   4923   4936     1   109.5800467 425.931200
   4929   4934   4935     1   107.2600461 396.643200
   4932   4929   4934     1   110.2600474 425.931200
   4932   4929   4933     1   108.4600466 328.025600
   4933   4929   4934     1   110.2600474 425.931200
   4938   4919   4939     1   110.2600474 425.931200
   4942   4943   4962     1   109.5600471 388.275200
   4942   4953   4956     1   109.5600471 388.275200
   4942   4953   4957     1   109.5600471 388.275200
   4943   4942   4944     1   109.5600471 388.275200
   4943   4945   4949     1   109.5600471 388.275200
   4943   4963   4964     1   107.2600461 396.643200
   4944   4942   4953     1   109.5600471 388.275200
   4944   4942   4960     1   109.7800468 425.094400
   4945   4943   4962     1   109.5600471 388.275200
   4945   4946   4948     1   109.5600471 388.275200
   4945   4952   4954     1   107.2600461 396.643200
   4946   4945   4949     1   109.5600471 388.275200
   4946   4947   4950     1   110.2200475 386.601600
   4946   4965   4955     1   109.2900470 396.643200
   4947   4946   4948     1   109.5600471 388.275200
   4947   4951   4961     1   107.2600461 396.643200
   4948   4946   4965     1   109.8800469 414.216000
   4949   4945   4952     1   110.2600474 425.931200
   4950   4947   4951     1   109.4300470 427.604800
   4950   4947   4960     1   109.5800467 425.931200
   4953   4958   4959     1   107.2600461 396.643200
   4956   4953   4958     1   110.2600474 425.931200
   4956   4953   4957     1   108.4600466 328.025600
   4957   4953   4958     1   110.2600474 425.931200
   4962   4943   4963     1   110.2600474 425.931200
   4966   4968   4969     1   108.8800464 416.726400
   4966   4968   4971     1   108.8800464 416.726400
   4967   4966   4968     1   117.6800502 383.254400
   4968   4970   4972     1   109.5600471 388.275200
   4968   4970   4973     1   109.5600471 388.275200
   4969   4968   4970     1   109.5600471 388.275200
   4969   4968   4971     1   108.4600466 328.025600
   4970   4968   4971     1   109.5600471 388.275200
   4972   4970   4974     1   109.8800469 414.216000
   4972   4970   4973     1   108.4600466 328.025600
   4973   4970   4974     1   109.8800469 414.216000
   4974   4975   4984     1   109.8800469 414.216000
   4974   4975   4985     1   109.8800469 414.216000
   4974   4976   4977     1   109.8800469 414.216000
   4974   4976   4979     1   109.8800469 414.216000
   4975   4986   4987     1   109.8000471 387.438400
   4975   4986   4988     1   109.8000471 387.438400
   4976   4978   4980     1   109.8000471 387.438400
   4976   4978   4981     1   109.8000471 387.438400
   4977   4976   4978     1   109.5600471 388.275200
   4977   4976   4979     1   108.4600466 328.025600
   4978   4976   4979     1   109.5600471 388.275200
   4980   4978   4982     1   108.7700466 392.459200
   4980   4978   4981     1   107.5800459 329.699200
   4981   4978   4982     1   108.7700466 392.459200
   4982   5014   5004     1   119.3800509 410.868800
   4984   4975   4986     1   109.5600471 388.275200
   4984   4975   4985     1   108.4600466 328.025600
   4985   4975   4986     1   109.5600471 388.275200
   4987   4986   4989     1   108.7700466 392.459200
   4987   4986   4988     1   107.5800459 329.699200
   4988   4986   4989     1   108.7700466 392.459200
   4989   5038   5028     1   119.3800509 410.868800
   4991   4992   5011     1   109.5600471 388.275200
   4991   5002   5005     1   109.5600471 388.275200
   4991   5002   5006     1   109.5600471 388.275200
   4992   4994   4998     1   109.5600471 388.275200
   4992   5012   5013     1   107.2600461 396.643200
   4992   4991   4993     1   109.5600471 388.275200
   4993   4991   5002     1   109.5600471 388.275200
   4993   4991   5009     1   109.7800468 425.094400
   4994   4995   4997     1   109.5600471 388.275200
   4994   5001   5003     1   107.2600461 396.643200
   4994   4992   5011     1   109.5600471 388.275200
   4995   4996   4999     1   110.2200475 386.601600
   4995   5014   5004     1   109.2900470 396.643200
   4995   4994   4998     1   109.5600471 388.275200
   4996   5000   5010     1   107.2600461 396.643200
   4996   4995   4997     1   109.5600471 388.275200
   4997   4995   5014     1   109.8800469 414.216000
   4998   4994   5001     1   110.2600474 425.931200
   4999   4996   5000     1   109.4300470 427.604800
   4999   4996   5009     1   109.5800467 425.931200
   5002   5007   5008     1   107.2600461 396.643200
   5005   5002   5007     1   110.2600474 425.931200
   5005   5002   5006     1   108.4600466 328.025600
   5006   5002   5007     1   110.2600474 425.931200
   5011   4992   5012     1   110.2600474 425.931200
   5015   5016   5035     1   109.5600471 388.275200
   5015   5026   5029     1   109.5600471 388.275200
   5015   5026   5030     1   109.5600471 388.275200
   5016   5018   5022     1   109.5600471 388.275200
   5016   5036   5037     1   107.2600461 396.643200
   5016   5015   5017     1   109.5600471 388.275200
   5017   5015   5026     1   109.5600471 388.275200
   5017   5015   5033     1   109.7800468 425.094400
   5018   5019   5021     1   109.5600471 388.275200
   5018   5025   5027     1   107.2600461 396.643200
   5018   5016   5035     1   109.5600471 388.275200
   5019   5020   5023     1   110.2200475 386.601600
   5019   5038   5028     1   109.2900470 396.643200
   5019   5018   5022     1   109.5600471 388.275200
   5020   5024   5034     1   107.2600461 396.643200
   5020   5019   5021     1   109.5600471 388.275200
   5021   5019   5038     1   109.8800469 414.216000
   5022   5018   5025     1   110.2600474 425.931200
   5023   5020   5024     1   109.4300470 427.604800
   5023   5020   5033     1   109.5800467 425.931200
   5026   5031   5032     1   107.2600461 396.643200
   5029   5026   5031     1   110.2600474 425.931200
   5029   5026   5030     1   108.4600466 328.025600
   5030   5026   5031     1   110.2600474 425.931200
   5035   5016   5036     1   110.2600474 425.931200
   5039   5041   5042     1   108.8800464 416.726400
   5039   5041   5044     1   108.8800464 416.726400
   5040   5039   5041     1   117.6800502 383.254400
   5041   5043   5045     1   109.5600471 388.275200
   5041   5043   5046     1   109.5600471 388.275200
   5042   5041   5043     1   109.5600471 388.275200
   5042   5041   5044     1   108.4600466 328.025600
   5043   5041   5044     1   109.5600471 388.275200
   5045   5043   5047     1   109.8800469 414.216000
   5045   5043   5046     1   108.4600466 328.025600
   5046   5043   5047     1   109.8800469 414.216000
   5047   5048   5057     1   109.8800469 414.216000
   5047   5048   5058     1   109.8800469 414.216000
   5047   5049   5050     1   109.8800469 414.216000
   5047   5049   5052     1   109.8800469 414.216000
   5048   5059   5060     1   109.8000471 387.438400
   5048   5059   5061     1   109.8000471 387.438400
   5049   5051   5053     1   109.8000471 387.438400
   5049   5051   5054     1   109.8000471 387.438400
   5050   5049   5051     1   109.5600471 388.275200
   5050   5049   5052     1   108.4600466 328.025600
   5051   5049   5052     1   109.5600471 388.275200
   5053   5051   5055     1   108.7700466 392.459200
   5053   5051   5054     1   107.5800459 329.699200
   5054   5051   5055     1   108.7700466 392.459200
   5055   5087   5077     1   119.3800509 410.868800
   5057   5048   5059     1   109.5600471 388.275200
   5057   5048   5058     1   108.4600466 328.025600
   5058   5048   5059     1   109.5600471 388.275200
   5060   5059   5062     1   108.7700466 392.459200
   5060   5059   5061     1   107.5800459 329.699200
   5061   5059   5062     1   108.7700466 392.459200
   5062   5111   5101     1   119.3800509 410.868800
   5064   5065   5084     1   109.5600471 388.275200
   5064   5075   5078     1   109.5600471 388.275200
   5064   5075   5079     1   109.5600471 388.275200
   5065   5064   5066     1   109.5600471 388.275200
   5065   5067   5071     1   109.5600471 388.275200
   5065   5085   5086     1   107.2600461 396.643200
   5066   5064   5075     1   109.5600471 388.275200
   5066   5064   5082     1   109.7800468 425.094400
   5067   5065   5084     1   109.5600471 388.275200
   5067   5068   5070     1   109.5600471 388.275200
   5067   5074   5076     1   107.2600461 396.643200
   5068   5067   5071     1   109.5600471 388.275200
   5068   5069   5072     1   110.2200475 386.601600
   5068   5087   5077     1   109.2900470 396.643200
   5069   5068   5070     1   109.5600471 388.275200
   5069   5073   5083     1   107.2600461 396.643200
   5070   5068   5087     1   109.8800469 414.216000
   5071   5067   5074     1   110.2600474 425.931200
   5072   5069   5073     1   109.4300470 427.604800
   5072   5069   5082     1   109.5800467 425.931200
   5075   5080   5081     1   107.2600461 396.643200
   5078   5075   5080     1   110.2600474 425.931200
   5078   5075   5079     1   108.4600466 328.025600
   5079   5075   5080     1   110.2600474 425.931200
   5084   5065   5085     1   110.2600474 425.931200
   5088   5089   5108     1   109.5600471 388.275200
   5088   5099   5102     1   109.5600471 388.275200
   5088   5099   5103     1   109.5600471 388.275200
   5089   5088   5090     1   109.5600471 388.275200
   5089   5091   5095     1   109.5600471 388.275200
   5089   5109   5110     1   107.2600461 396.643200
   5090   5088   5099     1   109.5600471 388.275200
   5090   5088   5106     1   109.7800468 425.094400
   5091   5089   5108     1   109.5600471 388.275200
   5091   5092   5094     1   109.5600471 388.275200
   5091   5098   5100     1   107.2600461 396.643200
   5092   5091   5095     1   109.5600471 388.275200
   5092   5093   5096     1   110.2200475 386.601600
   5092   5111   5101     1   109.2900470 396.643200
   5093   5092   5094     1   109.5600471 388.275200
   5093   5097   5107     1   107.2600461 396.643200
   5094   5092   5111     1   109.8800469 414.216000
   5095   5091   5098     1   110.2600474 425.931200
   5096   5093   5097     1   109.4300470 427.604800
   5096   5093   5106     1   109.5800467 425.931200
   5099   5104   5105     1   107.2600461 396.643200
   5102   5099   5104     1   110.2600474 425.931200
   5102   5099   5103     1   108.4600466 328.025600
   5103   5099   5104     1   110.2600474 425.931200
   5108   5089   5109     1   110.2600474 425.931200
   5112   5114   5115     1   108.8800464 416.726400
   5112   5114   5117     1   108.8800464 416.726400
   5113   5112   5114     1   117.6800502 383.254400
   5114   5116   5118     1   109.5600471 388.275200
   5114   5116   5119     1   109.5600471 388.275200
   5115   5114   5116     1   109.5600471 388.275200
   5115   5114   5117     1   108.4600466 328.025600
   5116   5114   5117     1   109.5600471 388.275200
   5118   5116   5120     1   109.8800469 414.216000
   5118   5116   5119     1   108.4600466 328.025600
   5119   5116   5120     1   109.8800469 414.216000
   5120   5121   5130     1   109.8800469 414.216000
   5120   5121   5131     1   109.8800469 414.216000
   5120   5122   5123     1   109.8800469 414.216000
   5120   5122   5125     1   109.8800469 414.216000
   5121   5132   5133     1   109.8000471 387.438400
   5121   5132   5134     1   109.8000471 387.438400
   5122   5124   5126     1   109.8000471 387.438400
   5122   5124   5127     1   109.8000471 387.438400
   5123   5122   5124     1   109.5600471 388.275200
   5123   5122   5125     1   108.4600466 328.025600
   5124   5122   5125     1   109.5600471 388.275200
   5126   5124   5128     1   108.7700466 392.459200
   5126   5124   5127     1   107.5800459 329.699200
   5127   5124   5128     1   108.7700466 392.459200
   5128   5160   5150     1   119.3800509 410.868800
   5130   5121   5132     1   109.5600471 388.275200
   5130   5121   5131     1   108.4600466 328.025600
   5131   5121   5132     1   109.5600471 388.275200
   5133   5132   5135     1   108.7700466 392.459200
   5133   5132   5134     1   107.5800459 329.699200
   5134   5132   5135     1   108.7700466 392.459200
   5135   5184   5174     1   119.3800509 410.868800
   5137   5138   5157     1   109.5600471 388.275200
   5137   5148   5151     1   109.5600471 388.275200
   5137   5148   5152     1   109.5600471 388.275200
   5138   5140   5144     1   109.5600471 388.275200
   5138   5158   5159     1   107.2600461 396.643200
   5138   5137   5139     1   109.5600471 388.275200
   5139   5137   5148     1   109.5600471 388.275200
   5139   5137   5155     1   109.7800468 425.094400
   5140   5141   5143     1   109.5600471 388.275200
   5140   5147   5149     1   107.2600461 396.643200
   5140   5138   5157     1   109.5600471 388.275200
   5141   5142   5145     1   110.2200475 386.601600
   5141   5160   5150     1   109.2900470 396.643200
   5141   5140   5144     1   109.5600471 388.275200
   5142   5146   5156     1   107.2600461 396.643200
   5142   5141   5143     1   109.5600471 388.275200
   5143   5141   5160     1   109.8800469 414.216000
   5144   5140   5147     1   110.2600474 425.931200
   5145   5142   5146     1   109.4300470 427.604800
   5145   5142   5155     1   109.5800467 425.931200
   5148   5153   5154     1   107.2600461 396.643200
   5151   5148   5153     1   110.2600474 425.931200
   5151   5148   5152     1   108.4600466 328.025600
   5152   5148   5153     1   110.2600474 425.931200
   5157   5138   5158     1   110.2600474 425.931200
   5161   5162   5181     1   109.5600471 388.275200
   5161   5172   5175     1   109.5600471 388.275200
   5161   5172   5176     1   109.5600471 388.275200
   5162   5164   5168     1   109.5600471 388.275200
   5162   5182   5183     1   107.2600461 396.643200
   5162   5161   5163     1   109.5600471 388.275200
   5163   5161   5172     1   109.5600471 388.275200
   5163   5161   5179     1   109.7800468 425.094400
   5164   5165   5167     1   109.5600471 388.275200
   5164   5171   5173     1   107.2600461 396.643200
   5164   5162   5181     1   109.5600471 388.275200
   5165   5166   5169     1   110.2200475 386.601600
   5165   5184   5174     1   109.2900470 396.643200
   5165   5164   5168     1   109.5600471 388.275200
   5166   5170   5180     1   107.2600461 396.643200
   5166   5165   5167     1   109.5600471 388.275200
   5167   5165   5184     1   109.8800469 414.216000
   5168   5164   5171     1   110.2600474 425.931200
   5169   5166   5170     1   109.4300470 427.604800
   5169   5166   5179     1   109.5800467 425.931200
   5172   5177   5178     1   107.2600461 396.643200
   5175   5172   5177     1   110.2600474 425.931200
   5175   5172   5176     1   108.4600466 328.025600
   5176   5172   5177     1   110.2600474 425.931200
   5181   5162   5182     1   110.2600474 425.931200
   5185   5187   5188     1   108.8800464 416.726400
   5185   5187   5190     1   108.8800464 416.726400
   5186   5185   5187     1   117.6800502 383.254400
   5187   5189   5191     1   109.5600471 388.275200
   5187   5189   5192     1   109.5600471 388.275200
   5188   5187   5189     1   109.5600471 388.275200
   5188   5187   5190     1   108.4600466 328.025600
   5189   5187   5190     1   109.5600471 388.275200
   5191   5189   5193     1   109.8800469 414.216000
   5191   5189   5192     1   108.4600466 328.025600
   5192   5189   5193     1   109.8800469 414.216000
   5193   5194   5203     1   109.8800469 414.216000
   5193   5194   5204     1   109.8800469 414.216000
   5193   5195   5196     1   109.8800469 414.216000
   5193   5195   5198     1   109.8800469 414.216000
   5194   5205   5206     1   109.8000471 387.438400
   5194   5205   5207     1   109.8000471 387.438400
   5195   5197   5199     1   109.8000471 387.438400
   5195   5197   5200     1   109.8000471 387.438400
   5196   5195   5197     1   109.5600471 388.275200
   5196   5195   5198     1   108.4600466 328.025600
   5197   5195   5198     1   109.5600471 388.275200
   5199   5197   5201     1   108.7700466 392.459200
   5199   5197   5200     1   107.5800459 329.699200
   5200   5197   5201     1   108.7700466 392.459200
   5201   5233   5223     1   119.3800509 410.868800
   5203   5194   5205     1   109.5600471 388.275200
   5203   5194   5204     1   108.4600466 328.025600
   5204   5194   5205     1   109.5600471 388.275200
   5206   5205   5208     1   108.7700466 392.459200
   5206   5205   5207     1   107.5800459 329.699200
   5207   5205   5208     1   108.7700466 392.459200
   5208   5257   5247     1   119.3800509 410.868800
   5210   5211   5230     1   109.5600471 388.275200
   5210   5221   5224     1   109.5600471 388.275200
   5210   5221   5225     1   109.5600471 388.275200
   5211   5210   5212     1   109.5600471 388.275200
   5211   5213   5217     1   109.5600471 388.275200
   5211   5231   5232     1   107.2600461 396.643200
   5212   5210   5221     1   109.5600471 388.275200
   5212   5210   5228     1   109.7800468 425.094400
   5213   5211   5230     1   109.5600471 388.275200
   5213   5214   5216     1   109.5600471 388.275200
   5213   5220   5222     1   107.2600461 396.643200
   5214   5213   5217     1   109.5600471 388.275200
   5214   5215   5218     1   110.2200475 386.601600
   5214   5233   5223     1   109.2900470 396.643200
   5215   5214   5216     1   109.5600471 388.275200
   5215   5219   5229     1   107.2600461 396.643200
   5216   5214   5233     1   109.8800469 414.216000
   5217   5213   5220     1   110.2600474 425.931200
   5218   5215   5219     1   109.4300470 427.604800
   5218   5215   5228     1   109.5800467 425.931200
   5221   5226   5227     1   107.2600461 396.643200
   5224   5221   5226     1   110.2600474 425.931200
   5224   5221   5225     1   108.4600466 328.025600
   5225   5221   5226     1   110.2600474 425.931200
   5230   5211   5231     1   110.2600474 425.931200
   5234   5235   5254     1   109.5600471 388.275200
   5234   5245   5248     1   109.5600471 388.275200
   5234   5245   5249     1   109.5600471 388.275200
   5235   5234   5236     1   109.5600471 388.275200
   5235   5237   5241     1   109.5600471 388.275200
   5235   5255   5256     1   107.2600461 396.643200
   5236   5234   5245     1   109.5600471 388.275200
   5236   5234   5252     1   109.7800468 425.094400
   5237   5235   5254     1   109.5600471 388.275200
   5237   5238   5240     1   109.5600471 388.275200
   5237   5244   5246     1   107.2600461 396.643200
   5238   5237   5241     1   109.5600471 388.275200
   5238   5239   5242     1   110.2200475 386.601600
   5238   5257   5247     1   109.2900470 396.643200
   5239   5238   5240     1   109.5600471 388.275200
   5239   5243   5253     1   107.2600461 396.643200
   5240   5238   5257     1   109.8800469 414.216000
   5241   5237   5244     1   110.2600474 425.931200
   5242   5239   5243     1   109.4300470 427.604800
   5242   5239   5252     1   109.5800467 425.931200
   5245   5250   5251     1   107.2600461 396.643200
   5248   5245   5250     1   110.2600474 425.931200
   5248   5245   5249     1   108.4600466 328.025600
   5249   5245   5250     1   110.2600474 425.931200
   5254   5235   5255     1   110.2600474 425.931200
   5258   5260   5261     1   108.8800464 416.726400
   5258   5260   5263     1   108.8800464 416.726400
   5259   5258   5260     1   117.6800502 383.254400
   5260   5262   5264     1   109.5600471 388.275200
   5260   5262   5265     1   109.5600471 388.275200
   5261   5260   5262     1   109.5600471 388.275200
   5261   5260   5263     1   108.4600466 328.025600
   5262   5260   5263     1   109.5600471 388.275200
   5264   5262   5266     1   109.8800469 414.216000
   5264   5262   5265     1   108.4600466 328.025600
   5265   5262   5266     1   109.8800469 414.216000
   5266   5267   5276     1   109.8800469 414.216000
   5266   5267   5277     1   109.8800469 414.216000
   5266   5268   5269     1   109.8800469 414.216000
   5266   5268   5271     1   109.8800469 414.216000
   5267   5278   5279     1   109.8000471 387.438400
   5267   5278   5280     1   109.8000471 387.438400
   5268   5270   5272     1   109.8000471 387.438400
   5268   5270   5273     1   109.8000471 387.438400
   5269   5268   5270     1   109.5600471 388.275200
   5269   5268   5271     1   108.4600466 328.025600
   5270   5268   5271     1   109.5600471 388.275200
   5272   5270   5274     1   108.7700466 392.459200
   5272   5270   5273     1   107.5800459 329.699200
   5273   5270   5274     1   108.7700466 392.459200
   5274   5306   5296     1   119.3800509 410.868800
   5276   5267   5278     1   109.5600471 388.275200
   5276   5267   5277     1   108.4600466 328.025600
   5277   5267   5278     1   109.5600471 388.275200
   5279   5278   5281     1   108.7700466 392.459200
   5279   5278   5280     1   107.5800459 329.699200
   5280   5278   5281     1   108.7700466 392.459200
   5281   5330   5320     1   119.3800509 410.868800
   5283   5284   5303     1   109.5600471 388.275200
   5283   5294   5297     1   109.5600471 388.275200
   5283   5294   5298     1   109.5600471 388.275200
   5284   5286   5290     1   109.5600471 388.275200
   5284   5304   5305     1   107.2600461 396.643200
   5284   5283   5285     1   109.5600471 388.275200
   5285   5283   5294     1   109.5600471 388.275200
   5285   5283   5301     1   109.7800468 425.094400
   5286   5287   5289     1   109.5600471 388.275200
   5286   5293   5295     1   107.2600461 396.643200
   5286   5284   5303     1   109.5600471 388.275200
   5287   5288   5291     1   110.2200475 386.601600
   5287   5306   5296     1   109.2900470 396.643200
   5287   5286   5290     1   109.5600471 388.275200
   5288   5292   5302     1   107.2600461 396.643200
   5288   5287   5289     1   109.5600471 388.275200
   5289   5287   5306     1   109.8800469 414.216000
   5290   5286   5293     1   110.2600474 425.931200
   5291   5288   5292     1   109.4300470 427.604800
   5291   5288   5301     1   109.5800467 425.931200
   5294   5299   5300     1   107.2600461 396.643200
   5297   5294   5299     1   110.2600474 425.931200
   5297   5294   5298     1   108.4600466 328.025600
   5298   5294   5299     1   110.2600474 425.931200
   5303   5284   5304     1   110.2600474 425.931200
   5307   5308   5327     1   109.5600471 388.275200
   5307   5318   5321     1   109.5600471 388.275200
   5307   5318   5322     1   109.5600471 388.275200
   5308   5310   5314     1   109.5600471 388.275200
   5308   5328   5329     1   107.2600461 396.643200
   5308   5307   5309     1   109.5600471 388.275200
   5309   5307   5318     1   109.5600471 388.275200
   5309   5307   5325     1   109.7800468 425.094400
   5310   5311   5313     1   109.5600471 388.275200
   5310   5317   5319     1   107.2600461 396.643200
   5310   5308   5327     1   109.5600471 388.275200
   5311   5312   5315     1   110.2200475 386.601600
   5311   5330   5320     1   109.2900470 396.643200
   5311   5310   5314     1   109.5600471 388.275200
   5312   5316   5326     1   107.2600461 396.643200
   5312   5311   5313     1   109.5600471 388.275200
   5313   5311   5330     1   109.8800469 414.216000
   5314   5310   5317     1   110.2600474 425.931200
   5315   5312   5316     1   109.4300470 427.604800
   5315   5312   5325     1   109.5800467 425.931200
   5318   5323   5324     1   107.2600461 396.643200
   5321   5318   5323     1   110.2600474 425.931200
   5321   5318   5322     1   108.4600466 328.025600
   5322   5318   5323     1   110.2600474 425.931200
   5327   5308   5328     1   110.2600474 425.931200
   5331   5333   5334     1   108.8800464 416.726400
   5331   5333   5336     1   108.8800464 416.726400
   5332   5331   5333     1   117.6800502 383.254400
   5333   5335   5337     1   109.5600471 388.275200
   5333   5335   5338     1   109.5600471 388.275200
   5334   5333   5335     1   109.5600471 388.275200
   5334   5333   5336     1   108.4600466 328.025600
   5335   5333   5336     1   109.5600471 388.275200
   5337   5335   5339     1   109.8800469 414.216000
   5337   5335   5338     1   108.4600466 328.025600
   5338   5335   5339     1   109.8800469 414.216000
   5339   5340   5349     1   109.8800469 414.216000
   5339   5340   5350     1   109.8800469 414.216000
   5339   5341   5342     1   109.8800469 414.216000
   5339   5341   5344     1   109.8800469 414.216000
   5340   5351   5352     1   109.8000471 387.438400
   5340   5351   5353     1   109.8000471 387.438400
   5341   5343   5345     1   109.8000471 387.438400
   5341   5343   5346     1   109.8000471 387.438400
   5342   5341   5343     1   109.5600471 388.275200
   5342   5341   5344     1   108.4600466 328.025600
   5343   5341   5344     1   109.5600471 388.275200
   5345   5343   5347     1   108.7700466 392.459200
   5345   5343   5346     1   107.5800459 329.699200
   5346   5343   5347     1   108.7700466 392.459200
   5347   5379   5369     1   119.3800509 410.868800
   5349   5340   5351     1   109.5600471 388.275200
   5349   5340   5350     1   108.4600466 328.025600
   5350   5340   5351     1   109.5600471 388.275200
   5352   5351   5354     1   108.7700466 392.459200
   5352   5351   5353     1   107.5800459 329.699200
   5353   5351   5354     1   108.7700466 392.459200
   5354   5403   5393     1   119.3800509 410.868800
   5356   5357   5376     1   109.5600471 388.275200
   5356   5367   5370     1   109.5600471 388.275200
   5356   5367   5371     1   109.5600471 388.275200
   5357   5356   5358     1   109.5600471 388.275200
   5357   5359   5363     1   109.5600471 388.275200
   5357   5377   5378     1   107.2600461 396.643200
   5358   5356   5367     1   109.5600471 388.275200
   5358   5356   5374     1   109.7800468 425.094400
   5359   5357   5376     1   109.5600471 388.275200
   5359   5360   5362     1   109.5600471 388.275200
   5359   5366   5368     1   107.2600461 396.643200
   5360   5359   5363     1   109.5600471 388.275200
   5360   5361   5364     1   110.2200475 386.601600
   5360   5379   5369     1   109.2900470 396.643200
   5361   5360   5362     1   109.5600471 388.275200
   5361   5365   5375     1   107.2600461 396.643200
   5362   5360   5379     1   109.8800469 414.216000
   5363   5359   5366     1   110.2600474 425.931200
   5364   5361   5365     1   109.4300470 427.604800
   5364   5361   5374     1   109.5800467 425.931200
   5367   5372   5373     1   107.2600461 396.643200
   5370   5367   5372     1   110.2600474 425.931200
   5370   5367   5371     1   108.4600466 328.025600
   5371   5367   5372     1   110.2600474 425.931200
   5376   5357   5377     1   110.2600474 425.931200
   5380   5381   5400     1   109.5600471 388.275200
   5380   5391   5394     1   109.5600471 388.275200
   5380   5391   5395     1   109.5600471 388.275200
   5381   5380   5382     1   109.5600471 388.275200
   5381   5383   5387     1   109.5600471 388.275200
   5381   5401   5402     1   107.2600461 396.643200
   5382   5380   5391     1   109.5600471 388.275200
   5382   5380   5398     1   109.7800468 425.094400
   5383   5381   5400     1   109.5600471 388.275200
   5383   5384   5386     1   109.5600471 388.275200
   5383   5390   5392     1   107.2600461 396.643200
   5384   5383   5387     1   109.5600471 388.275200
   5384   5385   5388     1   110.2200475 386.601600
   5384   5403   5393     1   109.2900470 396.643200
   5385   5384   5386     1   109.5600471 388.275200
   5385   5389   5399     1   107.2600461 396.643200
   5386   5384   5403     1   109.8800469 414.216000
   5387   5383   5390     1   110.2600474 425.931200
   5388   5385   5389     1   109.4300470 427.604800
   5388   5385   5398     1   109.5800467 425.931200
   5391   5396   5397     1   107.2600461 396.643200
   5394   5391   5396     1   110.2600474 425.931200
   5394   5391   5395     1   108.4600466 328.025600
   5395   5391   5396     1   110.2600474 425.931200
   5400   5381   5401     1   110.2600474 425.931200
   5404   5406   5407     1   108.8800464 416.726400
   5404   5406   5409     1   108.8800464 416.726400
   5405   5404   5406     1   117.6800502 383.254400
   5406   5408   5410     1   109.5600471 388.275200
   5406   5408   5411     1   109.5600471 388.275200
   5407   5406   5408     1   109.5600471 388.275200
   5407   5406   5409     1   108.4600466 328.025600
   5408   5406   5409     1   109.5600471 388.275200
   5410   5408   5412     1   109.8800469 414.216000
   5410   5408   5411     1   108.4600466 328.025600
   5411   5408   5412     1   109.8800469 414.216000
   5412   5413   5422     1   109.8800469 414.216000
   5412   5413   5423     1   109.8800469 414.216000
   5412   5414   5415     1   109.8800469 414.216000
   5412   5414   5417     1   109.8800469 414.216000
   5413   5424   5425     1   109.8000471 387.438400
   5413   5424   5426     1   109.8000471 387.438400
   5414   5416   5418     1   109.8000471 387.438400
   5414   5416   5419     1   109.8000471 387.438400
   5415   5414   5416     1   109.5600471 388.275200
   5415   5414   5417     1   108.4600466 328.025600
   5416   5414   5417     1   109.5600471 388.275200
   5418   5416   5420     1   108.7700466 392.459200
   5418   5416   5419     1   107.5800459 329.699200
   5419   5416   5420     1   108.7700466 392.459200
   5420   5452   5442     1   119.3800509 410.868800
   5422   5413   5424     1   109.5600471 388.275200
   5422   5413   5423     1   108.4600466 328.025600
   5423   5413   5424     1   109.5600471 388.275200
   5425   5424   5427     1   108.7700466 392.459200
   5425   5424   5426     1   107.5800459 329.699200
   5426   5424   5427     1   108.7700466 392.459200
   5427   5476   5466     1   119.3800509 410.868800
   5429   5430   5449     1   109.5600471 388.275200
   5429   5440   5443     1   109.5600471 388.275200
   5429   5440   5444     1   109.5600471 388.275200
   5430   5432   5436     1   109.5600471 388.275200
   5430   5450   5451     1   107.2600461 396.643200
   5430   5429   5431     1   109.5600471 388.275200
   5431   5429   5440     1   109.5600471 388.275200
   5431   5429   5447     1   109.7800468 425.094400
   5432   5433   5435     1   109.5600471 388.275200
   5432   5439   5441     1   107.2600461 396.643200
   5432   5430   5449     1   109.5600471 388.275200
   5433   5434   5437     1   110.2200475 386.601600
   5433   5452   5442     1   109.2900470 396.643200
   5433   5432   5436     1   109.5600471 388.275200
   5434   5438   5448     1   107.2600461 396.643200
   5434   5433   5435     1   109.5600471 388.275200
   5435   5433   5452     1   109.8800469 414.216000
   5436   5432   5439     1   110.2600474 425.931200
   5437   5434   5438     1   109.4300470 427.604800
   5437   5434   5447     1   109.5800467 425.931200
   5440   5445   5446     1   107.2600461 396.643200
   5443   5440   5445     1   110.2600474 425.931200
   5443   5440   5444     1   108.4600466 328.025600
   5444   5440   5445     1   110.2600474 425.931200
   5449   5430   5450     1   110.2600474 425.931200
   5453   5454   5473     1   109.5600471 388.275200
   5453   5464   5467     1   109.5600471 388.275200
   5453   5464   5468     1   109.5600471 388.275200
   5454   5456   5460     1   109.5600471 388.275200
   5454   5474   5475     1   107.2600461 396.643200
   5454   5453   5455     1   109.5600471 388.275200
   5455   5453   5464     1   109.5600471 388.275200
   5455   5453   5471     1   109.7800468 425.094400
   5456   5457   5459     1   109.5600471 388.275200
   5456   5463   5465     1   107.2600461 396.643200
   5456   5454   5473     1   109.5600471 388.275200
   5457   5458   5461     1   110.2200475 386.601600
   5457   5476   5466     1   109.2900470 396.643200
   5457   5456   5460     1   109.5600471 388.275200
   5458   5462   5472     1   107.2600461 396.643200
   5458   5457   5459     1   109.5600471 388.275200
   5459   5457   5476     1   109.8800469 414.216000
   5460   5456   5463     1   110.2600474 425.931200
   5461   5458   5462     1   109.4300470 427.604800
   5461   5458   5471     1   109.5800467 425.931200
   5464   5469   5470     1   107.2600461 396.643200
   5467   5464   5469     1   110.2600474 425.931200
   5467   5464   5468     1   108.4600466 328.025600
   5468   5464   5469     1   110.2600474 425.931200
   5473   5454   5474     1   110.2600474 425.931200
   5477   5479   5480     1   108.8800464 416.726400
   5477   5479   5482     1   108.8800464 416.726400
   5478   5477   5479     1   117.6800502 383.254400
   5479   5481   5483     1   109.5600471 388.275200
   5479   5481   5484     1   109.5600471 388.275200
   5480   5479   5481     1   109.5600471 388.275200
   5480   5479   5482     1   108.4600466 328.025600
   5481   5479   5482     1   109.5600471 388.275200
   5483   5481   5485     1   109.8800469 414.216000
   5483   5481   5484     1   108.4600466 328.025600
   5484   5481   5485     1   109.8800469 414.216000
   5485   5486   5495     1   109.8800469 414.216000
   5485   5486   5496     1   109.8800469 414.216000
   5485   5487   5488     1   109.8800469 414.216000
   5485   5487   5490     1   109.8800469 414.216000
   5486   5497   5498     1   109.8000471 387.438400
   5486   5497   5499     1   109.8000471 387.438400
   5487   5489   5491     1   109.8000471 387.438400
   5487   5489   5492     1   109.8000471 387.438400
   5488   5487   5489     1   109.5600471 388.275200
   5488   5487   5490     1   108.4600466 328.025600
   5489   5487   5490     1   109.5600471 388.275200
   5491   5489   5493     1   108.7700466 392.459200
   5491   5489   5492     1   107.5800459 329.699200
   5492   5489   5493     1   108.7700466 392.459200
   5493   5525   5515     1   119.3800509 410.868800
   5495   5486   5497     1   109.5600471 388.275200
   5495   5486   5496     1   108.4600466 328.025600
   5496   5486   5497     1   109.5600471 388.275200
   5498   5497   5500     1   108.7700466 392.459200
   5498   5497   5499     1   107.5800459 329.699200
   5499   5497   5500     1   108.7700466 392.459200
   5500   5549   5539     1   119.3800509 410.868800
   5502   5503   5522     1   109.5600471 388.275200
   5502   5513   5516     1   109.5600471 388.275200
   5502   5513   5517     1   109.5600471 388.275200
   5503   5502   5504     1   109.5600471 388.275200
   5503   5505   5509     1   109.5600471 388.275200
   5503   5523   5524     1   107.2600461 396.643200
   5504   5502   5513     1   109.5600471 388.275200
   5504   5502   5520     1   109.7800468 425.094400
   5505   5503   5522     1   109.5600471 388.275200
   5505   5506   5508     1   109.5600471 388.275200
   5505   5512   5514     1   107.2600461 396.643200
   5506   5505   5509     1   109.5600471 388.275200
   5506   5507   5510     1   110.2200475 386.601600
   5506   5525   5515     1   109.2900470 396.643200
   5507   5506   5508     1   109.5600471 388.275200
   5507   5511   5521     1   107.2600461 396.643200
   5508   5506   5525     1   109.8800469 414.216000
   5509   5505   5512     1   110.2600474 425.931200
   5510   5507   5511     1   109.4300470 427.604800
   5510   5507   5520     1   109.5800467 425.931200
   5513   5518   5519     1   107.2600461 396.643200
   5516   5513   5518     1   110.2600474 425.931200
   5516   5513   5517     1   108.4600466 328.025600
   5517   5513   5518     1   110.2600474 425.931200
   5522   5503   5523     1   110.2600474 425.931200
   5526   5527   5546     1   109.5600471 388.275200
   5526   5537   5540     1   109.5600471 388.275200
   5526   5537   5541     1   109.5600471 388.275200
   5527   5526   5528     1   109.5600471 388.275200
   5527   5529   5533     1   109.5600471 388.275200
   5527   5547   5548     1   107.2600461 396.643200
   5528   5526   5537     1   109.5600471 388.275200
   5528   5526   5544     1   109.7800468 425.094400
   5529   5527   5546     1   109.5600471 388.275200
   5529   5530   5532     1   109.5600471 388.275200
   5529   5536   5538     1   107.2600461 396.643200
   5530   5529   5533     1   109.5600471 388.275200
   5530   5531   5534     1   110.2200475 386.601600
   5530   5549   5539     1   109.2900470 396.643200
   5531   5530   5532     1   109.5600471 388.275200
   5531   5535   5545     1   107.2600461 396.643200
   5532   5530   5549     1   109.8800469 414.216000
   5533   5529   5536     1   110.2600474 425.931200
   5534   5531   5535     1   109.4300470 427.604800
   5534   5531   5544     1   109.5800467 425.931200
   5537   5542   5543     1   107.2600461 396.643200
   5540   5537   5542     1   110.2600474 425.931200
   5540   5537   5541     1   108.4600466 328.025600
   5541   5537   5542     1   110.2600474 425.931200
   5546   5527   5547     1   110.2600474 425.931200
   5550   5552   5553     1   108.8800464 416.726400
   5550   5552   5555     1   108.8800464 416.726400
   5551   5550   5552     1   117.6800502 383.254400
   5552   5554   5556     1   109.5600471 388.275200
   5552   5554   5557     1   109.5600471 388.275200
   5553   5552   5554     1   109.5600471 388.275200
   5553   5552   5555     1   108.4600466 328.025600
   5554   5552   5555     1   109.5600471 388.275200
   5556   5554   5558     1   109.8800469 414.216000
   5556   5554   5557     1   108.4600466 328.025600
   5557   5554   5558     1   109.8800469 414.216000
   5558   5559   5568     1   109.8800469 414.216000
   5558   5559   5569     1   109.8800469 414.216000
   5558   5560   5561     1   109.8800469 414.216000
   5558   5560   5563     1   109.8800469 414.216000
   5559   5570   5571     1   109.8000471 387.438400
   5559   5570   5572     1   109.8000471 387.438400
   5560   5562   5564     1   109.8000471 387.438400
   5560   5562   5565     1   109.8000471 387.438400
   5561   5560   5562     1   109.5600471 388.275200
   5561   5560   5563     1   108.4600466 328.025600
   5562   5560   5563     1   109.5600471 388.275200
   5564   5562   5566     1   108.7700466 392.459200
   5564   5562   5565     1   107.5800459 329.699200
   5565   5562   5566     1   108.7700466 392.459200
   5566   5598   5588     1   119.3800509 410.868800
   5568   5559   5570     1   109.5600471 388.275200
   5568   5559   5569     1   108.4600466 328.025600
   5569   5559   5570     1   109.5600471 388.275200
   5571   5570   5573     1   108.7700466 392.459200
   5571   5570   5572     1   107.5800459 329.699200
   5572   5570   5573     1   108.7700466 392.459200
   5573   5622   5612     1   119.3800509 410.868800
   5575   5576   5595     1   109.5600471 388.275200
   5575   5586   5589     1   109.5600471 388.275200
   5575   5586   5590     1   109.5600471 388.275200
   5576   5578   5582     1   109.5600471 388.275200
   5576   5596   5597     1   107.2600461 396.643200
   5576   5575   5577     1   109.5600471 388.275200
   5577   5575   5586     1   109.5600471 388.275200
   5577   5575   5593     1   109.7800468 425.094400
   5578   5579   5581     1   109.5600471 388.275200
   5578   5585   5587     1   107.2600461 396.643200
   5578   5576   5595     1   109.5600471 388.275200
   5579   5580   5583     1   110.2200475 386.601600
   5579   5598   5588     1   109.2900470 396.643200
   5579   5578   5582     1   109.5600471 388.275200
   5580   5584   5594     1   107.2600461 396.643200
   5580   5579   5581     1   109.5600471 388.275200
   5581   5579   5598     1   109.8800469 414.216000
   5582   5578   5585     1   110.2600474 425.931200
   5583   5580   5584     1   109.4300470 427.604800
   5583   5580   5593     1   109.5800467 425.931200
   5586   5591   5592     1   107.2600461 396.643200
   5589   5586   5591     1   110.2600474 425.931200
   5589   5586   5590     1   108.4600466 328.025600
   5590   5586   5591     1   110.2600474 425.931200
   5595   5576   5596     1   110.2600474 425.931200
   5599   5600   5619     1   109.5600471 388.275200
   5599   5610   5613     1   109.5600471 388.275200
   5599   5610   5614     1   109.5600471 388.275200
   5600   5602   5606     1   109.5600471 388.275200
   5600   5620   5621     1   107.2600461 396.643200
   5600   5599   5601     1   109.5600471 388.275200
   5601   5599   5610     1   109.5600471 388.275200
   5601   5599   5617     1   109.7800468 425.094400
   5602   5603   5605     1   109.5600471 388.275200
   5602   5609   5611     1   107.2600461 396.643200
   5602   5600   5619     1   109.5600471 388.275200
   5603   5604   5607     1   110.2200475 386.601600
   5603   5622   5612     1   109.2900470 396.643200
   5603   5602   5606     1   109.5600471 388.275200
   5604   5608   5618     1   107.2600461 396.643200
   5604   5603   5605     1   109.5600471 388.275200
   5605   5603   5622     1   109.8800469 414.216000
   5606   5602   5609     1   110.2600474 425.931200
   5607   5604   5608     1   109.4300470 427.604800
   5607   5604   5617     1   109.5800467 425.931200
   5610   5615   5616     1   107.2600461 396.643200
   5613   5610   5615     1   110.2600474 425.931200
   5613   5610   5614     1   108.4600466 328.025600
   5614   5610   5615     1   110.2600474 425.931200
   5619   5600   5620     1   110.2600474 425.931200
   5623   5625   5626     1   108.8800464 416.726400
   5623   5625   5628     1   108.8800464 416.726400
   5624   5623   5625     1   117.6800502 383.254400
   5625   5627   5629     1   109.5600471 388.275200
   5625   5627   5630     1   109.5600471 388.275200
   5626   5625   5627     1   109.5600471 388.275200
   5626   5625   5628     1   108.4600466 328.025600
   5627   5625   5628     1   109.5600471 388.275200
   5629   5627   5631     1   109.8800469 414.216000
   5629   5627   5630     1   108.4600466 328.025600
   5630   5627   5631     1   109.8800469 414.216000
   5631   5632   5641     1   109.8800469 414.216000
   5631   5632   5642     1   109.8800469 414.216000
   5631   5633   5634     1   109.8800469 414.216000
   5631   5633   5636     1   109.8800469 414.216000
   5632   5643   5644     1   109.8000471 387.438400
   5632   5643   5645     1   109.8000471 387.438400
   5633   5635   5637     1   109.8000471 387.438400
   5633   5635   5638     1   109.8000471 387.438400
   5634   5633   5635     1   109.5600471 388.275200
   5634   5633   5636     1   108.4600466 328.025600
   5635   5633   5636     1   109.5600471 388.275200
   5637   5635   5639     1   108.7700466 392.459200
   5637   5635   5638     1   107.5800459 329.699200
   5638   5635   5639     1   108.7700466 392.459200
   5639   5671   5661     1   119.3800509 410.868800
   5641   5632   5643     1   109.5600471 388.275200
   5641   5632   5642     1   108.4600466 328.025600
   5642   5632   5643     1   109.5600471 388.275200
   5644   5643   5646     1   108.7700466 392.459200
   5644   5643   5645     1   107.5800459 329.699200
   5645   5643   5646     1   108.7700466 392.459200
   5646   5695   5685     1   119.3800509 410.868800
   5648   5649   5668     1   109.5600471 388.275200
   5648   5659   5662     1   109.5600471 388.275200
   5648   5659   5663     1   109.5600471 388.275200
   5649   5648   5650     1   109.5600471 388.275200
   5649   5651   5655     1   109.5600471 388.275200
   5649   5669   5670     1   107.2600461 396.643200
   5650   5648   5659     1   109.5600471 388.275200
   5650   5648   5666     1   109.7800468 425.094400
   5651   5649   5668     1   109.5600471 388.275200
   5651   5652   5654     1   109.5600471 388.275200
   5651   5658   5660     1   107.2600461 396.643200
   5652   5651   5655     1   109.5600471 388.275200
   5652   5653   5656     1   110.2200475 386.601600
   5652   5671   5661     1   109.2900470 396.643200
   5653   5652   5654     1   109.5600471 388.275200
   5653   5657   5667     1   107.2600461 396.643200
   5654   5652   5671     1   109.8800469 414.216000
   5655   5651   5658     1   110.2600474 425.931200
   5656   5653   5657     1   109.4300470 427.604800
   5656   5653   5666     1   109.5800467 425.931200
   5659   5664   5665     1   107.2600461 396.643200
   5662   5659   5664     1   110.2600474 425.931200
   5662   5659   5663     1   108.4600466 328.025600
   5663   5659   5664     1   110.2600474 425.931200
   5668   5649   5669     1   110.2600474 425.931200
   5672   5673   5692     1   109.5600471 388.275200
   5672   5683   5686     1   109.5600471 388.275200
   5672   5683   5687     1   109.5600471 388.275200
   5673   5672   5674     1   109.5600471 388.275200
   5673   5675   5679     1   109.5600471 388.275200
   5673   5693   5694     1   107.2600461 396.643200
   5674   5672   5683     1   109.5600471 388.275200
   5674   5672   5690     1   109.7800468 425.094400
   5675   5673   5692     1   109.5600471 388.275200
   5675   5676   5678     1   109.5600471 388.275200
   5675   5682   5684     1   107.2600461 396.643200
   5676   5675   5679     1   109.5600471 388.275200
   5676   5677   5680     1   110.2200475 386.601600
   5676   5695   5685     1   109.2900470 396.643200
   5677   5676   5678     1   109.5600471 388.275200
   5677   5681   5691     1   107.2600461 396.643200
   5678   5676   5695     1   109.8800469 414.216000
   5679   5675   5682     1   110.2600474 425.931200
   5680   5677   5681     1   109.4300470 427.604800
   5680   5677   5690     1   109.5800467 425.931200
   5683   5688   5689     1   107.2600461 396.643200
   5686   5683   5688     1   110.2600474 425.931200
   5686   5683   5687     1   108.4600466 328.025600
   5687   5683   5688     1   110.2600474 425.931200
   5692   5673   5693     1   110.2600474 425.931200
   5696   5698   5699     1   108.8800464 416.726400
   5696   5698   5701     1   108.8800464 416.726400
   5697   5696   5698     1   117.6800502 383.254400
   5698   5700   5702     1   109.5600471 388.275200
   5698   5700   5703     1   109.5600471 388.275200
   5699   5698   5700     1   109.5600471 388.275200
   5699   5698   5701     1   108.4600466 328.025600
   5700   5698   5701     1   109.5600471 388.275200
   5702   5700   5704     1   109.8800469 414.216000
   5702   5700   5703     1   108.4600466 328.025600
   5703   5700   5704     1   109.8800469 414.216000
   5704   5705   5714     1   109.8800469 414.216000
   5704   5705   5715     1   109.8800469 414.216000
   5704   5706   5707     1   109.8800469 414.216000
   5704   5706   5709     1   109.8800469 414.216000
   5705   5716   5717     1   109.8000471 387.438400
   5705   5716   5718     1   109.8000471 387.438400
   5706   5708   5710     1   109.8000471 387.438400
   5706   5708   5711     1   109.8000471 387.438400
   5707   5706   5708     1   109.5600471 388.275200
   5707   5706   5709     1   108.4600466 328.025600
   5708   5706   5709     1   109.5600471 388.275200
   5710   5708   5712     1   108.7700466 392.459200
   5710   5708   5711     1   107.5800459 329.699200
   5711   5708   5712     1   108.7700466 392.459200
   5712   5744   5734     1   119.3800509 410.868800
   5714   5705   5716     1   109.5600471 388.275200
   5714   5705   5715     1   108.4600466 328.025600
   5715   5705   5716     1   109.5600471 388.275200
   5717   5716   5719     1   108.7700466 392.459200
   5717   5716   5718     1   107.5800459 329.699200
   5718   5716   5719     1   108.7700466 392.459200
   5719   5768   5758     1   119.3800509 410.868800
   5721   5722   5741     1   109.5600471 388.275200
   5721   5732   5735     1   109.5600471 388.275200
   5721   5732   5736     1   109.5600471 388.275200
   5722   5724   5728     1   109.5600471 388.275200
   5722   5742   5743     1   107.2600461 396.643200
   5722   5721   5723     1   109.5600471 388.275200
   5723   5721   5732     1   109.5600471 388.275200
   5723   5721   5739     1   109.7800468 425.094400
   5724   5725   5727     1   109.5600471 388.275200
   5724   5731   5733     1   107.2600461 396.643200
   5724   5722   5741     1   109.5600471 388.275200
   5725   5726   5729     1   110.2200475 386.601600
   5725   5744   5734     1   109.2900470 396.643200
   5725   5724   5728     1   109.5600471 388.275200
   5726   5730   5740     1   107.2600461 396.643200
   5726   5725   5727     1   109.5600471 388.275200
   5727   5725   5744     1   109.8800469 414.216000
   5728   5724   5731     1   110.2600474 425.931200
   5729   5726   5730     1   109.4300470 427.604800
   5729   5726   5739     1   109.5800467 425.931200
   5732   5737   5738     1   107.2600461 396.643200
   5735   5732   5737     1   110.2600474 425.931200
   5735   5732   5736     1   108.4600466 328.025600
   5736   5732   5737     1   110.2600474 425.931200
   5741   5722   5742     1   110.2600474 425.931200
   5745   5746   5765     1   109.5600471 388.275200
   5745   5756   5759     1   109.5600471 388.275200
   5745   5756   5760     1   109.5600471 388.275200
   5746   5748   5752     1   109.5600471 388.275200
   5746   5766   5767     1   107.2600461 396.643200
   5746   5745   5747     1   109.5600471 388.275200
   5747   5745   5756     1   109.5600471 388.275200
   5747   5745   5763     1   109.7800468 425.094400
   5748   5749   5751     1   109.5600471 388.275200
   5748   5755   5757     1   107.2600461 396.643200
   5748   5746   5765     1   109.5600471 388.275200
   5749   5750   5753     1   110.2200475 386.601600
   5749   5768   5758     1   109.2900470 396.643200
   5749   5748   5752     1   109.5600471 388.275200
   5750   5754   5764     1   107.2600461 396.643200
   5750   5749   5751     1   109.5600471 388.275200
   5751   5749   5768     1   109.8800469 414.216000
   5752   5748   5755     1   110.2600474 425.931200
   5753   5750   5754     1   109.4300470 427.604800
   5753   5750   5763     1   109.5800467 425.931200
   5756   5761   5762     1   107.2600461 396.643200
   5759   5756   5761     1   110.2600474 425.931200
   5759   5756   5760     1   108.4600466 328.025600
   5760   5756   5761     1   110.2600474 425.931200
   5765   5746   5766     1   110.2600474 425.931200
   5769   5771   5772     1   108.8800464 416.726400
   5769   5771   5774     1   108.8800464 416.726400
   5770   5769   5771     1   117.6800502 383.254400
   5771   5773   5775     1   109.5600471 388.275200
   5771   5773   5776     1   109.5600471 388.275200
   5772   5771   5773     1   109.5600471 388.275200
   5772   5771   5774     1   108.4600466 328.025600
   5773   5771   5774     1   109.5600471 388.275200
   5775   5773   5777     1   109.8800469 414.216000
   5775   5773   5776     1   108.4600466 328.025600
   5776   5773   5777     1   109.8800469 414.216000
   5777   5778   5787     1   109.8800469 414.216000
   5777   5778   5788     1   109.8800469 414.216000
   5777   5779   5780     1   109.8800469 414.216000
   5777   5779   5782     1   109.8800469 414.216000
   5778   5789   5790     1   109.8000471 387.438400
   5778   5789   5791     1   109.8000471 387.438400
   5779   5781   5783     1   109.8000471 387.438400
   5779   5781   5784     1   109.8000471 387.438400
   5780   5779   5781     1   109.5600471 388.275200
   5780   5779   5782     1   108.4600466 328.025600
   5781   5779   5782     1   109.5600471 388.275200
   5783   5781   5785     1   108.7700466 392.459200
   5783   5781   5784     1   107.5800459 329.699200
   5784   5781   5785     1   108.7700466 392.459200
   5785   5817   5807     1   119.3800509 410.868800
   5787   5778   5789     1   109.5600471 388.275200
   5787   5778   5788     1   108.4600466 328.025600
   5788   5778   5789     1   109.5600471 388.275200
   5790   5789   5792     1   108.7700466 392.459200
   5790   5789   5791     1   107.5800459 329.699200
   5791   5789   5792     1   108.7700466 392.459200
   5792   5841   5831     1   119.3800509 410.868800
   5794   5795   5814     1   109.5600471 388.275200
   5794   5805   5808     1   109.5600471 388.275200
   5794   5805   5809     1   109.5600471 388.275200
   5795   5794   5796     1   109.5600471 388.275200
   5795   5797   5801     1   109.5600471 388.275200
   5795   5815   5816     1   107.2600461 396.643200
   5796   5794   5805     1   109.5600471 388.275200
   5796   5794   5812     1   109.7800468 425.094400
   5797   5795   5814     1   109.5600471 388.275200
   5797   5798   5800     1   109.5600471 388.275200
   5797   5804   5806     1   107.2600461 396.643200
   5798   5797   5801     1   109.5600471 388.275200
   5798   5799   5802     1   110.2200475 386.601600
   5798   5817   5807     1   109.2900470 396.643200
   5799   5798   5800     1   109.5600471 388.275200
   5799   5803   5813     1   107.2600461 396.643200
   5800   5798   5817     1   109.8800469 414.216000
   5801   5797   5804     1   110.2600474 425.931200
   5802   5799   5803     1   109.4300470 427.604800
   5802   5799   5812     1   109.5800467 425.931200
   5805   5810   5811     1   107.2600461 396.643200
   5808   5805   5810     1   110.2600474 425.931200
   5808   5805   5809     1   108.4600466 328.025600
   5809   5805   5810     1   110.2600474 425.931200
   5814   5795   5815     1   110.2600474 425.931200
   5818   5819   5838     1   109.5600471 388.275200
   5818   5829   5832     1   109.5600471 388.275200
   5818   5829   5833     1   109.5600471 388.275200
   5819   5818   5820     1   109.5600471 388.275200
   5819   5821   5825     1   109.5600471 388.275200
   5819   5839   5840     1   107.2600461 396.643200
   5820   5818   5829     1   109.5600471 388.275200
   5820   5818   5836     1   109.7800468 425.094400
   5821   5819   5838     1   109.5600471 388.275200
   5821   5822   5824     1   109.5600471 388.275200
   5821   5828   5830     1   107.2600461 396.643200
   5822   5821   5825     1   109.5600471 388.275200
   5822   5823   5826     1   110.2200475 386.601600
   5822   5841   5831     1   109.2900470 396.643200
   5823   5822   5824     1   109.5600471 388.275200
   5823   5827   5837     1   107.2600461 396.643200
   5824   5822   5841     1   109.8800469 414.216000
   5825   5821   5828     1   110.2600474 425.931200
   5826   5823   5827     1   109.4300470 427.604800
   5826   5823   5836     1   109.5800467 425.931200
   5829   5834   5835     1   107.2600461 396.643200
   5832   5829   5834     1   110.2600474 425.931200
   5832   5829   5833     1   108.4600466 328.025600
   5833   5829   5834     1   110.2600474 425.931200
   5838   5819   5839     1   110.2600474 425.931200
   5842   5844   5845     1   108.8800464 416.726400
   5842   5844   5847     1   108.8800464 416.726400
   5843   5842   5844     1   117.6800502 383.254400
   5844   5846   5848     1   109.5600471 388.275200
   5844   5846   5849     1   109.5600471 388.275200
   5845   5844   5846     1   109.5600471 388.275200
   5845   5844   5847     1   108.4600466 328.025600
   5846   5844   5847     1   109.5600471 388.275200
   5848   5846   5850     1   109.8800469 414.216000
   5848   5846   5849     1   108.4600466 328.025600
   5849   5846   5850     1   109.8800469 414.216000
   5850   5851   5860     1   109.8800469 414.216000
   5850   5851   5861     1   109.8800469 414.216000
   5850   5852   5853     1   109.8800469 414.216000
   5850   5852   5855     1   109.8800469 414.216000
   5851   5862   5863     1   109.8000471 387.438400
   5851   5862   5864     1   109.8000471 387.438400
   5852   5854   5856     1   109.8000471 387.438400
   5852   5854   5857     1   109.8000471 387.438400
   5853   5852   5854     1   109.5600471 388.275200
   5853   5852   5855     1   108.4600466 328.025600
   5854   5852   5855     1   109.5600471 388.275200
   5856   5854   5858     1   108.7700466 392.459200
   5856   5854   5857     1   107.5800459 329.699200
   5857   5854   5858     1   108.7700466 392.459200
   5858   5890   5880     1   119.3800509 410.868800
   5860   5851   5862     1   109.5600471 388.275200
   5860   5851   5861     1   108.4600466 328.025600
   5861   5851   5862     1   109.5600471 388.275200
   5863   5862   5865     1   108.7700466 392.459200
   5863   5862   5864     1   107.5800459 329.699200
   5864   5862   5865     1   108.7700466 392.459200
   5865   5914   5904     1   119.3800509 410.868800
   5867   5868   5887     1   109.5600471 388.275200
   5867   5878   5881     1   109.5600471 388.275200
   5867   5878   5882     1   109.5600471 388.275200
   5868   5870   5874     1   109.5600471 388.275200
   5868   5888   5889     1   107.2600461 396.643200
   5868   5867   5869     1   109.5600471 388.275200
   5869   5867   5878     1   109.5600471 388.275200
   5869   5867   5885     1   109.7800468 425.094400
   5870   5871   5873     1   109.5600471 388.275200
   5870   5877   5879     1   107.2600461 396.643200
   5870   5868   5887     1   109.5600471 388.275200
   5871   5872   5875     1   110.2200475 386.601600
   5871   5890   5880     1   109.2900470 396.643200
   5871   5870   5874     1   109.5600471 388.275200
   5872   5876   5886     1   107.2600461 396.643200
   5872   5871   5873     1   109.5600471 388.275200
   5873   5871   5890     1   109.8800469 414.216000
   5874   5870   5877     1   110.2600474 425.931200
   5875   5872   5876     1   109.4300470 427.604800
   5875   5872   5885     1   109.5800467 425.931200
   5878   5883   5884     1   107.2600461 396.643200
   5881   5878   5883     1   110.2600474 425.931200
   5881   5878   5882     1   108.4600466 328.025600
   5882   5878   5883     1   110.2600474 425.931200
   5887   5868   5888     1   110.2600474 425.931200
   5891   5892   5911     1   109.5600471 388.275200
   5891   5902   5905     1   109.5600471 388.275200
   5891   5902   5906     1   109.5600471 388.275200
   5892   5894   5898     1   109.5600471 388.275200
   5892   5912   5913     1   107.2600461 396.643200
   5892   5891   5893     1   109.5600471 388.275200
   5893   5891   5902     1   109.5600471 388.275200
   5893   5891   5909     1   109.7800468 425.094400
   5894   5895   5897     1   109.5600471 388.275200
   5894   5901   5903     1   107.2600461 396.643200
   5894   5892   5911     1   109.5600471 388.275200
   5895   5896   5899     1   110.2200475 386.601600
   5895   5914   5904     1   109.2900470 396.643200
   5895   5894   5898     1   109.5600471 388.275200
   5896   5900   5910     1   107.2600461 396.643200
   5896   5895   5897     1   109.5600471 388.275200
   5897   5895   5914     1   109.8800469 414.216000
   5898   5894   5901     1   110.2600474 425.931200
   5899   5896   5900     1   109.4300470 427.604800
   5899   5896   5909     1   109.5800467 425.931200
   5902   5907   5908     1   107.2600461 396.643200
   5905   5902   5907     1   110.2600474 425.931200
   5905   5902   5906     1   108.4600466 328.025600
   5906   5902   5907     1   110.2600474 425.931200
   5911   5892   5912     1   110.2600474 425.931200
   5915   5917   5918     1   108.8800464 416.726400
   5915   5917   5920     1   108.8800464 416.726400
   5916   5915   5917     1   117.6800502 383.254400
   5917   5919   5921     1   109.5600471 388.275200
   5917   5919   5922     1   109.5600471 388.275200
   5918   5917   5919     1   109.5600471 388.275200
   5918   5917   5920     1   108.4600466 328.025600
   5919   5917   5920     1   109.5600471 388.275200
   5921   5919   5923     1   109.8800469 414.216000
   5921   5919   5922     1   108.4600466 328.025600
   5922   5919   5923     1   109.8800469 414.216000
   5923   5924   5933     1   109.8800469 414.216000
   5923   5924   5934     1   109.8800469 414.216000
   5923   5925   5926     1   109.8800469 414.216000
   5923   5925   5928     1   109.8800469 414.216000
   5924   5935   5936     1   109.8000471 387.438400
   5924   5935   5937     1   109.8000471 387.438400
   5925   5927   5929     1   109.8000471 387.438400
   5925   5927   5930     1   109.8000471 387.438400
   5926   5925   5927     1   109.5600471 388.275200
   5926   5925   5928     1   108.4600466 328.025600
   5927   5925   5928     1   109.5600471 388.275200
   5929   5927   5931     1   108.7700466 392.459200
   5929   5927   5930     1   107.5800459 329.699200
   5930   5927   5931     1   108.7700466 392.459200
   5931   5963   5953     1   119.3800509 410.868800
   5933   5924   5935     1   109.5600471 388.275200
   5933   5924   5934     1   108.4600466 328.025600
   5934   5924   5935     1   109.5600471 388.275200
   5936   5935   5938     1   108.7700466 392.459200
   5936   5935   5937     1   107.5800459 329.699200
   5937   5935   5938     1   108.7700466 392.459200
   5938   5987   5977     1   119.3800509 410.868800
   5940   5941   5960     1   109.5600471 388.275200
   5940   5951   5954     1   109.5600471 388.275200
   5940   5951   5955     1   109.5600471 388.275200
   5941   5940   5942     1   109.5600471 388.275200
   5941   5943   5947     1   109.5600471 388.275200
   5941   5961   5962     1   107.2600461 396.643200
   5942   5940   5951     1   109.5600471 388.275200
   5942   5940   5958     1   109.7800468 425.094400
   5943   5941   5960     1   109.5600471 388.275200
   5943   5944   5946     1   109.5600471 388.275200
   5943   5950   5952     1   107.2600461 396.643200
   5944   5943   5947     1   109.5600471 388.275200
   5944   5945   5948     1   110.2200475 386.601600
   5944   5963   5953     1   109.2900470 396.643200
   5945   5944   5946     1   109.5600471 388.275200
   5945   5949   5959     1   107.2600461 396.643200
   5946   5944   5963     1   109.8800469 414.216000
   5947   5943   5950     1   110.2600474 425.931200
   5948   5945   5949     1   109.4300470 427.604800
   5948   5945   5958     1   109.5800467 425.931200
   5951   5956   5957     1   107.2600461 396.643200
   5954   5951   5956     1   110.2600474 425.931200
   5954   5951   5955     1   108.4600466 328.025600
   5955   5951   5956     1   110.2600474 425.931200
   5960   5941   5961     1   110.2600474 425.931200
   5964   5965   5984     1   109.5600471 388.275200
   5964   5975   5978     1   109.5600471 388.275200
   5964   5975   5979     1   109.5600471 388.275200
   5965   5964   5966     1   109.5600471 388.275200
   5965   5967   5971     1   109.5600471 388.275200
   5965   5985   5986     1   107.2600461 396.643200
   5966   5964   5975     1   109.5600471 388.275200
   5966   5964   5982     1   109.7800468 425.094400
   5967   5965   5984     1   109.5600471 388.275200
   5967   5968   5970     1   109.5600471 388.275200
   5967   5974   5976     1   107.2600461 396.643200
   5968   5967   5971     1   109.5600471 388.275200
   5968   5969   5972     1   110.2200475 386.601600
   5968   5987   5977     1   109.2900470 396.643200
   5969   5968   5970     1   109.5600471 388.275200
   5969   5973   5983     1   107.2600461 396.643200
   5970   5968   5987     1   109.8800469 414.216000
   5971   5967   5974     1   110.2600474 425.931200
   5972   5969   5973     1   109.4300470 427.604800
   5972   5969   5982     1   109.5800467 425.931200
   5975   5980   5981     1   107.2600461 396.643200
   5978   5975   5980     1   110.2600474 425.931200
   5978   5975   5979     1   108.4600466 328.025600
   5979   5975   5980     1   110.2600474 425.931200
   5984   5965   5985     1   110.2600474 425.931200
   5988   5990   5991     1   108.8800464 416.726400
   5988   5990   5993     1   108.8800464 416.726400
   5989   5988   5990     1   117.6800502 383.254400
   5990   5992   5994     1   109.5600471 388.275200
   5990   5992   5995     1   109.5600471 388.275200
   5991   5990   5992     1   109.5600471 388.275200
   5991   5990   5993     1   108.4600466 328.025600
   5992   5990   5993     1   109.5600471 388.275200
   5994   5992   5996     1   109.8800469 414.216000
   5994   5992   5995     1   108.4600466 328.025600
   5995   5992   5996     1   109.8800469 414.216000
   5996   5997   6006     1   109.8800469 414.216000
   5996   5997   6007     1   109.8800469 414.216000
   5996   5998   5999     1   109.8800469 414.216000
   5996   5998   6001     1   109.8800469 414.216000
   5997   6008   6009     1   109.8000471 387.438400
   5997   6008   6010     1   109.8000471 387.438400
   5998   6000   6002     1   109.8000471 387.438400
   5998   6000   6003     1   109.8000471 387.438400
   5999   5998   6000     1   109.5600471 388.275200
   5999   5998   6001     1   108.4600466 328.025600
   6000   5998   6001     1   109.5600471 388.275200
   6002   6000   6004     1   108.7700466 392.459200
   6002   6000   6003     1   107.5800459 329.699200
   6003   6000   6004     1   108.7700466 392.459200
   6004   6036   6026     1   119.3800509 410.868800
   6006   5997   6008     1   109.5600471 388.275200
   6006   5997   6007     1   108.4600466 328.025600
   6007   5997   6008     1   109.5600471 388.275200
   6009   6008   6011     1   108.7700466 392.459200
   6009   6008   6010     1   107.5800459 329.699200
   6010   6008   6011     1   108.7700466 392.459200
   6011   6060   6050     1   119.3800509 410.868800
   6013   6014   6033     1   109.5600471 388.275200
   6013   6024   6027     1   109.5600471 388.275200
   6013   6024   6028     1   109.5600471 388.275200
   6014   6016   6020     1   109.5600471 388.275200
   6014   6034   6035     1   107.2600461 396.643200
   6014   6013   6015     1   109.5600471 388.275200
   6015   6013   6024     1   109.5600471 388.275200
   6015   6013   6031     1   109.7800468 425.094400
   6016   6017   6019     1   109.5600471 388.275200
   6016   6023   6025     1   107.2600461 396.643200
   6016   6014   6033     1   109.5600471 388.275200
   6017   6018   6021     1   110.2200475 386.601600
   6017   6036   6026     1   109.2900470 396.643200
   6017   6016   6020     1   109.5600471 388.275200
   6018   6022   6032     1   107.2600461 396.643200
   6018   6017   6019     1   109.5600471 388.275200
   6019   6017   6036     1   109.8800469 414.216000
   6020   6016   6023     1   110.2600474 425.931200
   6021   6018   6022     1   109.4300470 427.604800
   6021   6018   6031     1   109.5800467 425.931200
   6024   6029   6030     1   107.2600461 396.643200
   6027   6024   6029     1   110.2600474 425.931200
   6027   6024   6028     1   108.4600466 328.025600
   6028   6024   6029     1   110.2600474 425.931200
   6033   6014   6034     1   110.2600474 425.931200
   6037   6038   6057     1   109.5600471 388.275200
   6037   6048   6051     1   109.5600471 388.275200
   6037   6048   6052     1   109.5600471 388.275200
   6038   6040   6044     1   109.5600471 388.275200
   6038   6058   6059     1   107.2600461 396.643200
   6038   6037   6039     1   109.5600471 388.275200
   6039   6037   6048     1   109.5600471 388.275200
   6039   6037   6055     1   109.7800468 425.094400
   6040   6041   6043     1   109.5600471 388.275200
   6040   6047   6049     1   107.2600461 396.643200
   6040   6038   6057     1   109.5600471 388.275200
   6041   6042   6045     1   110.2200475 386.601600
   6041   6060   6050     1   109.2900470 396.643200
   6041   6040   6044     1   109.5600471 388.275200
   6042   6046   6056     1   107.2600461 396.643200
   6042   6041   6043     1   109.5600471 388.275200
   6043   6041   6060     1   109.8800469 414.216000
   6044   6040   6047     1   110.2600474 425.931200
   6045   6042   6046     1   109.4300470 427.604800
   6045   6042   6055     1   109.5800467 425.931200
   6048   6053   6054     1   107.2600461 396.643200
   6051   6048   6053     1   110.2600474 425.931200
   6051   6048   6052     1   108.4600466 328.025600
   6052   6048   6053     1   110.2600474 425.931200
   6057   6038   6058     1   110.2600474 425.931200
   6061   6063   6064     1   108.8800464 416.726400
   6061   6063   6066     1   108.8800464 416.726400
   6062   6061   6063     1   117.6800502 383.254400
   6063   6065   6067     1   109.5600471 388.275200
   6063   6065   6068     1   109.5600471 388.275200
   6064   6063   6065     1   109.5600471 388.275200
   6064   6063   6066     1   108.4600466 328.025600
   6065   6063   6066     1   109.5600471 388.275200
   6067   6065   6069     1   109.8800469 414.216000
   6067   6065   6068     1   108.4600466 328.025600
   6068   6065   6069     1   109.8800469 414.216000
   6069   6070   6079     1   109.8800469 414.216000
   6069   6070   6080     1   109.8800469 414.216000
   6069   6071   6072     1   109.8800469 414.216000
   6069   6071   6074     1   109.8800469 414.216000
   6070   6081   6082     1   109.8000471 387.438400
   6070   6081   6083     1   109.8000471 387.438400
   6071   6073   6075     1   109.8000471 387.438400
   6071   6073   6076     1   109.8000471 387.438400
   6072   6071   6073     1   109.5600471 388.275200
   6072   6071   6074     1   108.4600466 328.025600
   6073   6071   6074     1   109.5600471 388.275200
   6075   6073   6077     1   108.7700466 392.459200
   6075   6073   6076     1   107.5800459 329.699200
   6076   6073   6077     1   108.7700466 392.459200
   6077   6109   6099     1   119.3800509 410.868800
   6079   6070   6081     1   109.5600471 388.275200
   6079   6070   6080     1   108.4600466 328.025600
   6080   6070   6081     1   109.5600471 388.275200
   6082   6081   6084     1   108.7700466 392.459200
   6082   6081   6083     1   107.5800459 329.699200
   6083   6081   6084     1   108.7700466 392.459200
   6084   6133   6123     1   119.3800509 410.868800
   6086   6087   6106     1   109.5600471 388.275200
   6086   6097   6100     1   109.5600471 388.275200
   6086   6097   6101     1   109.5600471 388.275200
   6087   6086   6088     1   109.5600471 388.275200
   6087   6089   6093     1   109.5600471 388.275200
   6087   6107   6108     1   107.2600461 396.643200
   6088   6086   6097     1   109.5600471 388.275200
   6088   6086   6104     1   109.7800468 425.094400
   6089   6087   6106     1   109.5600471 388.275200
   6089   6090   6092     1   109.5600471 388.275200
   6089   6096   6098     1   107.2600461 396.643200
   6090   6089   6093     1   109.5600471 388.275200
   6090   6091   6094     1   110.2200475 386.601600
   6090   6109   6099     1   109.2900470 396.643200
   6091   6090   6092     1   109.5600471 388.275200
   6091   6095   6105     1   107.2600461 396.643200
   6092   6090   6109     1   109.8800469 414.216000
   6093   6089   6096     1   110.2600474 425.931200
   6094   6091   6095     1   109.4300470 427.604800
   6094   6091   6104     1   109.5800467 425.931200
   6097   6102   6103     1   107.2600461 396.643200
   6100   6097   6102     1   110.2600474 425.931200
   6100   6097   6101     1   108.4600466 328.025600
   6101   6097   6102     1   110.2600474 425.931200
   6106   6087   6107     1   110.2600474 425.931200
   6110   6111   6130     1   109.5600471 388.275200
   6110   6121   6124     1   109.5600471 388.275200
   6110   6121   6125     1   109.5600471 388.275200
   6111   6110   6112     1   109.5600471 388.275200
   6111   6113   6117     1   109.5600471 388.275200
   6111   6131   6132     1   107.2600461 396.643200
   6112   6110   6121     1   109.5600471 388.275200
   6112   6110   6128     1   109.7800468 425.094400
   6113   6111   6130     1   109.5600471 388.275200
   6113   6114   6116     1   109.5600471 388.275200
   6113   6120   6122     1   107.2600461 396.643200
   6114   6113   6117     1   109.5600471 388.275200
   6114   6115   6118     1   110.2200475 386.601600
   6114   6133   6123     1   109.2900470 396.643200
   6115   6114   6116     1   109.5600471 388.275200
   6115   6119   6129     1   107.2600461 396.643200
   6116   6114   6133     1   109.8800469 414.216000
   6117   6113   6120     1   110.2600474 425.931200
   6118   6115   6119     1   109.4300470 427.604800
   6118   6115   6128     1   109.5800467 425.931200
   6121   6126   6127     1   107.2600461 396.643200
   6124   6121   6126     1   110.2600474 425.931200
   6124   6121   6125     1   108.4600466 328.025600
   6125   6121   6126     1   110.2600474 425.931200
   6130   6111   6131     1   110.2600474 425.931200
   6134   6136   6137     1   108.8800464 416.726400
   6134   6136   6139     1   108.8800464 416.726400
   6135   6134   6136     1   117.6800502 383.254400
   6136   6138   6140     1   109.5600471 388.275200
   6136   6138   6141     1   109.5600471 388.275200
   6137   6136   6138     1   109.5600471 388.275200
   6137   6136   6139     1   108.4600466 328.025600
   6138   6136   6139     1   109.5600471 388.275200
   6140   6138   6142     1   109.8800469 414.216000
   6140   6138   6141     1   108.4600466 328.025600
   6141   6138   6142     1   109.8800469 414.216000
   6142   6143   6152     1   109.8800469 414.216000
   6142   6143   6153     1   109.8800469 414.216000
   6142   6144   6145     1   109.8800469 414.216000
   6142   6144   6147     1   109.8800469 414.216000
   6143   6154   6155     1   109.8000471 387.438400
   6143   6154   6156     1   109.8000471 387.438400
   6144   6146   6148     1   109.8000471 387.438400
   6144   6146   6149     1   109.8000471 387.438400
   6145   6144   6146     1   109.5600471 388.275200
   6145   6144   6147     1   108.4600466 328.025600
   6146   6144   6147     1   109.5600471 388.275200
   6148   6146   6150     1   108.7700466 392.459200
   6148   6146   6149     1   107.5800459 329.699200
   6149   6146   6150     1   108.7700466 392.459200
   6150   6182   6172     1   119.3800509 410.868800
   6152   6143   6154     1   109.5600471 388.275200
   6152   6143   6153     1   108.4600466 328.025600
   6153   6143   6154     1   109.5600471 388.275200
   6155   6154   6157     1   108.7700466 392.459200
   6155   6154   6156     1   107.5800459 329.699200
   6156   6154   6157     1   108.7700466 392.459200
   6157   6206   6196     1   119.3800509 410.868800
   6159   6160   6179     1   109.5600471 388.275200
   6159   6170   6173     1   109.5600471 388.275200
   6159   6170   6174     1   109.5600471 388.275200
   6160   6162   6166     1   109.5600471 388.275200
   6160   6180   6181     1   107.2600461 396.643200
   6160   6159   6161     1   109.5600471 388.275200
   6161   6159   6170     1   109.5600471 388.275200
   6161   6159   6177     1   109.7800468 425.094400
   6162   6163   6165     1   109.5600471 388.275200
   6162   6169   6171     1   107.2600461 396.643200
   6162   6160   6179     1   109.5600471 388.275200
   6163   6164   6167     1   110.2200475 386.601600
   6163   6182   6172     1   109.2900470 396.643200
   6163   6162   6166     1   109.5600471 388.275200
   6164   6168   6178     1   107.2600461 396.643200
   6164   6163   6165     1   109.5600471 388.275200
   6165   6163   6182     1   109.8800469 414.216000
   6166   6162   6169     1   110.2600474 425.931200
   6167   6164   6168     1   109.4300470 427.604800
   6167   6164   6177     1   109.5800467 425.931200
   6170   6175   6176     1   107.2600461 396.643200
   6173   6170   6175     1   110.2600474 425.931200
   6173   6170   6174     1   108.4600466 328.025600
   6174   6170   6175     1   110.2600474 425.931200
   6179   6160   6180     1   110.2600474 425.931200
   6183   6184   6203     1   109.5600471 388.275200
   6183   6194   6197     1   109.5600471 388.275200
   6183   6194   6198     1   109.5600471 388.275200
   6184   6186   6190     1   109.5600471 388.275200
   6184   6204   6205     1   107.2600461 396.643200
   6184   6183   6185     1   109.5600471 388.275200
   6185   6183   6194     1   109.5600471 388.275200
   6185   6183   6201     1   109.7800468 425.094400
   6186   6187   6189     1   109.5600471 388.275200
   6186   6193   6195     1   107.2600461 396.643200
   6186   6184   6203     1   109.5600471 388.275200
   6187   6188   6191     1   110.2200475 386.601600
   6187   6206   6196     1   109.2900470 396.643200
   6187   6186   6190     1   109.5600471 388.275200
   6188   6192   6202     1   107.2600461 396.643200
   6188   6187   6189     1   109.5600471 388.275200
   6189   6187   6206     1   109.8800469 414.216000
   6190   6186   6193     1   110.2600474 425.931200
   6191   6188   6192     1   109.4300470 427.604800
   6191   6188   6201     1   109.5800467 425.931200
   6194   6199   6200     1   107.2600461 396.643200
   6197   6194   6199     1   110.2600474 425.931200
   6197   6194   6198     1   108.4600466 328.025600
   6198   6194   6199     1   110.2600474 425.931200
   6203   6184   6204     1   110.2600474 425.931200
   6207   6209   6210     1   108.8800464 416.726400
   6207   6209   6212     1   108.8800464 416.726400
   6208   6207   6209     1   117.6800502 383.254400
   6209   6211   6213     1   109.5600471 388.275200
   6209   6211   6214     1   109.5600471 388.275200
   6210   6209   6211     1   109.5600471 388.275200
   6210   6209   6212     1   108.4600466 328.025600
   6211   6209   6212     1   109.5600471 388.275200
   6213   6211   6215     1   109.8800469 414.216000
   6213   6211   6214     1   108.4600466 328.025600
   6214   6211   6215     1   109.8800469 414.216000
   6215   6216   6225     1   109.8800469 414.216000
   6215   6216   6226     1   109.8800469 414.216000
   6215   6217   6218     1   109.8800469 414.216000
   6215   6217   6220     1   109.8800469 414.216000
   6216   6227   6228     1   109.8000471 387.438400
   6216   6227   6229     1   109.8000471 387.438400
   6217   6219   6221     1   109.8000471 387.438400
   6217   6219   6222     1   109.8000471 387.438400
   6218   6217   6219     1   109.5600471 388.275200
   6218   6217   6220     1   108.4600466 328.025600
   6219   6217   6220     1   109.5600471 388.275200
   6221   6219   6223     1   108.7700466 392.459200
   6221   6219   6222     1   107.5800459 329.699200
   6222   6219   6223     1   108.7700466 392.459200
   6223   6255   6245     1   119.3800509 410.868800
   6225   6216   6227     1   109.5600471 388.275200
   6225   6216   6226     1   108.4600466 328.025600
   6226   6216   6227     1   109.5600471 388.275200
   6228   6227   6230     1   108.7700466 392.459200
   6228   6227   6229     1   107.5800459 329.699200
   6229   6227   6230     1   108.7700466 392.459200
   6230   6279   6269     1   119.3800509 410.868800
   6232   6233   6252     1   109.5600471 388.275200
   6232   6243   6246     1   109.5600471 388.275200
   6232   6243   6247     1   109.5600471 388.275200
   6233   6232   6234     1   109.5600471 388.275200
   6233   6235   6239     1   109.5600471 388.275200
   6233   6253   6254     1   107.2600461 396.643200
   6234   6232   6243     1   109.5600471 388.275200
   6234   6232   6250     1   109.7800468 425.094400
   6235   6233   6252     1   109.5600471 388.275200
   6235   6236   6238     1   109.5600471 388.275200
   6235   6242   6244     1   107.2600461 396.643200
   6236   6235   6239     1   109.5600471 388.275200
   6236   6237   6240     1   110.2200475 386.601600
   6236   6255   6245     1   109.2900470 396.643200
   6237   6236   6238     1   109.5600471 388.275200
   6237   6241   6251     1   107.2600461 396.643200
   6238   6236   6255     1   109.8800469 414.216000
   6239   6235   6242     1   110.2600474 425.931200
   6240   6237   6241     1   109.4300470 427.604800
   6240   6237   6250     1   109.5800467 425.931200
   6243   6248   6249     1   107.2600461 396.643200
   6246   6243   6248     1   110.2600474 425.931200
   6246   6243   6247     1   108.4600466 328.025600
   6247   6243   6248     1   110.2600474 425.931200
   6252   6233   6253     1   110.2600474 425.931200
   6256   6257   6276     1   109.5600471 388.275200
   6256   6267   6270     1   109.5600471 388.275200
   6256   6267   6271     1   109.5600471 388.275200
   6257   6256   6258     1   109.5600471 388.275200
   6257   6259   6263     1   109.5600471 388.275200
   6257   6277   6278     1   107.2600461 396.643200
   6258   6256   6267     1   109.5600471 388.275200
   6258   6256   6274     1   109.7800468 425.094400
   6259   6257   6276     1   109.5600471 388.275200
   6259   6260   6262     1   109.5600471 388.275200
   6259   6266   6268     1   107.2600461 396.643200
   6260   6259   6263     1   109.5600471 388.275200
   6260   6261   6264     1   110.2200475 386.601600
   6260   6279   6269     1   109.2900470 396.643200
   6261   6260   6262     1   109.5600471 388.275200
   6261   6265   6275     1   107.2600461 396.643200
   6262   6260   6279     1   109.8800469 414.216000
   6263   6259   6266     1   110.2600474 425.931200
   6264   6261   6265     1   109.4300470 427.604800
   6264   6261   6274     1   109.5800467 425.931200
   6267   6272   6273     1   107.2600461 396.643200
   6270   6267   6272     1   110.2600474 425.931200
   6270   6267   6271     1   108.4600466 328.025600
   6271   6267   6272     1   110.2600474 425.931200
   6276   6257   6277     1   110.2600474 425.931200
   6280   6282   6283     1   108.8800464 416.726400
   6280   6282   6285     1   108.8800464 416.726400
   6281   6280   6282     1   117.6800502 383.254400
   6282   6284   6286     1   109.5600471 388.275200
   6282   6284   6287     1   109.5600471 388.275200
   6283   6282   6284     1   109.5600471 388.275200
   6283   6282   6285     1   108.4600466 328.025600
   6284   6282   6285     1   109.5600471 388.275200
   6286   6284   6288     1   109.8800469 414.216000
   6286   6284   6287     1   108.4600466 328.025600
   6287   6284   6288     1   109.8800469 414.216000
   6288   6289   6298     1   109.8800469 414.216000
   6288   6289   6299     1   109.8800469 414.216000
   6288   6290   6291     1   109.8800469 414.216000
   6288   6290   6293     1   109.8800469 414.216000
   6289   6300   6301     1   109.8000471 387.438400
   6289   6300   6302     1   109.8000471 387.438400
   6290   6292   6294     1   109.8000471 387.438400
   6290   6292   6295     1   109.8000471 387.438400
   6291   6290   6292     1   109.5600471 388.275200
   6291   6290   6293     1   108.4600466 328.025600
   6292   6290   6293     1   109.5600471 388.275200
   6294   6292   6296     1   108.7700466 392.459200
   6294   6292   6295     1   107.5800459 329.699200
   6295   6292   6296     1   108.7700466 392.459200
   6296   6328   6318     1   119.3800509 410.868800
   6298   6289   6300     1   109.5600471 388.275200
   6298   6289   6299     1   108.4600466 328.025600
   6299   6289   6300     1   109.5600471 388.275200
   6301   6300   6303     1   108.7700466 392.459200
   6301   6300   6302     1   107.5800459 329.699200
   6302   6300   6303     1   108.7700466 392.459200
   6303   6352   6342     1   119.3800509 410.868800
   6305   6306   6325     1   109.5600471 388.275200
   6305   6316   6319     1   109.5600471 388.275200
   6305   6316   6320     1   109.5600471 388.275200
   6306   6308   6312     1   109.5600471 388.275200
   6306   6326   6327     1   107.2600461 396.643200
   6306   6305   6307     1   109.5600471 388.275200
   6307   6305   6316     1   109.5600471 388.275200
   6307   6305   6323     1   109.7800468 425.094400
   6308   6309   6311     1   109.5600471 388.275200
   6308   6315   6317     1   107.2600461 396.643200
   6308   6306   6325     1   109.5600471 388.275200
   6309   6310   6313     1   110.2200475 386.601600
   6309   6328   6318     1   109.2900470 396.643200
   6309   6308   6312     1   109.5600471 388.275200
   6310   6314   6324     1   107.2600461 396.643200
   6310   6309   6311     1   109.5600471 388.275200
   6311   6309   6328     1   109.8800469 414.216000
   6312   6308   6315     1   110.2600474 425.931200
   6313   6310   6314     1   109.4300470 427.604800
   6313   6310   6323     1   109.5800467 425.931200
   6316   6321   6322     1   107.2600461 396.643200
   6319   6316   6321     1   110.2600474 425.931200
   6319   6316   6320     1   108.4600466 328.025600
   6320   6316   6321     1   110.2600474 425.931200
   6325   6306   6326     1   110.2600474 425.931200
   6329   6330   6349     1   109.5600471 388.275200
   6329   6340   6343     1   109.5600471 388.275200
   6329   6340   6344     1   109.5600471 388.275200
   6330   6332   6336     1   109.5600471 388.275200
   6330   6350   6351     1   107.2600461 396.643200
   6330   6329   6331     1   109.5600471 388.275200
   6331   6329   6340     1   109.5600471 388.275200
   6331   6329   6347     1   109.7800468 425.094400
   6332   6333   6335     1   109.5600471 388.275200
   6332   6339   6341     1   107.2600461 396.643200
   6332   6330   6349     1   109.5600471 388.275200
   6333   6334   6337     1   110.2200475 386.601600
   6333   6352   6342     1   109.2900470 396.643200
   6333   6332   6336     1   109.5600471 388.275200
   6334   6338   6348     1   107.2600461 396.643200
   6334   6333   6335     1   109.5600471 388.275200
   6335   6333   6352     1   109.8800469 414.216000
   6336   6332   6339     1   110.2600474 425.931200
   6337   6334   6338     1   109.4300470 427.604800
   6337   6334   6347     1   109.5800467 425.931200
   6340   6345   6346     1   107.2600461 396.643200
   6343   6340   6345     1   110.2600474 425.931200
   6343   6340   6344     1   108.4600466 328.025600
   6344   6340   6345     1   110.2600474 425.931200
   6349   6330   6350     1   110.2600474 425.931200
   6353   6355   6356     1   108.8800464 416.726400
   6353   6355   6358     1   108.8800464 416.726400
   6354   6353   6355     1   117.6800502 383.254400
   6355   6357   6359     1   109.5600471 388.275200
   6355   6357   6360     1   109.5600471 388.275200
   6356   6355   6357     1   109.5600471 388.275200
   6356   6355   6358     1   108.4600466 328.025600
   6357   6355   6358     1   109.5600471 388.275200
   6359   6357   6361     1   109.8800469 414.216000
   6359   6357   6360     1   108.4600466 328.025600
   6360   6357   6361     1   109.8800469 414.216000
   6361   6362   6371     1   109.8800469 414.216000
   6361   6362   6372     1   109.8800469 414.216000
   6361   6363   6364     1   109.8800469 414.216000
   6361   6363   6366     1   109.8800469 414.216000
   6362   6373   6374     1   109.8000471 387.438400
   6362   6373   6375     1   109.8000471 387.438400
   6363   6365   6367     1   109.8000471 387.438400
   6363   6365   6368     1   109.8000471 387.438400
   6364   6363   6365     1   109.5600471 388.275200
   6364   6363   6366     1   108.4600466 328.025600
   6365   6363   6366     1   109.5600471 388.275200
   6367   6365   6369     1   108.7700466 392.459200
   6367   6365   6368     1   107.5800459 329.699200
   6368   6365   6369     1   108.7700466 392.459200
   6369   6401   6391     1   119.3800509 410.868800
   6371   6362   6373     1   109.5600471 388.275200
   6371   6362   6372     1   108.4600466 328.025600
   6372   6362   6373     1   109.5600471 388.275200
   6374   6373   6376     1   108.7700466 392.459200
   6374   6373   6375     1   107.5800459 329.699200
   6375   6373   6376     1   108.7700466 392.459200
   6376   6425   6415     1   119.3800509 410.868800
   6378   6379   6398     1   109.5600471 388.275200
   6378   6389   6392     1   109.5600471 388.275200
   6378   6389   6393     1   109.5600471 388.275200
   6379   6378   6380     1   109.5600471 388.275200
   6379   6381   6385     1   109.5600471 388.275200
   6379   6399   6400     1   107.2600461 396.643200
   6380   6378   6389     1   109.5600471 388.275200
   6380   6378   6396     1   109.7800468 425.094400
   6381   6379   6398     1   109.5600471 388.275200
   6381   6382   6384     1   109.5600471 388.275200
   6381   6388   6390     1   107.2600461 396.643200
   6382   6381   6385     1   109.5600471 388.275200
   6382   6383   6386     1   110.2200475 386.601600
   6382   6401   6391     1   109.2900470 396.643200
   6383   6382   6384     1   109.5600471 388.275200
   6383   6387   6397     1   107.2600461 396.643200
   6384   6382   6401     1   109.8800469 414.216000
   6385   6381   6388     1   110.2600474 425.931200
   6386   6383   6387     1   109.4300470 427.604800
   6386   6383   6396     1   109.5800467 425.931200
   6389   6394   6395     1   107.2600461 396.643200
   6392   6389   6394     1   110.2600474 425.931200
   6392   6389   6393     1   108.4600466 328.025600
   6393   6389   6394     1   110.2600474 425.931200
   6398   6379   6399     1   110.2600474 425.931200
   6402   6403   6422     1   109.5600471 388.275200
   6402   6413   6416     1   109.5600471 388.275200
   6402   6413   6417     1   109.5600471 388.275200
   6403   6402   6404     1   109.5600471 388.275200
   6403   6405   6409     1   109.5600471 388.275200
   6403   6423   6424     1   107.2600461 396.643200
   6404   6402   6413     1   109.5600471 388.275200
   6404   6402   6420     1   109.7800468 425.094400
   6405   6403   6422     1   109.5600471 388.275200
   6405   6406   6408     1   109.5600471 388.275200
   6405   6412   6414     1   107.2600461 396.643200
   6406   6405   6409     1   109.5600471 388.275200
   6406   6407   6410     1   110.2200475 386.601600
   6406   6425   6415     1   109.2900470 396.643200
   6407   6406   6408     1   109.5600471 388.275200
   6407   6411   6421     1   107.2600461 396.643200
   6408   6406   6425     1   109.8800469 414.216000
   6409   6405   6412     1   110.2600474 425.931200
   6410   6407   6411     1   109.4300470 427.604800
   6410   6407   6420     1   109.5800467 425.931200
   6413   6418   6419     1   107.2600461 396.643200
   6416   6413   6418     1   110.2600474 425.931200
   6416   6413   6417     1   108.4600466 328.025600
   6417   6413   6418     1   110.2600474 425.931200
   6422   6403   6423     1   110.2600474 425.931200
   6426   6428   6429     1   108.8800464 416.726400
   6426   6428   6431     1   108.8800464 416.726400
   6427   6426   6428     1   117.6800502 383.254400
   6428   6430   6432     1   109.5600471 388.275200
   6428   6430   6433     1   109.5600471 388.275200
   6429   6428   6430     1   109.5600471 388.275200
   6429   6428   6431     1   108.4600466 328.025600
   6430   6428   6431     1   109.5600471 388.275200
   6432   6430   6434     1   109.8800469 414.216000
   6432   6430   6433     1   108.4600466 328.025600
   6433   6430   6434     1   109.8800469 414.216000
   6434   6435   6444     1   109.8800469 414.216000
   6434   6435   6445     1   109.8800469 414.216000
   6434   6436   6437     1   109.8800469 414.216000
   6434   6436   6439     1   109.8800469 414.216000
   6435   6446   6447     1   109.8000471 387.438400
   6435   6446   6448     1   109.8000471 387.438400
   6436   6438   6440     1   109.8000471 387.438400
   6436   6438   6441     1   109.8000471 387.438400
   6437   6436   6438     1   109.5600471 388.275200
   6437   6436   6439     1   108.4600466 328.025600
   6438   6436   6439     1   109.5600471 388.275200
   6440   6438   6442     1   108.7700466 392.459200
   6440   6438   6441     1   107.5800459 329.699200
   6441   6438   6442     1   108.7700466 392.459200
   6442   6474   6464     1   119.3800509 410.868800
   6444   6435   6446     1   109.5600471 388.275200
   6444   6435   6445     1   108.4600466 328.025600
   6445   6435   6446     1   109.5600471 388.275200
   6447   6446   6449     1   108.7700466 392.459200
   6447   6446   6448     1   107.5800459 329.699200
   6448   6446   6449     1   108.7700466 392.459200
   6449   6498   6488     1   119.3800509 410.868800
   6451   6452   6471     1   109.5600471 388.275200
   6451   6462   6465     1   109.5600471 388.275200
   6451   6462   6466     1   109.5600471 388.275200
   6452   6454   6458     1   109.5600471 388.275200
   6452   6472   6473     1   107.2600461 396.643200
   6452   6451   6453     1   109.5600471 388.275200
   6453   6451   6462     1   109.5600471 388.275200
   6453   6451   6469     1   109.7800468 425.094400
   6454   6455   6457     1   109.5600471 388.275200
   6454   6461   6463     1   107.2600461 396.643200
   6454   6452   6471     1   109.5600471 388.275200
   6455   6456   6459     1   110.2200475 386.601600
   6455   6474   6464     1   109.2900470 396.643200
   6455   6454   6458     1   109.5600471 388.275200
   6456   6460   6470     1   107.2600461 396.643200
   6456   6455   6457     1   109.5600471 388.275200
   6457   6455   6474     1   109.8800469 414.216000
   6458   6454   6461     1   110.2600474 425.931200
   6459   6456   6460     1   109.4300470 427.604800
   6459   6456   6469     1   109.5800467 425.931200
   6462   6467   6468     1   107.2600461 396.643200
   6465   6462   6467     1   110.2600474 425.931200
   6465   6462   6466     1   108.4600466 328.025600
   6466   6462   6467     1   110.2600474 425.931200
   6471   6452   6472     1   110.2600474 425.931200
   6475   6476   6495     1   109.5600471 388.275200
   6475   6486   6489     1   109.5600471 388.275200
   6475   6486   6490     1   109.5600471 388.275200
   6476   6478   6482     1   109.5600471 388.275200
   6476   6496   6497     1   107.2600461 396.643200
   6476   6475   6477     1   109.5600471 388.275200
   6477   6475   6486     1   109.5600471 388.275200
   6477   6475   6493     1   109.7800468 425.094400
   6478   6479   6481     1   109.5600471 388.275200
   6478   6485   6487     1   107.2600461 396.643200
   6478   6476   6495     1   109.5600471 388.275200
   6479   6480   6483     1   110.2200475 386.601600
   6479   6498   6488     1   109.2900470 396.643200
   6479   6478   6482     1   109.5600471 388.275200
   6480   6484   6494     1   107.2600461 396.643200
   6480   6479   6481     1   109.5600471 388.275200
   6481   6479   6498     1   109.8800469 414.216000
   6482   6478   6485     1   110.2600474 425.931200
   6483   6480   6484     1   109.4300470 427.604800
   6483   6480   6493     1   109.5800467 425.931200
   6486   6491   6492     1   107.2600461 396.643200
   6489   6486   6491     1   110.2600474 425.931200
   6489   6486   6490     1   108.4600466 328.025600
   6490   6486   6491     1   110.2600474 425.931200
   6495   6476   6496     1   110.2600474 425.931200
   6499   6501   6502     1   108.8800464 416.726400
   6499   6501   6504     1   108.8800464 416.726400
   6500   6499   6501     1   117.6800502 383.254400
   6501   6503   6505     1   109.5600471 388.275200
   6501   6503   6506     1   109.5600471 388.275200
   6502   6501   6503     1   109.5600471 388.275200
   6502   6501   6504     1   108.4600466 328.025600
   6503   6501   6504     1   109.5600471 388.275200
   6505   6503   6507     1   109.8800469 414.216000
   6505   6503   6506     1   108.4600466 328.025600
   6506   6503   6507     1   109.8800469 414.216000
   6507   6508   6517     1   109.8800469 414.216000
   6507   6508   6518     1   109.8800469 414.216000
   6507   6509   6510     1   109.8800469 414.216000
   6507   6509   6512     1   109.8800469 414.216000
   6508   6519   6520     1   109.8000471 387.438400
   6508   6519   6521     1   109.8000471 387.438400
   6509   6511   6513     1   109.8000471 387.438400
   6509   6511   6514     1   109.8000471 387.438400
   6510   6509   6511     1   109.5600471 388.275200
   6510   6509   6512     1   108.4600466 328.025600
   6511   6509   6512     1   109.5600471 388.275200
   6513   6511   6515     1   108.7700466 392.459200
   6513   6511   6514     1   107.5800459 329.699200
   6514   6511   6515     1   108.7700466 392.459200
   6515   6547   6537     1   119.3800509 410.868800
   6517   6508   6519     1   109.5600471 388.275200
   6517   6508   6518     1   108.4600466 328.025600
   6518   6508   6519     1   109.5600471 388.275200
   6520   6519   6522     1   108.7700466 392.459200
   6520   6519   6521     1   107.5800459 329.699200
   6521   6519   6522     1   108.7700466 392.459200
   6522   6571   6561     1   119.3800509 410.868800
   6524   6525   6544     1   109.5600471 388.275200
   6524   6535   6538     1   109.5600471 388.275200
   6524   6535   6539     1   109.5600471 388.275200
   6525   6524   6526     1   109.5600471 388.275200
   6525   6527   6531     1   109.5600471 388.275200
   6525   6545   6546     1   107.2600461 396.643200
   6526   6524   6535     1   109.5600471 388.275200
   6526   6524   6542     1   109.7800468 425.094400
   6527   6525   6544     1   109.5600471 388.275200
   6527   6528   6530     1   109.5600471 388.275200
   6527   6534   6536     1   107.2600461 396.643200
   6528   6527   6531     1   109.5600471 388.275200
   6528   6529   6532     1   110.2200475 386.601600
   6528   6547   6537     1   109.2900470 396.643200
   6529   6528   6530     1   109.5600471 388.275200
   6529   6533   6543     1   107.2600461 396.643200
   6530   6528   6547     1   109.8800469 414.216000
   6531   6527   6534     1   110.2600474 425.931200
   6532   6529   6533     1   109.4300470 427.604800
   6532   6529   6542     1   109.5800467 425.931200
   6535   6540   6541     1   107.2600461 396.643200
   6538   6535   6540     1   110.2600474 425.931200
   6538   6535   6539     1   108.4600466 328.025600
   6539   6535   6540     1   110.2600474 425.931200
   6544   6525   6545     1   110.2600474 425.931200
   6548   6549   6568     1   109.5600471 388.275200
   6548   6559   6562     1   109.5600471 388.275200
   6548   6559   6563     1   109.5600471 388.275200
   6549   6548   6550     1   109.5600471 388.275200
   6549   6551   6555     1   109.5600471 388.275200
   6549   6569   6570     1   107.2600461 396.643200
   6550   6548   6559     1   109.5600471 388.275200
   6550   6548   6566     1   109.7800468 425.094400
   6551   6549   6568     1   109.5600471 388.275200
   6551   6552   6554     1   109.5600471 388.275200
   6551   6558   6560     1   107.2600461 396.643200
   6552   6551   6555     1   109.5600471 388.275200
   6552   6553   6556     1   110.2200475 386.601600
   6552   6571   6561     1   109.2900470 396.643200
   6553   6552   6554     1   109.5600471 388.275200
   6553   6557   6567     1   107.2600461 396.643200
   6554   6552   6571     1   109.8800469 414.216000
   6555   6551   6558     1   110.2600474 425.931200
   6556   6553   6557     1   109.4300470 427.604800
   6556   6553   6566     1   109.5800467 425.931200
   6559   6564   6565     1   107.2600461 396.643200
   6562   6559   6564     1   110.2600474 425.931200
   6562   6559   6563     1   108.4600466 328.025600
   6563   6559   6564     1   110.2600474 425.931200
   6568   6549   6569     1   110.2600474 425.931200
   6572   6574   6575     1   108.8800464 416.726400
   6572   6574   6577     1   108.8800464 416.726400
   6573   6572   6574     1   117.6800502 383.254400
   6574   6576   6578     1   109.5600471 388.275200
   6574   6576   6579     1   109.5600471 388.275200
   6575   6574   6576     1   109.5600471 388.275200
   6575   6574   6577     1   108.4600466 328.025600
   6576   6574   6577     1   109.5600471 388.275200
   6578   6576   6580     1   109.8800469 414.216000
   6578   6576   6579     1   108.4600466 328.025600
   6579   6576   6580     1   109.8800469 414.216000
   6580   6581   6590     1   109.8800469 414.216000
   6580   6581   6591     1   109.8800469 414.216000
   6580   6582   6583     1   109.8800469 414.216000
   6580   6582   6585     1   109.8800469 414.216000
   6581   6592   6593     1   109.8000471 387.438400
   6581   6592   6594     1   109.8000471 387.438400
   6582   6584   6586     1   109.8000471 387.438400
   6582   6584   6587     1   109.8000471 387.438400
   6583   6582   6584     1   109.5600471 388.275200
   6583   6582   6585     1   108.4600466 328.025600
   6584   6582   6585     1   109.5600471 388.275200
   6586   6584   6588     1   108.7700466 392.459200
   6586   6584   6587     1   107.5800459 329.699200
   6587   6584   6588     1   108.7700466 392.459200
   6588   6620   6610     1   119.3800509 410.868800
   6590   6581   6592     1   109.5600471 388.275200
   6590   6581   6591     1   108.4600466 328.025600
   6591   6581   6592     1   109.5600471 388.275200
   6593   6592   6595     1   108.7700466 392.459200
   6593   6592   6594     1   107.5800459 329.699200
   6594   6592   6595     1   108.7700466 392.459200
   6595   6644   6634     1   119.3800509 410.868800
   6597   6598   6617     1   109.5600471 388.275200
   6597   6608   6611     1   109.5600471 388.275200
   6597   6608   6612     1   109.5600471 388.275200
   6598   6600   6604     1   109.5600471 388.275200
   6598   6618   6619     1   107.2600461 396.643200
   6598   6597   6599     1   109.5600471 388.275200
   6599   6597   6608     1   109.5600471 388.275200
   6599   6597   6615     1   109.7800468 425.094400
   6600   6601   6603     1   109.5600471 388.275200
   6600   6607   6609     1   107.2600461 396.643200
   6600   6598   6617     1   109.5600471 388.275200
   6601   6602   6605     1   110.2200475 386.601600
   6601   6620   6610     1   109.2900470 396.643200
   6601   6600   6604     1   109.5600471 388.275200
   6602   6606   6616     1   107.2600461 396.643200
   6602   6601   6603     1   109.5600471 388.275200
   6603   6601   6620     1   109.8800469 414.216000
   6604   6600   6607     1   110.2600474 425.931200
   6605   6602   6606     1   109.4300470 427.604800
   6605   6602   6615     1   109.5800467 425.931200
   6608   6613   6614     1   107.2600461 396.643200
   6611   6608   6613     1   110.2600474 425.931200
   6611   6608   6612     1   108.4600466 328.025600
   6612   6608   6613     1   110.2600474 425.931200
   6617   6598   6618     1   110.2600474 425.931200
   6621   6622   6641     1   109.5600471 388.275200
   6621   6632   6635     1   109.5600471 388.275200
   6621   6632   6636     1   109.5600471 388.275200
   6622   6624   6628     1   109.5600471 388.275200
   6622   6642   6643     1   107.2600461 396.643200
   6622   6621   6623     1   109.5600471 388.275200
   6623   6621   6632     1   109.5600471 388.275200
   6623   6621   6639     1   109.7800468 425.094400
   6624   6625   6627     1   109.5600471 388.275200
   6624   6631   6633     1   107.2600461 396.643200
   6624   6622   6641     1   109.5600471 388.275200
   6625   6626   6629     1   110.2200475 386.601600
   6625   6644   6634     1   109.2900470 396.643200
   6625   6624   6628     1   109.5600471 388.275200
   6626   6630   6640     1   107.2600461 396.643200
   6626   6625   6627     1   109.5600471 388.275200
   6627   6625   6644     1   109.8800469 414.216000
   6628   6624   6631     1   110.2600474 425.931200
   6629   6626   6630     1   109.4300470 427.604800
   6629   6626   6639     1   109.5800467 425.931200
   6632   6637   6638     1   107.2600461 396.643200
   6635   6632   6637     1   110.2600474 425.931200
   6635   6632   6636     1   108.4600466 328.025600
   6636   6632   6637     1   110.2600474 425.931200
   6641   6622   6642     1   110.2600474 425.931200
   6645   6647   6648     1   108.8800464 416.726400
   6645   6647   6650     1   108.8800464 416.726400
   6646   6645   6647     1   117.6800502 383.254400
   6647   6649   6651     1   109.5600471 388.275200
   6647   6649   6652     1   109.5600471 388.275200
   6648   6647   6649     1   109.5600471 388.275200
   6648   6647   6650     1   108.4600466 328.025600
   6649   6647   6650     1   109.5600471 388.275200
   6651   6649   6653     1   109.8800469 414.216000
   6651   6649   6652     1   108.4600466 328.025600
   6652   6649   6653     1   109.8800469 414.216000
   6653   6654   6663     1   109.8800469 414.216000
   6653   6654   6664     1   109.8800469 414.216000
   6653   6655   6656     1   109.8800469 414.216000
   6653   6655   6658     1   109.8800469 414.216000
   6654   6665   6666     1   109.8000471 387.438400
   6654   6665   6667     1   109.8000471 387.438400
   6655   6657   6659     1   109.8000471 387.438400
   6655   6657   6660     1   109.8000471 387.438400
   6656   6655   6657     1   109.5600471 388.275200
   6656   6655   6658     1   108.4600466 328.025600
   6657   6655   6658     1   109.5600471 388.275200
   6659   6657   6661     1   108.7700466 392.459200
   6659   6657   6660     1   107.5800459 329.699200
   6660   6657   6661     1   108.7700466 392.459200
   6661   6693   6683     1   119.3800509 410.868800
   6663   6654   6665     1   109.5600471 388.275200
   6663   6654   6664     1   108.4600466 328.025600
   6664   6654   6665     1   109.5600471 388.275200
   6666   6665   6668     1   108.7700466 392.459200
   6666   6665   6667     1   107.5800459 329.699200
   6667   6665   6668     1   108.7700466 392.459200
   6668   6717   6707     1   119.3800509 410.868800
   6670   6671   6690     1   109.5600471 388.275200
   6670   6681   6684     1   109.5600471 388.275200
   6670   6681   6685     1   109.5600471 388.275200
   6671   6670   6672     1   109.5600471 388.275200
   6671   6673   6677     1   109.5600471 388.275200
   6671   6691   6692     1   107.2600461 396.643200
   6672   6670   6681     1   109.5600471 388.275200
   6672   6670   6688     1   109.7800468 425.094400
   6673   6671   6690     1   109.5600471 388.275200
   6673   6674   6676     1   109.5600471 388.275200
   6673   6680   6682     1   107.2600461 396.643200
   6674   6673   6677     1   109.5600471 388.275200
   6674   6675   6678     1   110.2200475 386.601600
   6674   6693   6683     1   109.2900470 396.643200
   6675   6674   6676     1   109.5600471 388.275200
   6675   6679   6689     1   107.2600461 396.643200
   6676   6674   6693     1   109.8800469 414.216000
   6677   6673   6680     1   110.2600474 425.931200
   6678   6675   6679     1   109.4300470 427.604800
   6678   6675   6688     1   109.5800467 425.931200
   6681   6686   6687     1   107.2600461 396.643200
   6684   6681   6686     1   110.2600474 425.931200
   6684   6681   6685     1   108.4600466 328.025600
   6685   6681   6686     1   110.2600474 425.931200
   6690   6671   6691     1   110.2600474 425.931200
   6694   6695   6714     1   109.5600471 388.275200
   6694   6705   6708     1   109.5600471 388.275200
   6694   6705   6709     1   109.5600471 388.275200
   6695   6694   6696     1   109.5600471 388.275200
   6695   6697   6701     1   109.5600471 388.275200
   6695   6715   6716     1   107.2600461 396.643200
   6696   6694   6705     1   109.5600471 388.275200
   6696   6694   6712     1   109.7800468 425.094400
   6697   6695   6714     1   109.5600471 388.275200
   6697   6698   6700     1   109.5600471 388.275200
   6697   6704   6706     1   107.2600461 396.643200
   6698   6697   6701     1   109.5600471 388.275200
   6698   6699   6702     1   110.2200475 386.601600
   6698   6717   6707     1   109.2900470 396.643200
   6699   6698   6700     1   109.5600471 388.275200
   6699   6703   6713     1   107.2600461 396.643200
   6700   6698   6717     1   109.8800469 414.216000
   6701   6697   6704     1   110.2600474 425.931200
   6702   6699   6703     1   109.4300470 427.604800
   6702   6699   6712     1   109.5800467 425.931200
   6705   6710   6711     1   107.2600461 396.643200
   6708   6705   6710     1   110.2600474 425.931200
   6708   6705   6709     1   108.4600466 328.025600
   6709   6705   6710     1   110.2600474 425.931200
   6714   6695   6715     1   110.2600474 425.931200
   6718   6720   6721     1   108.8800464 416.726400
   6718   6720   6723     1   108.8800464 416.726400
   6719   6718   6720     1   117.6800502 383.254400
   6720   6722   6724     1   109.5600471 388.275200
   6720   6722   6725     1   109.5600471 388.275200
   6721   6720   6722     1   109.5600471 388.275200
   6721   6720   6723     1   108.4600466 328.025600
   6722   6720   6723     1   109.5600471 388.275200
   6724   6722   6726     1   109.8800469 414.216000
   6724   6722   6725     1   108.4600466 328.025600
   6725   6722   6726     1   109.8800469 414.216000
   6726   6727   6736     1   109.8800469 414.216000
   6726   6727   6737     1   109.8800469 414.216000
   6726   6728   6729     1   109.8800469 414.216000
   6726   6728   6731     1   109.8800469 414.216000
   6727   6738   6739     1   109.8000471 387.438400
   6727   6738   6740     1   109.8000471 387.438400
   6728   6730   6732     1   109.8000471 387.438400
   6728   6730   6733     1   109.8000471 387.438400
   6729   6728   6730     1   109.5600471 388.275200
   6729   6728   6731     1   108.4600466 328.025600
   6730   6728   6731     1   109.5600471 388.275200
   6732   6730   6734     1   108.7700466 392.459200
   6732   6730   6733     1   107.5800459 329.699200
   6733   6730   6734     1   108.7700466 392.459200
   6734   6766   6756     1   119.3800509 410.868800
   6736   6727   6738     1   109.5600471 388.275200
   6736   6727   6737     1   108.4600466 328.025600
   6737   6727   6738     1   109.5600471 388.275200
   6739   6738   6741     1   108.7700466 392.459200
   6739   6738   6740     1   107.5800459 329.699200
   6740   6738   6741     1   108.7700466 392.459200
   6741   6790   6780     1   119.3800509 410.868800
   6743   6744   6763     1   109.5600471 388.275200
   6743   6754   6757     1   109.5600471 388.275200
   6743   6754   6758     1   109.5600471 388.275200
   6744   6746   6750     1   109.5600471 388.275200
   6744   6764   6765     1   107.2600461 396.643200
   6744   6743   6745     1   109.5600471 388.275200
   6745   6743   6754     1   109.5600471 388.275200
   6745   6743   6761     1   109.7800468 425.094400
   6746   6747   6749     1   109.5600471 388.275200
   6746   6753   6755     1   107.2600461 396.643200
   6746   6744   6763     1   109.5600471 388.275200
   6747   6748   6751     1   110.2200475 386.601600
   6747   6766   6756     1   109.2900470 396.643200
   6747   6746   6750     1   109.5600471 388.275200
   6748   6752   6762     1   107.2600461 396.643200
   6748   6747   6749     1   109.5600471 388.275200
   6749   6747   6766     1   109.8800469 414.216000
   6750   6746   6753     1   110.2600474 425.931200
   6751   6748   6752     1   109.4300470 427.604800
   6751   6748   6761     1   109.5800467 425.931200
   6754   6759   6760     1   107.2600461 396.643200
   6757   6754   6759     1   110.2600474 425.931200
   6757   6754   6758     1   108.4600466 328.025600
   6758   6754   6759     1   110.2600474 425.931200
   6763   6744   6764     1   110.2600474 425.931200
   6767   6768   6787     1   109.5600471 388.275200
   6767   6778   6781     1   109.5600471 388.275200
   6767   6778   6782     1   109.5600471 388.275200
   6768   6770   6774     1   109.5600471 388.275200
   6768   6788   6789     1   107.2600461 396.643200
   6768   6767   6769     1   109.5600471 388.275200
   6769   6767   6778     1   109.5600471 388.275200
   6769   6767   6785     1   109.7800468 425.094400
   6770   6771   6773     1   109.5600471 388.275200
   6770   6777   6779     1   107.2600461 396.643200
   6770   6768   6787     1   109.5600471 388.275200
   6771   6772   6775     1   110.2200475 386.601600
   6771   6790   6780     1   109.2900470 396.643200
   6771   6770   6774     1   109.5600471 388.275200
   6772   6776   6786     1   107.2600461 396.643200
   6772   6771   6773     1   109.5600471 388.275200
   6773   6771   6790     1   109.8800469 414.216000
   6774   6770   6777     1   110.2600474 425.931200
   6775   6772   6776     1   109.4300470 427.604800
   6775   6772   6785     1   109.5800467 425.931200
   6778   6783   6784     1   107.2600461 396.643200
   6781   6778   6783     1   110.2600474 425.931200
   6781   6778   6782     1   108.4600466 328.025600
   6782   6778   6783     1   110.2600474 425.931200
   6787   6768   6788     1   110.2600474 425.931200
   6791   6793   6794     1   108.8800464 416.726400
   6791   6793   6796     1   108.8800464 416.726400
   6792   6791   6793     1   117.6800502 383.254400
   6793   6795   6797     1   109.5600471 388.275200
   6793   6795   6798     1   109.5600471 388.275200
   6794   6793   6795     1   109.5600471 388.275200
   6794   6793   6796     1   108.4600466 328.025600
   6795   6793   6796     1   109.5600471 388.275200
   6797   6795   6799     1   109.8800469 414.216000
   6797   6795   6798     1   108.4600466 328.025600
   6798   6795   6799     1   109.8800469 414.216000
   6799   6800   6809     1   109.8800469 414.216000
   6799   6800   6810     1   109.8800469 414.216000
   6799   6801   6802     1   109.8800469 414.216000
   6799   6801   6804     1   109.8800469 414.216000
   6800   6811   6812     1   109.8000471 387.438400
   6800   6811   6813     1   109.8000471 387.438400
   6801   6803   6805     1   109.8000471 387.438400
   6801   6803   6806     1   109.8000471 387.438400
   6802   6801   6803     1   109.5600471 388.275200
   6802   6801   6804     1   108.4600466 328.025600
   6803   6801   6804     1   109.5600471 388.275200
   6805   6803   6807     1   108.7700466 392.459200
   6805   6803   6806     1   107.5800459 329.699200
   6806   6803   6807     1   108.7700466 392.459200
   6807   6839   6829     1   119.3800509 410.868800
   6809   6800   6811     1   109.5600471 388.275200
   6809   6800   6810     1   108.4600466 328.025600
   6810   6800   6811     1   109.5600471 388.275200
   6812   6811   6814     1   108.7700466 392.459200
   6812   6811   6813     1   107.5800459 329.699200
   6813   6811   6814     1   108.7700466 392.459200
   6814   6863   6853     1   119.3800509 410.868800
   6816   6817   6836     1   109.5600471 388.275200
   6816   6827   6830     1   109.5600471 388.275200
   6816   6827   6831     1   109.5600471 388.275200
   6817   6816   6818     1   109.5600471 388.275200
   6817   6819   6823     1   109.5600471 388.275200
   6817   6837   6838     1   107.2600461 396.643200
   6818   6816   6827     1   109.5600471 388.275200
   6818   6816   6834     1   109.7800468 425.094400
   6819   6817   6836     1   109.5600471 388.275200
   6819   6820   6822     1   109.5600471 388.275200
   6819   6826   6828     1   107.2600461 396.643200
   6820   6819   6823     1   109.5600471 388.275200
   6820   6821   6824     1   110.2200475 386.601600
   6820   6839   6829     1   109.2900470 396.643200
   6821   6820   6822     1   109.5600471 388.275200
   6821   6825   6835     1   107.2600461 396.643200
   6822   6820   6839     1   109.8800469 414.216000
   6823   6819   6826     1   110.2600474 425.931200
   6824   6821   6825     1   109.4300470 427.604800
   6824   6821   6834     1   109.5800467 425.931200
   6827   6832   6833     1   107.2600461 396.643200
   6830   6827   6832     1   110.2600474 425.931200
   6830   6827   6831     1   108.4600466 328.025600
   6831   6827   6832     1   110.2600474 425.931200
   6836   6817   6837     1   110.2600474 425.931200
   6840   6841   6860     1   109.5600471 388.275200
   6840   6851   6854     1   109.5600471 388.275200
   6840   6851   6855     1   109.5600471 388.275200
   6841   6840   6842     1   109.5600471 388.275200
   6841   6843   6847     1   109.5600471 388.275200
   6841   6861   6862     1   107.2600461 396.643200
   6842   6840   6851     1   109.5600471 388.275200
   6842   6840   6858     1   109.7800468 425.094400
   6843   6841   6860     1   109.5600471 388.275200
   6843   6844   6846     1   109.5600471 388.275200
   6843   6850   6852     1   107.2600461 396.643200
   6844   6843   6847     1   109.5600471 388.275200
   6844   6845   6848     1   110.2200475 386.601600
   6844   6863   6853     1   109.2900470 396.643200
   6845   6844   6846     1   109.5600471 388.275200
   6845   6849   6859     1   107.2600461 396.643200
   6846   6844   6863     1   109.8800469 414.216000
   6847   6843   6850     1   110.2600474 425.931200
   6848   6845   6849     1   109.4300470 427.604800
   6848   6845   6858     1   109.5800467 425.931200
   6851   6856   6857     1   107.2600461 396.643200
   6854   6851   6856     1   110.2600474 425.931200
   6854   6851   6855     1   108.4600466 328.025600
   6855   6851   6856     1   110.2600474 425.931200
   6860   6841   6861     1   110.2600474 425.931200
   6864   6866   6867     1   108.8800464 416.726400
   6864   6866   6869     1   108.8800464 416.726400
   6865   6864   6866     1   117.6800502 383.254400
   6866   6868   6870     1   109.5600471 388.275200
   6866   6868   6871     1   109.5600471 388.275200
   6867   6866   6868     1   109.5600471 388.275200
   6867   6866   6869     1   108.4600466 328.025600
   6868   6866   6869     1   109.5600471 388.275200
   6870   6868   6872     1   109.8800469 414.216000
   6870   6868   6871     1   108.4600466 328.025600
   6871   6868   6872     1   109.8800469 414.216000
   6872   6873   6882     1   109.8800469 414.216000
   6872   6873   6883     1   109.8800469 414.216000
   6872   6874   6875     1   109.8800469 414.216000
   6872   6874   6877     1   109.8800469 414.216000
   6873   6884   6885     1   109.8000471 387.438400
   6873   6884   6886     1   109.8000471 387.438400
   6874   6876   6878     1   109.8000471 387.438400
   6874   6876   6879     1   109.8000471 387.438400
   6875   6874   6876     1   109.5600471 388.275200
   6875   6874   6877     1   108.4600466 328.025600
   6876   6874   6877     1   109.5600471 388.275200
   6878   6876   6880     1   108.7700466 392.459200
   6878   6876   6879     1   107.5800459 329.699200
   6879   6876   6880     1   108.7700466 392.459200
   6880   6912   6902     1   119.3800509 410.868800
   6882   6873   6884     1   109.5600471 388.275200
   6882   6873   6883     1   108.4600466 328.025600
   6883   6873   6884     1   109.5600471 388.275200
   6885   6884   6887     1   108.7700466 392.459200
   6885   6884   6886     1   107.5800459 329.699200
   6886   6884   6887     1   108.7700466 392.459200
   6887   6936   6926     1   119.3800509 410.868800
   6889   6890   6909     1   109.5600471 388.275200
   6889   6900   6903     1   109.5600471 388.275200
   6889   6900   6904     1   109.5600471 388.275200
   6890   6892   6896     1   109.5600471 388.275200
   6890   6910   6911     1   107.2600461 396.643200
   6890   6889   6891     1   109.5600471 388.275200
   6891   6889   6900     1   109.5600471 388.275200
   6891   6889   6907     1   109.7800468 425.094400
   6892   6893   6895     1   109.5600471 388.275200
   6892   6899   6901     1   107.2600461 396.643200
   6892   6890   6909     1   109.5600471 388.275200
   6893   6894   6897     1   110.2200475 386.601600
   6893   6912   6902     1   109.2900470 396.643200
   6893   6892   6896     1   109.5600471 388.275200
   6894   6898   6908     1   107.2600461 396.643200
   6894   6893   6895     1   109.5600471 388.275200
   6895   6893   6912     1   109.8800469 414.216000
   6896   6892   6899     1   110.2600474 425.931200
   6897   6894   6898     1   109.4300470 427.604800
   6897   6894   6907     1   109.5800467 425.931200
   6900   6905   6906     1   107.2600461 396.643200
   6903   6900   6905     1   110.2600474 425.931200
   6903   6900   6904     1   108.4600466 328.025600
   6904   6900   6905     1   110.2600474 425.931200
   6909   6890   6910     1   110.2600474 425.931200
   6913   6914   6933     1   109.5600471 388.275200
   6913   6924   6927     1   109.5600471 388.275200
   6913   6924   6928     1   109.5600471 388.275200
   6914   6916   6920     1   109.5600471 388.275200
   6914   6934   6935     1   107.2600461 396.643200
   6914   6913   6915     1   109.5600471 388.275200
   6915   6913   6924     1   109.5600471 388.275200
   6915   6913   6931     1   109.7800468 425.094400
   6916   6917   6919     1   109.5600471 388.275200
   6916   6923   6925     1   107.2600461 396.643200
   6916   6914   6933     1   109.5600471 388.275200
   6917   6918   6921     1   110.2200475 386.601600
   6917   6936   6926     1   109.2900470 396.643200
   6917   6916   6920     1   109.5600471 388.275200
   6918   6922   6932     1   107.2600461 396.643200
   6918   6917   6919     1   109.5600471 388.275200
   6919   6917   6936     1   109.8800469 414.216000
   6920   6916   6923     1   110.2600474 425.931200
   6921   6918   6922     1   109.4300470 427.604800
   6921   6918   6931     1   109.5800467 425.931200
   6924   6929   6930     1   107.2600461 396.643200
   6927   6924   6929     1   110.2600474 425.931200
   6927   6924   6928     1   108.4600466 328.025600
   6928   6924   6929     1   110.2600474 425.931200
   6933   6914   6934     1   110.2600474 425.931200
   6937   6939   6940     1   108.8800464 416.726400
   6937   6939   6942     1   108.8800464 416.726400
   6938   6937   6939     1   117.6800502 383.254400
   6939   6941   6943     1   109.5600471 388.275200
   6939   6941   6944     1   109.5600471 388.275200
   6940   6939   6941     1   109.5600471 388.275200
   6940   6939   6942     1   108.4600466 328.025600
   6941   6939   6942     1   109.5600471 388.275200
   6943   6941   6945     1   109.8800469 414.216000
   6943   6941   6944     1   108.4600466 328.025600
   6944   6941   6945     1   109.8800469 414.216000
   6945   6946   6955     1   109.8800469 414.216000
   6945   6946   6956     1   109.8800469 414.216000
   6945   6947   6948     1   109.8800469 414.216000
   6945   6947   6950     1   109.8800469 414.216000
   6946   6957   6958     1   109.8000471 387.438400
   6946   6957   6959     1   109.8000471 387.438400
   6947   6949   6951     1   109.8000471 387.438400
   6947   6949   6952     1   109.8000471 387.438400
   6948   6947   6949     1   109.5600471 388.275200
   6948   6947   6950     1   108.4600466 328.025600
   6949   6947   6950     1   109.5600471 388.275200
   6951   6949   6953     1   108.7700466 392.459200
   6951   6949   6952     1   107.5800459 329.699200
   6952   6949   6953     1   108.7700466 392.459200
   6953   6985   6975     1   119.3800509 410.868800
   6955   6946   6957     1   109.5600471 388.275200
   6955   6946   6956     1   108.4600466 328.025600
   6956   6946   6957     1   109.5600471 388.275200
   6958   6957   6960     1   108.7700466 392.459200
   6958   6957   6959     1   107.5800459 329.699200
   6959   6957   6960     1   108.7700466 392.459200
   6960   7009   6999     1   119.3800509 410.868800
   6962   6963   6982     1   109.5600471 388.275200
   6962   6973   6976     1   109.5600471 388.275200
   6962   6973   6977     1   109.5600471 388.275200
   6963   6962   6964     1   109.5600471 388.275200
   6963   6965   6969     1   109.5600471 388.275200
   6963   6983   6984     1   107.2600461 396.643200
   6964   6962   6973     1   109.5600471 388.275200
   6964   6962   6980     1   109.7800468 425.094400
   6965   6963   6982     1   109.5600471 388.275200
   6965   6966   6968     1   109.5600471 388.275200
   6965   6972   6974     1   107.2600461 396.643200
   6966   6965   6969     1   109.5600471 388.275200
   6966   6967   6970     1   110.2200475 386.601600
   6966   6985   6975     1   109.2900470 396.643200
   6967   6966   6968     1   109.5600471 388.275200
   6967   6971   6981     1   107.2600461 396.643200
   6968   6966   6985     1   109.8800469 414.216000
   6969   6965   6972     1   110.2600474 425.931200
   6970   6967   6971     1   109.4300470 427.604800
   6970   6967   6980     1   109.5800467 425.931200
   6973   6978   6979     1   107.2600461 396.643200
   6976   6973   6978     1   110.2600474 425.931200
   6976   6973   6977     1   108.4600466 328.025600
   6977   6973   6978     1   110.2600474 425.931200
   6982   6963   6983     1   110.2600474 425.931200
   6986   6987   7006     1   109.5600471 388.275200
   6986   6997   7000     1   109.5600471 388.275200
   6986   6997   7001     1   109.5600471 388.275200
   6987   6986   6988     1   109.5600471 388.275200
   6987   6989   6993     1   109.5600471 388.275200
   6987   7007   7008     1   107.2600461 396.643200
   6988   6986   6997     1   109.5600471 388.275200
   6988   6986   7004     1   109.7800468 425.094400
   6989   6987   7006     1   109.5600471 388.275200
   6989   6990   6992     1   109.5600471 388.275200
   6989   6996   6998     1   107.2600461 396.643200
   6990   6989   6993     1   109.5600471 388.275200
   6990   6991   6994     1   110.2200475 386.601600
   6990   7009   6999     1   109.2900470 396.643200
   6991   6990   6992     1   109.5600471 388.275200
   6991   6995   7005     1   107.2600461 396.643200
   6992   6990   7009     1   109.8800469 414.216000
   6993   6989   6996     1   110.2600474 425.931200
   6994   6991   6995     1   109.4300470 427.604800
   6994   6991   7004     1   109.5800467 425.931200
   6997   7002   7003     1   107.2600461 396.643200
   7000   6997   7002     1   110.2600474 425.931200
   7000   6997   7001     1   108.4600466 328.025600
   7001   6997   7002     1   110.2600474 425.931200
   7006   6987   7007     1   110.2600474 425.931200
   7010   7012   7013     1   108.8800464 416.726400
   7010   7012   7015     1   108.8800464 416.726400
   7011   7010   7012     1   117.6800502 383.254400
   7012   7014   7016     1   109.5600471 388.275200
   7012   7014   7017     1   109.5600471 388.275200
   7013   7012   7014     1   109.5600471 388.275200
   7013   7012   7015     1   108.4600466 328.025600
   7014   7012   7015     1   109.5600471 388.275200
   7016   7014   7018     1   109.8800469 414.216000
   7016   7014   7017     1   108.4600466 328.025600
   7017   7014   7018     1   109.8800469 414.216000
   7018   7019   7028     1   109.8800469 414.216000
   7018   7019   7029     1   109.8800469 414.216000
   7018   7020   7021     1   109.8800469 414.216000
   7018   7020   7023     1   109.8800469 414.216000
   7019   7030   7031     1   109.8000471 387.438400
   7019   7030   7032     1   109.8000471 387.438400
   7020   7022   7024     1   109.8000471 387.438400
   7020   7022   7025     1   109.8000471 387.438400
   7021   7020   7022     1   109.5600471 388.275200
   7021   7020   7023     1   108.4600466 328.025600
   7022   7020   7023     1   109.5600471 388.275200
   7024   7022   7026     1   108.7700466 392.459200
   7024   7022   7025     1   107.5800459 329.699200
   7025   7022   7026     1   108.7700466 392.459200
   7026   7058   7048     1   119.3800509 410.868800
   7028   7019   7030     1   109.5600471 388.275200
   7028   7019   7029     1   108.4600466 328.025600
   7029   7019   7030     1   109.5600471 388.275200
   7031   7030   7033     1   108.7700466 392.459200
   7031   7030   7032     1   107.5800459 329.699200
   7032   7030   7033     1   108.7700466 392.459200
   7033   7082   7072     1   119.3800509 410.868800
   7035   7036   7055     1   109.5600471 388.275200
   7035   7046   7049     1   109.5600471 388.275200
   7035   7046   7050     1   109.5600471 388.275200
   7036   7038   7042     1   109.5600471 388.275200
   7036   7056   7057     1   107.2600461 396.643200
   7036   7035   7037     1   109.5600471 388.275200
   7037   7035   7046     1   109.5600471 388.275200
   7037   7035   7053     1   109.7800468 425.094400
   7038   7039   7041     1   109.5600471 388.275200
   7038   7045   7047     1   107.2600461 396.643200
   7038   7036   7055     1   109.5600471 388.275200
   7039   7040   7043     1   110.2200475 386.601600
   7039   7058   7048     1   109.2900470 396.643200
   7039   7038   7042     1   109.5600471 388.275200
   7040   7044   7054     1   107.2600461 396.643200
   7040   7039   7041     1   109.5600471 388.275200
   7041   7039   7058     1   109.8800469 414.216000
   7042   7038   7045     1   110.2600474 425.931200
   7043   7040   7044     1   109.4300470 427.604800
   7043   7040   7053     1   109.5800467 425.931200
   7046   7051   7052     1   107.2600461 396.643200
   7049   7046   7051     1   110.2600474 425.931200
   7049   7046   7050     1   108.4600466 328.025600
   7050   7046   7051     1   110.2600474 425.931200
   7055   7036   7056     1   110.2600474 425.931200
   7059   7060   7079     1   109.5600471 388.275200
   7059   7070   7073     1   109.5600471 388.275200
   7059   7070   7074     1   109.5600471 388.275200
   7060   7062   7066     1   109.5600471 388.275200
   7060   7080   7081     1   107.2600461 396.643200
   7060   7059   7061     1   109.5600471 388.275200
   7061   7059   7070     1   109.5600471 388.275200
   7061   7059   7077     1   109.7800468 425.094400
   7062   7063   7065     1   109.5600471 388.275200
   7062   7069   7071     1   107.2600461 396.643200
   7062   7060   7079     1   109.5600471 388.275200
   7063   7064   7067     1   110.2200475 386.601600
   7063   7082   7072     1   109.2900470 396.643200
   7063   7062   7066     1   109.5600471 388.275200
   7064   7068   7078     1   107.2600461 396.643200
   7064   7063   7065     1   109.5600471 388.275200
   7065   7063   7082     1   109.8800469 414.216000
   7066   7062   7069     1   110.2600474 425.931200
   7067   7064   7068     1   109.4300470 427.604800
   7067   7064   7077     1   109.5800467 425.931200
   7070   7075   7076     1   107.2600461 396.643200
   7073   7070   7075     1   110.2600474 425.931200
   7073   7070   7074     1   108.4600466 328.025600
   7074   7070   7075     1   110.2600474 425.931200
   7079   7060   7080     1   110.2600474 425.931200
   7083   7085   7086     1   108.8800464 416.726400
   7083   7085   7088     1   108.8800464 416.726400
   7084   7083   7085     1   117.6800502 383.254400
   7085   7087   7089     1   109.5600471 388.275200
   7085   7087   7090     1   109.5600471 388.275200
   7086   7085   7087     1   109.5600471 388.275200
   7086   7085   7088     1   108.4600466 328.025600
   7087   7085   7088     1   109.5600471 388.275200
   7089   7087   7091     1   109.8800469 414.216000
   7089   7087   7090     1   108.4600466 328.025600
   7090   7087   7091     1   109.8800469 414.216000
   7091   7092   7101     1   109.8800469 414.216000
   7091   7092   7102     1   109.8800469 414.216000
   7091   7093   7094     1   109.8800469 414.216000
   7091   7093   7096     1   109.8800469 414.216000
   7092   7103   7104     1   109.8000471 387.438400
   7092   7103   7105     1   109.8000471 387.438400
   7093   7095   7097     1   109.8000471 387.438400
   7093   7095   7098     1   109.8000471 387.438400
   7094   7093   7095     1   109.5600471 388.275200
   7094   7093   7096     1   108.4600466 328.025600
   7095   7093   7096     1   109.5600471 388.275200
   7097   7095   7099     1   108.7700466 392.459200
   7097   7095   7098     1   107.5800459 329.699200
   7098   7095   7099     1   108.7700466 392.459200
   7099   7131   7121     1   119.3800509 410.868800
   7101   7092   7103     1   109.5600471 388.275200
   7101   7092   7102     1   108.4600466 328.025600
   7102   7092   7103     1   109.5600471 388.275200
   7104   7103   7106     1   108.7700466 392.459200
   7104   7103   7105     1   107.5800459 329.699200
   7105   7103   7106     1   108.7700466 392.459200
   7106   7155   7145     1   119.3800509 410.868800
   7108   7109   7128     1   109.5600471 388.275200
   7108   7119   7122     1   109.5600471 388.275200
   7108   7119   7123     1   109.5600471 388.275200
   7109   7108   7110     1   109.5600471 388.275200
   7109   7111   7115     1   109.5600471 388.275200
   7109   7129   7130     1   107.2600461 396.643200
   7110   7108   7119     1   109.5600471 388.275200
   7110   7108   7126     1   109.7800468 425.094400
   7111   7109   7128     1   109.5600471 388.275200
   7111   7112   7114     1   109.5600471 388.275200
   7111   7118   7120     1   107.2600461 396.643200
   7112   7111   7115     1   109.5600471 388.275200
   7112   7113   7116     1   110.2200475 386.601600
   7112   7131   7121     1   109.2900470 396.643200
   7113   7112   7114     1   109.5600471 388.275200
   7113   7117   7127     1   107.2600461 396.643200
   7114   7112   7131     1   109.8800469 414.216000
   7115   7111   7118     1   110.2600474 425.931200
   7116   7113   7117     1   109.4300470 427.604800
   7116   7113   7126     1   109.5800467 425.931200
   7119   7124   7125     1   107.2600461 396.643200
   7122   7119   7124     1   110.2600474 425.931200
   7122   7119   7123     1   108.4600466 328.025600
   7123   7119   7124     1   110.2600474 425.931200
   7128   7109   7129     1   110.2600474 425.931200
   7132   7133   7152     1   109.5600471 388.275200
   7132   7143   7146     1   109.5600471 388.275200
   7132   7143   7147     1   109.5600471 388.275200
   7133   7132   7134     1   109.5600471 388.275200
   7133   7135   7139     1   109.5600471 388.275200
   7133   7153   7154     1   107.2600461 396.643200
   7134   7132   7143     1   109.5600471 388.275200
   7134   7132   7150     1   109.7800468 425.094400
   7135   7133   7152     1   109.5600471 388.275200
   7135   7136   7138     1   109.5600471 388.275200
   7135   7142   7144     1   107.2600461 396.643200
   7136   7135   7139     1   109.5600471 388.275200
   7136   7137   7140     1   110.2200475 386.601600
   7136   7155   7145     1   109.2900470 396.643200
   7137   7136   7138     1   109.5600471 388.275200
   7137   7141   7151     1   107.2600461 396.643200
   7138   7136   7155     1   109.8800469 414.216000
   7139   7135   7142     1   110.2600474 425.931200
   7140   7137   7141     1   109.4300470 427.604800
   7140   7137   7150     1   109.5800467 425.931200
   7143   7148   7149     1   107.2600461 396.643200
   7146   7143   7148     1   110.2600474 425.931200
   7146   7143   7147     1   108.4600466 328.025600
   7147   7143   7148     1   110.2600474 425.931200
   7152   7133   7153     1   110.2600474 425.931200
   7156   7158   7159     1   108.8800464 416.726400
   7156   7158   7161     1   108.8800464 416.726400
   7157   7156   7158     1   117.6800502 383.254400
   7158   7160   7162     1   109.5600471 388.275200
   7158   7160   7163     1   109.5600471 388.275200
   7159   7158   7160     1   109.5600471 388.275200
   7159   7158   7161     1   108.4600466 328.025600
   7160   7158   7161     1   109.5600471 388.275200
   7162   7160   7164     1   109.8800469 414.216000
   7162   7160   7163     1   108.4600466 328.025600
   7163   7160   7164     1   109.8800469 414.216000
   7164   7165   7174     1   109.8800469 414.216000
   7164   7165   7175     1   109.8800469 414.216000
   7164   7166   7167     1   109.8800469 414.216000
   7164   7166   7169     1   109.8800469 414.216000
   7165   7176   7177     1   109.8000471 387.438400
   7165   7176   7178     1   109.8000471 387.438400
   7166   7168   7170     1   109.8000471 387.438400
   7166   7168   7171     1   109.8000471 387.438400
   7167   7166   7168     1   109.5600471 388.275200
   7167   7166   7169     1   108.4600466 328.025600
   7168   7166   7169     1   109.5600471 388.275200
   7170   7168   7172     1   108.7700466 392.459200
   7170   7168   7171     1   107.5800459 329.699200
   7171   7168   7172     1   108.7700466 392.459200
   7172   7204   7194     1   119.3800509 410.868800
   7174   7165   7176     1   109.5600471 388.275200
   7174   7165   7175     1   108.4600466 328.025600
   7175   7165   7176     1   109.5600471 388.275200
   7177   7176   7179     1   108.7700466 392.459200
   7177   7176   7178     1   107.5800459 329.699200
   7178   7176   7179     1   108.7700466 392.459200
   7179   7228   7218     1   119.3800509 410.868800
   7181   7182   7201     1   109.5600471 388.275200
   7181   7192   7195     1   109.5600471 388.275200
   7181   7192   7196     1   109.5600471 388.275200
   7182   7184   7188     1   109.5600471 388.275200
   7182   7202   7203     1   107.2600461 396.643200
   7182   7181   7183     1   109.5600471 388.275200
   7183   7181   7192     1   109.5600471 388.275200
   7183   7181   7199     1   109.7800468 425.094400
   7184   7185   7187     1   109.5600471 388.275200
   7184   7191   7193     1   107.2600461 396.643200
   7184   7182   7201     1   109.5600471 388.275200
   7185   7186   7189     1   110.2200475 386.601600
   7185   7204   7194     1   109.2900470 396.643200
   7185   7184   7188     1   109.5600471 388.275200
   7186   7190   7200     1   107.2600461 396.643200
   7186   7185   7187     1   109.5600471 388.275200
   7187   7185   7204     1   109.8800469 414.216000
   7188   7184   7191     1   110.2600474 425.931200
   7189   7186   7190     1   109.4300470 427.604800
   7189   7186   7199     1   109.5800467 425.931200
   7192   7197   7198     1   107.2600461 396.643200
   7195   7192   7197     1   110.2600474 425.931200
   7195   7192   7196     1   108.4600466 328.025600
   7196   7192   7197     1   110.2600474 425.931200
   7201   7182   7202     1   110.2600474 425.931200
   7205   7206   7225     1   109.5600471 388.275200
   7205   7216   7219     1   109.5600471 388.275200
   7205   7216   7220     1   109.5600471 388.275200
   7206   7208   7212     1   109.5600471 388.275200
   7206   7226   7227     1   107.2600461 396.643200
   7206   7205   7207     1   109.5600471 388.275200
   7207   7205   7216     1   109.5600471 388.275200
   7207   7205   7223     1   109.7800468 425.094400
   7208   7209   7211     1   109.5600471 388.275200
   7208   7215   7217     1   107.2600461 396.643200
   7208   7206   7225     1   109.5600471 388.275200
   7209   7210   7213     1   110.2200475 386.601600
   7209   7228   7218     1   109.2900470 396.643200
   7209   7208   7212     1   109.5600471 388.275200
   7210   7214   7224     1   107.2600461 396.643200
   7210   7209   7211     1   109.5600471 388.275200
   7211   7209   7228     1   109.8800469 414.216000
   7212   7208   7215     1   110.2600474 425.931200
   7213   7210   7214     1   109.4300470 427.604800
   7213   7210   7223     1   109.5800467 425.931200
   7216   7221   7222     1   107.2600461 396.643200
   7219   7216   7221     1   110.2600474 425.931200
   7219   7216   7220     1   108.4600466 328.025600
   7220   7216   7221     1   110.2600474 425.931200
   7225   7206   7226     1   110.2600474 425.931200
   7229   7231   7232     1   108.8800464 416.726400
   7229   7231   7234     1   108.8800464 416.726400
   7230   7229   7231     1   117.6800502 383.254400
   7231   7233   7235     1   109.5600471 388.275200
   7231   7233   7236     1   109.5600471 388.275200
   7232   7231   7233     1   109.5600471 388.275200
   7232   7231   7234     1   108.4600466 328.025600
   7233   7231   7234     1   109.5600471 388.275200
   7235   7233   7237     1   109.8800469 414.216000
   7235   7233   7236     1   108.4600466 328.025600
   7236   7233   7237     1   109.8800469 414.216000
   7237   7238   7247     1   109.8800469 414.216000
   7237   7238   7248     1   109.8800469 414.216000
   7237   7239   7240     1   109.8800469 414.216000
   7237   7239   7242     1   109.8800469 414.216000
   7238   7249   7250     1   109.8000471 387.438400
   7238   7249   7251     1   109.8000471 387.438400
   7239   7241   7243     1   109.8000471 387.438400
   7239   7241   7244     1   109.8000471 387.438400
   7240   7239   7241     1   109.5600471 388.275200
   7240   7239   7242     1   108.4600466 328.025600
   7241   7239   7242     1   109.5600471 388.275200
   7243   7241   7245     1   108.7700466 392.459200
   7243   7241   7244     1   107.5800459 329.699200
   7244   7241   7245     1   108.7700466 392.459200
   7245   7277   7267     1   119.3800509 410.868800
   7247   7238   7249     1   109.5600471 388.275200
   7247   7238   7248     1   108.4600466 328.025600
   7248   7238   7249     1   109.5600471 388.275200
   7250   7249   7252     1   108.7700466 392.459200
   7250   7249   7251     1   107.5800459 329.699200
   7251   7249   7252     1   108.7700466 392.459200
   7252   7301   7291     1   119.3800509 410.868800
   7254   7255   7274     1   109.5600471 388.275200
   7254   7265   7268     1   109.5600471 388.275200
   7254   7265   7269     1   109.5600471 388.275200
   7255   7254   7256     1   109.5600471 388.275200
   7255   7257   7261     1   109.5600471 388.275200
   7255   7275   7276     1   107.2600461 396.643200
   7256   7254   7265     1   109.5600471 388.275200
   7256   7254   7272     1   109.7800468 425.094400
   7257   7255   7274     1   109.5600471 388.275200
   7257   7258   7260     1   109.5600471 388.275200
   7257   7264   7266     1   107.2600461 396.643200
   7258   7257   7261     1   109.5600471 388.275200
   7258   7259   7262     1   110.2200475 386.601600
   7258   7277   7267     1   109.2900470 396.643200
   7259   7258   7260     1   109.5600471 388.275200
   7259   7263   7273     1   107.2600461 396.643200
   7260   7258   7277     1   109.8800469 414.216000
   7261   7257   7264     1   110.2600474 425.931200
   7262   7259   7263     1   109.4300470 427.604800
   7262   7259   7272     1   109.5800467 425.931200
   7265   7270   7271     1   107.2600461 396.643200
   7268   7265   7270     1   110.2600474 425.931200
   7268   7265   7269     1   108.4600466 328.025600
   7269   7265   7270     1   110.2600474 425.931200
   7274   7255   7275     1   110.2600474 425.931200
   7278   7279   7298     1   109.5600471 388.275200
   7278   7289   7292     1   109.5600471 388.275200
   7278   7289   7293     1   109.5600471 388.275200
   7279   7278   7280     1   109.5600471 388.275200
   7279   7281   7285     1   109.5600471 388.275200
   7279   7299   7300     1   107.2600461 396.643200
   7280   7278   7289     1   109.5600471 388.275200
   7280   7278   7296     1   109.7800468 425.094400
   7281   7279   7298     1   109.5600471 388.275200
   7281   7282   7284     1   109.5600471 388.275200
   7281   7288   7290     1   107.2600461 396.643200
   7282   7281   7285     1   109.5600471 388.275200
   7282   7283   7286     1   110.2200475 386.601600
   7282   7301   7291     1   109.2900470 396.643200
   7283   7282   7284     1   109.5600471 388.275200
   7283   7287   7297     1   107.2600461 396.643200
   7284   7282   7301     1   109.8800469 414.216000
   7285   7281   7288     1   110.2600474 425.931200
   7286   7283   7287     1   109.4300470 427.604800
   7286   7283   7296     1   109.5800467 425.931200
   7289   7294   7295     1   107.2600461 396.643200
   7292   7289   7294     1   110.2600474 425.931200
   7292   7289   7293     1   108.4600466 328.025600
   7293   7289   7294     1   110.2600474 425.931200
   7298   7279   7299     1   110.2600474 425.931200
   7302   7304   7305     1   108.8800464 416.726400
   7302   7304   7307     1   108.8800464 416.726400
   7303   7302   7304     1   117.6800502 383.254400
   7304   7306   7308     1   109.5600471 388.275200
   7304   7306   7309     1   109.5600471 388.275200
   7305   7304   7306     1   109.5600471 388.275200
   7305   7304   7307     1   108.4600466 328.025600
   7306   7304   7307     1   109.5600471 388.275200
   7308   7306   7310     1   109.8800469 414.216000
   7308   7306   7309     1   108.4600466 328.025600
   7309   7306   7310     1   109.8800469 414.216000
   7310   7311   7320     1   109.8800469 414.216000
   7310   7311   7321     1   109.8800469 414.216000
   7310   7312   7313     1   109.8800469 414.216000
   7310   7312   7315     1   109.8800469 414.216000
   7311   7322   7323     1   109.8000471 387.438400
   7311   7322   7324     1   109.8000471 387.438400
   7312   7314   7316     1   109.8000471 387.438400
   7312   7314   7317     1   109.8000471 387.438400
   7313   7312   7314     1   109.5600471 388.275200
   7313   7312   7315     1   108.4600466 328.025600
   7314   7312   7315     1   109.5600471 388.275200
   7316   7314   7318     1   108.7700466 392.459200
   7316   7314   7317     1   107.5800459 329.699200
   7317   7314   7318     1   108.7700466 392.459200
   7318   7350   7340     1   119.3800509 410.868800
   7320   7311   7322     1   109.5600471 388.275200
   7320   7311   7321     1   108.4600466 328.025600
   7321   7311   7322     1   109.5600471 388.275200
   7323   7322   7325     1   108.7700466 392.459200
   7323   7322   7324     1   107.5800459 329.699200
   7324   7322   7325     1   108.7700466 392.459200
   7325   7374   7364     1   119.3800509 410.868800
   7327   7328   7347     1   109.5600471 388.275200
   7327   7338   7341     1   109.5600471 388.275200
   7327   7338   7342     1   109.5600471 388.275200
   7328   7330   7334     1   109.5600471 388.275200
   7328   7348   7349     1   107.2600461 396.643200
   7328   7327   7329     1   109.5600471 388.275200
   7329   7327   7338     1   109.5600471 388.275200
   7329   7327   7345     1   109.7800468 425.094400
   7330   7331   7333     1   109.5600471 388.275200
   7330   7337   7339     1   107.2600461 396.643200
   7330   7328   7347     1   109.5600471 388.275200
   7331   7332   7335     1   110.2200475 386.601600
   7331   7350   7340     1   109.2900470 396.643200
   7331   7330   7334     1   109.5600471 388.275200
   7332   7336   7346     1   107.2600461 396.643200
   7332   7331   7333     1   109.5600471 388.275200
   7333   7331   7350     1   109.8800469 414.216000
   7334   7330   7337     1   110.2600474 425.931200
   7335   7332   7336     1   109.4300470 427.604800
   7335   7332   7345     1   109.5800467 425.931200
   7338   7343   7344     1   107.2600461 396.643200
   7341   7338   7343     1   110.2600474 425.931200
   7341   7338   7342     1   108.4600466 328.025600
   7342   7338   7343     1   110.2600474 425.931200
   7347   7328   7348     1   110.2600474 425.931200
   7351   7352   7371     1   109.5600471 388.275200
   7351   7362   7365     1   109.5600471 388.275200
   7351   7362   7366     1   109.5600471 388.275200
   7352   7354   7358     1   109.5600471 388.275200
   7352   7372   7373     1   107.2600461 396.643200
   7352   7351   7353     1   109.5600471 388.275200
   7353   7351   7362     1   109.5600471 388.275200
   7353   7351   7369     1   109.7800468 425.094400
   7354   7355   7357     1   109.5600471 388.275200
   7354   7361   7363     1   107.2600461 396.643200
   7354   7352   7371     1   109.5600471 388.275200
   7355   7356   7359     1   110.2200475 386.601600
   7355   7374   7364     1   109.2900470 396.643200
   7355   7354   7358     1   109.5600471 388.275200
   7356   7360   7370     1   107.2600461 396.643200
   7356   7355   7357     1   109.5600471 388.275200
   7357   7355   7374     1   109.8800469 414.216000
   7358   7354   7361     1   110.2600474 425.931200
   7359   7356   7360     1   109.4300470 427.604800
   7359   7356   7369     1   109.5800467 425.931200
   7362   7367   7368     1   107.2600461 396.643200
   7365   7362   7367     1   110.2600474 425.931200
   7365   7362   7366     1   108.4600466 328.025600
   7366   7362   7367     1   110.2600474 425.931200
   7371   7352   7372     1   110.2600474 425.931200
   7375   7377   7378     1   108.8800464 416.726400
   7375   7377   7380     1   108.8800464 416.726400
   7376   7375   7377     1   117.6800502 383.254400
   7377   7379   7381     1   109.5600471 388.275200
   7377   7379   7382     1   109.5600471 388.275200
   7378   7377   7379     1   109.5600471 388.275200
   7378   7377   7380     1   108.4600466 328.025600
   7379   7377   7380     1   109.5600471 388.275200
   7381   7379   7383     1   109.8800469 414.216000
   7381   7379   7382     1   108.4600466 328.025600
   7382   7379   7383     1   109.8800469 414.216000
   7383   7384   7393     1   109.8800469 414.216000
   7383   7384   7394     1   109.8800469 414.216000
   7383   7385   7386     1   109.8800469 414.216000
   7383   7385   7388     1   109.8800469 414.216000
   7384   7395   7396     1   109.8000471 387.438400
   7384   7395   7397     1   109.8000471 387.438400
   7385   7387   7389     1   109.8000471 387.438400
   7385   7387   7390     1   109.8000471 387.438400
   7386   7385   7387     1   109.5600471 388.275200
   7386   7385   7388     1   108.4600466 328.025600
   7387   7385   7388     1   109.5600471 388.275200
   7389   7387   7391     1   108.7700466 392.459200
   7389   7387   7390     1   107.5800459 329.699200
   7390   7387   7391     1   108.7700466 392.459200
   7391   7423   7413     1   119.3800509 410.868800
   7393   7384   7395     1   109.5600471 388.275200
   7393   7384   7394     1   108.4600466 328.025600
   7394   7384   7395     1   109.5600471 388.275200
   7396   7395   7398     1   108.7700466 392.459200
   7396   7395   7397     1   107.5800459 329.699200
   7397   7395   7398     1   108.7700466 392.459200
   7398   7447   7437     1   119.3800509 410.868800
   7400   7401   7420     1   109.5600471 388.275200
   7400   7411   7414     1   109.5600471 388.275200
   7400   7411   7415     1   109.5600471 388.275200
   7401   7400   7402     1   109.5600471 388.275200
   7401   7403   7407     1   109.5600471 388.275200
   7401   7421   7422     1   107.2600461 396.643200
   7402   7400   7411     1   109.5600471 388.275200
   7402   7400   7418     1   109.7800468 425.094400
   7403   7401   7420     1   109.5600471 388.275200
   7403   7404   7406     1   109.5600471 388.275200
   7403   7410   7412     1   107.2600461 396.643200
   7404   7403   7407     1   109.5600471 388.275200
   7404   7405   7408     1   110.2200475 386.601600
   7404   7423   7413     1   109.2900470 396.643200
   7405   7404   7406     1   109.5600471 388.275200
   7405   7409   7419     1   107.2600461 396.643200
   7406   7404   7423     1   109.8800469 414.216000
   7407   7403   7410     1   110.2600474 425.931200
   7408   7405   7409     1   109.4300470 427.604800
   7408   7405   7418     1   109.5800467 425.931200
   7411   7416   7417     1   107.2600461 396.643200
   7414   7411   7416     1   110.2600474 425.931200
   7414   7411   7415     1   108.4600466 328.025600
   7415   7411   7416     1   110.2600474 425.931200
   7420   7401   7421     1   110.2600474 425.931200
   7424   7425   7444     1   109.5600471 388.275200
   7424   7435   7438     1   109.5600471 388.275200
   7424   7435   7439     1   109.5600471 388.275200
   7425   7424   7426     1   109.5600471 388.275200
   7425   7427   7431     1   109.5600471 388.275200
   7425   7445   7446     1   107.2600461 396.643200
   7426   7424   7435     1   109.5600471 388.275200
   7426   7424   7442     1   109.7800468 425.094400
   7427   7425   7444     1   109.5600471 388.275200
   7427   7428   7430     1   109.5600471 388.275200
   7427   7434   7436     1   107.2600461 396.643200
   7428   7427   7431     1   109.5600471 388.275200
   7428   7429   7432     1   110.2200475 386.601600
   7428   7447   7437     1   109.2900470 396.643200
   7429   7428   7430     1   109.5600471 388.275200
   7429   7433   7443     1   107.2600461 396.643200
   7430   7428   7447     1   109.8800469 414.216000
   7431   7427   7434     1   110.2600474 425.931200
   7432   7429   7433     1   109.4300470 427.604800
   7432   7429   7442     1   109.5800467 425.931200
   7435   7440   7441     1   107.2600461 396.643200
   7438   7435   7440     1   110.2600474 425.931200
   7438   7435   7439     1   108.4600466 328.025600
   7439   7435   7440     1   110.2600474 425.931200
   7444   7425   7445     1   110.2600474 425.931200
   7448   7450   7451     1   108.8800464 416.726400
   7448   7450   7453     1   108.8800464 416.726400
   7449   7448   7450     1   117.6800502 383.254400
   7450   7452   7454     1   109.5600471 388.275200
   7450   7452   7455     1   109.5600471 388.275200
   7451   7450   7452     1   109.5600471 388.275200
   7451   7450   7453     1   108.4600466 328.025600
   7452   7450   7453     1   109.5600471 388.275200
   7454   7452   7456     1   109.8800469 414.216000
   7454   7452   7455     1   108.4600466 328.025600
   7455   7452   7456     1   109.8800469 414.216000
   7456   7457   7466     1   109.8800469 414.216000
   7456   7457   7467     1   109.8800469 414.216000
   7456   7458   7459     1   109.8800469 414.216000
   7456   7458   7461     1   109.8800469 414.216000
   7457   7468   7469     1   109.8000471 387.438400
   7457   7468   7470     1   109.8000471 387.438400
   7458   7460   7462     1   109.8000471 387.438400
   7458   7460   7463     1   109.8000471 387.438400
   7459   7458   7460     1   109.5600471 388.275200
   7459   7458   7461     1   108.4600466 328.025600
   7460   7458   7461     1   109.5600471 388.275200
   7462   7460   7464     1   108.7700466 392.459200
   7462   7460   7463     1   107.5800459 329.699200
   7463   7460   7464     1   108.7700466 392.459200
   7464   7496   7486     1   119.3800509 410.868800
   7466   7457   7468     1   109.5600471 388.275200
   7466   7457   7467     1   108.4600466 328.025600
   7467   7457   7468     1   109.5600471 388.275200
   7469   7468   7471     1   108.7700466 392.459200
   7469   7468   7470     1   107.5800459 329.699200
   7470   7468   7471     1   108.7700466 392.459200
   7471   7520   7510     1   119.3800509 410.868800
   7473   7474   7493     1   109.5600471 388.275200
   7473   7484   7487     1   109.5600471 388.275200
   7473   7484   7488     1   109.5600471 388.275200
   7474   7476   7480     1   109.5600471 388.275200
   7474   7494   7495     1   107.2600461 396.643200
   7474   7473   7475     1   109.5600471 388.275200
   7475   7473   7484     1   109.5600471 388.275200
   7475   7473   7491     1   109.7800468 425.094400
   7476   7477   7479     1   109.5600471 388.275200
   7476   7483   7485     1   107.2600461 396.643200
   7476   7474   7493     1   109.5600471 388.275200
   7477   7478   7481     1   110.2200475 386.601600
   7477   7496   7486     1   109.2900470 396.643200
   7477   7476   7480     1   109.5600471 388.275200
   7478   7482   7492     1   107.2600461 396.643200
   7478   7477   7479     1   109.5600471 388.275200
   7479   7477   7496     1   109.8800469 414.216000
   7480   7476   7483     1   110.2600474 425.931200
   7481   7478   7482     1   109.4300470 427.604800
   7481   7478   7491     1   109.5800467 425.931200
   7484   7489   7490     1   107.2600461 396.643200
   7487   7484   7489     1   110.2600474 425.931200
   7487   7484   7488     1   108.4600466 328.025600
   7488   7484   7489     1   110.2600474 425.931200
   7493   7474   7494     1   110.2600474 425.931200
   7497   7498   7517     1   109.5600471 388.275200
   7497   7508   7511     1   109.5600471 388.275200
   7497   7508   7512     1   109.5600471 388.275200
   7498   7500   7504     1   109.5600471 388.275200
   7498   7518   7519     1   107.2600461 396.643200
   7498   7497   7499     1   109.5600471 388.275200
   7499   7497   7508     1   109.5600471 388.275200
   7499   7497   7515     1   109.7800468 425.094400
   7500   7501   7503     1   109.5600471 388.275200
   7500   7507   7509     1   107.2600461 396.643200
   7500   7498   7517     1   109.5600471 388.275200
   7501   7502   7505     1   110.2200475 386.601600
   7501   7520   7510     1   109.2900470 396.643200
   7501   7500   7504     1   109.5600471 388.275200
   7502   7506   7516     1   107.2600461 396.643200
   7502   7501   7503     1   109.5600471 388.275200
   7503   7501   7520     1   109.8800469 414.216000
   7504   7500   7507     1   110.2600474 425.931200
   7505   7502   7506     1   109.4300470 427.604800
   7505   7502   7515     1   109.5800467 425.931200
   7508   7513   7514     1   107.2600461 396.643200
   7511   7508   7513     1   110.2600474 425.931200
   7511   7508   7512     1   108.4600466 328.025600
   7512   7508   7513     1   110.2600474 425.931200
   7517   7498   7518     1   110.2600474 425.931200
   7521   7523   7524     1   108.8800464 416.726400
   7521   7523   7526     1   108.8800464 416.726400
   7522   7521   7523     1   117.6800502 383.254400
   7523   7525   7527     1   109.5600471 388.275200
   7523   7525   7528     1   109.5600471 388.275200
   7524   7523   7525     1   109.5600471 388.275200
   7524   7523   7526     1   108.4600466 328.025600
   7525   7523   7526     1   109.5600471 388.275200
   7527   7525   7529     1   109.8800469 414.216000
   7527   7525   7528     1   108.4600466 328.025600
   7528   7525   7529     1   109.8800469 414.216000
   7529   7530   7539     1   109.8800469 414.216000
   7529   7530   7540     1   109.8800469 414.216000
   7529   7531   7532     1   109.8800469 414.216000
   7529   7531   7534     1   109.8800469 414.216000
   7530   7541   7542     1   109.8000471 387.438400
   7530   7541   7543     1   109.8000471 387.438400
   7531   7533   7535     1   109.8000471 387.438400
   7531   7533   7536     1   109.8000471 387.438400
   7532   7531   7533     1   109.5600471 388.275200
   7532   7531   7534     1   108.4600466 328.025600
   7533   7531   7534     1   109.5600471 388.275200
   7535   7533   7537     1   108.7700466 392.459200
   7535   7533   7536     1   107.5800459 329.699200
   7536   7533   7537     1   108.7700466 392.459200
   7537   7569   7559     1   119.3800509 410.868800
   7539   7530   7541     1   109.5600471 388.275200
   7539   7530   7540     1   108.4600466 328.025600
   7540   7530   7541     1   109.5600471 388.275200
   7542   7541   7544     1   108.7700466 392.459200
   7542   7541   7543     1   107.5800459 329.699200
   7543   7541   7544     1   108.7700466 392.459200
   7544   7593   7583     1   119.3800509 410.868800
   7546   7547   7566     1   109.5600471 388.275200
   7546   7557   7560     1   109.5600471 388.275200
   7546   7557   7561     1   109.5600471 388.275200
   7547   7546   7548     1   109.5600471 388.275200
   7547   7549   7553     1   109.5600471 388.275200
   7547   7567   7568     1   107.2600461 396.643200
   7548   7546   7557     1   109.5600471 388.275200
   7548   7546   7564     1   109.7800468 425.094400
   7549   7547   7566     1   109.5600471 388.275200
   7549   7550   7552     1   109.5600471 388.275200
   7549   7556   7558     1   107.2600461 396.643200
   7550   7549   7553     1   109.5600471 388.275200
   7550   7551   7554     1   110.2200475 386.601600
   7550   7569   7559     1   109.2900470 396.643200
   7551   7550   7552     1   109.5600471 388.275200
   7551   7555   7565     1   107.2600461 396.643200
   7552   7550   7569     1   109.8800469 414.216000
   7553   7549   7556     1   110.2600474 425.931200
   7554   7551   7555     1   109.4300470 427.604800
   7554   7551   7564     1   109.5800467 425.931200
   7557   7562   7563     1   107.2600461 396.643200
   7560   7557   7562     1   110.2600474 425.931200
   7560   7557   7561     1   108.4600466 328.025600
   7561   7557   7562     1   110.2600474 425.931200
   7566   7547   7567     1   110.2600474 425.931200
   7570   7571   7590     1   109.5600471 388.275200
   7570   7581   7584     1   109.5600471 388.275200
   7570   7581   7585     1   109.5600471 388.275200
   7571   7570   7572     1   109.5600471 388.275200
   7571   7573   7577     1   109.5600471 388.275200
   7571   7591   7592     1   107.2600461 396.643200
   7572   7570   7581     1   109.5600471 388.275200
   7572   7570   7588     1   109.7800468 425.094400
   7573   7571   7590     1   109.5600471 388.275200
   7573   7574   7576     1   109.5600471 388.275200
   7573   7580   7582     1   107.2600461 396.643200
   7574   7573   7577     1   109.5600471 388.275200
   7574   7575   7578     1   110.2200475 386.601600
   7574   7593   7583     1   109.2900470 396.643200
   7575   7574   7576     1   109.5600471 388.275200
   7575   7579   7589     1   107.2600461 396.643200
   7576   7574   7593     1   109.8800469 414.216000
   7577   7573   7580     1   110.2600474 425.931200
   7578   7575   7579     1   109.4300470 427.604800
   7578   7575   7588     1   109.5800467 425.931200
   7581   7586   7587     1   107.2600461 396.643200
   7584   7581   7586     1   110.2600474 425.931200
   7584   7581   7585     1   108.4600466 328.025600
   7585   7581   7586     1   110.2600474 425.931200
   7590   7571   7591     1   110.2600474 425.931200
   7594   7596   7597     1   108.8800464 416.726400
   7594   7596   7599     1   108.8800464 416.726400
   7595   7594   7596     1   117.6800502 383.254400
   7596   7598   7600     1   109.5600471 388.275200
   7596   7598   7601     1   109.5600471 388.275200
   7597   7596   7598     1   109.5600471 388.275200
   7597   7596   7599     1   108.4600466 328.025600
   7598   7596   7599     1   109.5600471 388.275200
   7600   7598   7602     1   109.8800469 414.216000
   7600   7598   7601     1   108.4600466 328.025600
   7601   7598   7602     1   109.8800469 414.216000
   7602   7603   7612     1   109.8800469 414.216000
   7602   7603   7613     1   109.8800469 414.216000
   7602   7604   7605     1   109.8800469 414.216000
   7602   7604   7607     1   109.8800469 414.216000
   7603   7614   7615     1   109.8000471 387.438400
   7603   7614   7616     1   109.8000471 387.438400
   7604   7606   7608     1   109.8000471 387.438400
   7604   7606   7609     1   109.8000471 387.438400
   7605   7604   7606     1   109.5600471 388.275200
   7605   7604   7607     1   108.4600466 328.025600
   7606   7604   7607     1   109.5600471 388.275200
   7608   7606   7610     1   108.7700466 392.459200
   7608   7606   7609     1   107.5800459 329.699200
   7609   7606   7610     1   108.7700466 392.459200
   7610   7642   7632     1   119.3800509 410.868800
   7612   7603   7614     1   109.5600471 388.275200
   7612   7603   7613     1   108.4600466 328.025600
   7613   7603   7614     1   109.5600471 388.275200
   7615   7614   7617     1   108.7700466 392.459200
   7615   7614   7616     1   107.5800459 329.699200
   7616   7614   7617     1   108.7700466 392.459200
   7617   7666   7656     1   119.3800509 410.868800
   7619   7620   7639     1   109.5600471 388.275200
   7619   7630   7633     1   109.5600471 388.275200
   7619   7630   7634     1   109.5600471 388.275200
   7620   7622   7626     1   109.5600471 388.275200
   7620   7640   7641     1   107.2600461 396.643200
   7620   7619   7621     1   109.5600471 388.275200
   7621   7619   7630     1   109.5600471 388.275200
   7621   7619   7637     1   109.7800468 425.094400
   7622   7623   7625     1   109.5600471 388.275200
   7622   7629   7631     1   107.2600461 396.643200
   7622   7620   7639     1   109.5600471 388.275200
   7623   7624   7627     1   110.2200475 386.601600
   7623   7642   7632     1   109.2900470 396.643200
   7623   7622   7626     1   109.5600471 388.275200
   7624   7628   7638     1   107.2600461 396.643200
   7624   7623   7625     1   109.5600471 388.275200
   7625   7623   7642     1   109.8800469 414.216000
   7626   7622   7629     1   110.2600474 425.931200
   7627   7624   7628     1   109.4300470 427.604800
   7627   7624   7637     1   109.5800467 425.931200
   7630   7635   7636     1   107.2600461 396.643200
   7633   7630   7635     1   110.2600474 425.931200
   7633   7630   7634     1   108.4600466 328.025600
   7634   7630   7635     1   110.2600474 425.931200
   7639   7620   7640     1   110.2600474 425.931200
   7643   7644   7663     1   109.5600471 388.275200
   7643   7654   7657     1   109.5600471 388.275200
   7643   7654   7658     1   109.5600471 388.275200
   7644   7646   7650     1   109.5600471 388.275200
   7644   7664   7665     1   107.2600461 396.643200
   7644   7643   7645     1   109.5600471 388.275200
   7645   7643   7654     1   109.5600471 388.275200
   7645   7643   7661     1   109.7800468 425.094400
   7646   7647   7649     1   109.5600471 388.275200
   7646   7653   7655     1   107.2600461 396.643200
   7646   7644   7663     1   109.5600471 388.275200
   7647   7648   7651     1   110.2200475 386.601600
   7647   7666   7656     1   109.2900470 396.643200
   7647   7646   7650     1   109.5600471 388.275200
   7648   7652   7662     1   107.2600461 396.643200
   7648   7647   7649     1   109.5600471 388.275200
   7649   7647   7666     1   109.8800469 414.216000
   7650   7646   7653     1   110.2600474 425.931200
   7651   7648   7652     1   109.4300470 427.604800
   7651   7648   7661     1   109.5800467 425.931200
   7654   7659   7660     1   107.2600461 396.643200
   7657   7654   7659     1   110.2600474 425.931200
   7657   7654   7658     1   108.4600466 328.025600
   7658   7654   7659     1   110.2600474 425.931200
   7663   7644   7664     1   110.2600474 425.931200
   7667   7669   7670     1   108.8800464 416.726400
   7667   7669   7672     1   108.8800464 416.726400
   7668   7667   7669     1   117.6800502 383.254400
   7669   7671   7673     1   109.5600471 388.275200
   7669   7671   7674     1   109.5600471 388.275200
   7670   7669   7671     1   109.5600471 388.275200
   7670   7669   7672     1   108.4600466 328.025600
   7671   7669   7672     1   109.5600471 388.275200
   7673   7671   7675     1   109.8800469 414.216000
   7673   7671   7674     1   108.4600466 328.025600
   7674   7671   7675     1   109.8800469 414.216000
   7675   7676   7685     1   109.8800469 414.216000
   7675   7676   7686     1   109.8800469 414.216000
   7675   7677   7678     1   109.8800469 414.216000
   7675   7677   7680     1   109.8800469 414.216000
   7676   7687   7688     1   109.8000471 387.438400
   7676   7687   7689     1   109.8000471 387.438400
   7677   7679   7681     1   109.8000471 387.438400
   7677   7679   7682     1   109.8000471 387.438400
   7678   7677   7679     1   109.5600471 388.275200
   7678   7677   7680     1   108.4600466 328.025600
   7679   7677   7680     1   109.5600471 388.275200
   7681   7679   7683     1   108.7700466 392.459200
   7681   7679   7682     1   107.5800459 329.699200
   7682   7679   7683     1   108.7700466 392.459200
   7683   7715   7705     1   119.3800509 410.868800
   7685   7676   7687     1   109.5600471 388.275200
   7685   7676   7686     1   108.4600466 328.025600
   7686   7676   7687     1   109.5600471 388.275200
   7688   7687   7690     1   108.7700466 392.459200
   7688   7687   7689     1   107.5800459 329.699200
   7689   7687   7690     1   108.7700466 392.459200
   7690   7739   7729     1   119.3800509 410.868800
   7692   7693   7712     1   109.5600471 388.275200
   7692   7703   7706     1   109.5600471 388.275200
   7692   7703   7707     1   109.5600471 388.275200
   7693   7692   7694     1   109.5600471 388.275200
   7693   7695   7699     1   109.5600471 388.275200
   7693   7713   7714     1   107.2600461 396.643200
   7694   7692   7703     1   109.5600471 388.275200
   7694   7692   7710     1   109.7800468 425.094400
   7695   7693   7712     1   109.5600471 388.275200
   7695   7696   7698     1   109.5600471 388.275200
   7695   7702   7704     1   107.2600461 396.643200
   7696   7695   7699     1   109.5600471 388.275200
   7696   7697   7700     1   110.2200475 386.601600
   7696   7715   7705     1   109.2900470 396.643200
   7697   7696   7698     1   109.5600471 388.275200
   7697   7701   7711     1   107.2600461 396.643200
   7698   7696   7715     1   109.8800469 414.216000
   7699   7695   7702     1   110.2600474 425.931200
   7700   7697   7701     1   109.4300470 427.604800
   7700   7697   7710     1   109.5800467 425.931200
   7703   7708   7709     1   107.2600461 396.643200
   7706   7703   7708     1   110.2600474 425.931200
   7706   7703   7707     1   108.4600466 328.025600
   7707   7703   7708     1   110.2600474 425.931200
   7712   7693   7713     1   110.2600474 425.931200
   7716   7717   7736     1   109.5600471 388.275200
   7716   7727   7730     1   109.5600471 388.275200
   7716   7727   7731     1   109.5600471 388.275200
   7717   7716   7718     1   109.5600471 388.275200
   7717   7719   7723     1   109.5600471 388.275200
   7717   7737   7738     1   107.2600461 396.643200
   7718   7716   7727     1   109.5600471 388.275200
   7718   7716   7734     1   109.7800468 425.094400
   7719   7717   7736     1   109.5600471 388.275200
   7719   7720   7722     1   109.5600471 388.275200
   7719   7726   7728     1   107.2600461 396.643200
   7720   7719   7723     1   109.5600471 388.275200
   7720   7721   7724     1   110.2200475 386.601600
   7720   7739   7729     1   109.2900470 396.643200
   7721   7720   7722     1   109.5600471 388.275200
   7721   7725   7735     1   107.2600461 396.643200
   7722   7720   7739     1   109.8800469 414.216000
   7723   7719   7726     1   110.2600474 425.931200
   7724   7721   7725     1   109.4300470 427.604800
   7724   7721   7734     1   109.5800467 425.931200
   7727   7732   7733     1   107.2600461 396.643200
   7730   7727   7732     1   110.2600474 425.931200
   7730   7727   7731     1   108.4600466 328.025600
   7731   7727   7732     1   110.2600474 425.931200
   7736   7717   7737     1   110.2600474 425.931200
   7740   7742   7743     1   108.8800464 416.726400
   7740   7742   7745     1   108.8800464 416.726400
   7741   7740   7742     1   117.6800502 383.254400
   7742   7744   7746     1   109.5600471 388.275200
   7742   7744   7747     1   109.5600471 388.275200
   7743   7742   7744     1   109.5600471 388.275200
   7743   7742   7745     1   108.4600466 328.025600
   7744   7742   7745     1   109.5600471 388.275200
   7746   7744   7748     1   109.8800469 414.216000
   7746   7744   7747     1   108.4600466 328.025600
   7747   7744   7748     1   109.8800469 414.216000
   7748   7749   7758     1   109.8800469 414.216000
   7748   7749   7759     1   109.8800469 414.216000
   7748   7750   7751     1   109.8800469 414.216000
   7748   7750   7753     1   109.8800469 414.216000
   7749   7760   7761     1   109.8000471 387.438400
   7749   7760   7762     1   109.8000471 387.438400
   7750   7752   7754     1   109.8000471 387.438400
   7750   7752   7755     1   109.8000471 387.438400
   7751   7750   7752     1   109.5600471 388.275200
   7751   7750   7753     1   108.4600466 328.025600
   7752   7750   7753     1   109.5600471 388.275200
   7754   7752   7756     1   108.7700466 392.459200
   7754   7752   7755     1   107.5800459 329.699200
   7755   7752   7756     1   108.7700466 392.459200
   7756   7788   7778     1   119.3800509 410.868800
   7758   7749   7760     1   109.5600471 388.275200
   7758   7749   7759     1   108.4600466 328.025600
   7759   7749   7760     1   109.5600471 388.275200
   7761   7760   7763     1   108.7700466 392.459200
   7761   7760   7762     1   107.5800459 329.699200
   7762   7760   7763     1   108.7700466 392.459200
   7763   7812   7802     1   119.3800509 410.868800
   7765   7766   7785     1   109.5600471 388.275200
   7765   7776   7779     1   109.5600471 388.275200
   7765   7776   7780     1   109.5600471 388.275200
   7766   7768   7772     1   109.5600471 388.275200
   7766   7786   7787     1   107.2600461 396.643200
   7766   7765   7767     1   109.5600471 388.275200
   7767   7765   7776     1   109.5600471 388.275200
   7767   7765   7783     1   109.7800468 425.094400
   7768   7769   7771     1   109.5600471 388.275200
   7768   7775   7777     1   107.2600461 396.643200
   7768   7766   7785     1   109.5600471 388.275200
   7769   7770   7773     1   110.2200475 386.601600
   7769   7788   7778     1   109.2900470 396.643200
   7769   7768   7772     1   109.5600471 388.275200
   7770   7774   7784     1   107.2600461 396.643200
   7770   7769   7771     1   109.5600471 388.275200
   7771   7769   7788     1   109.8800469 414.216000
   7772   7768   7775     1   110.2600474 425.931200
   7773   7770   7774     1   109.4300470 427.604800
   7773   7770   7783     1   109.5800467 425.931200
   7776   7781   7782     1   107.2600461 396.643200
   7779   7776   7781     1   110.2600474 425.931200
   7779   7776   7780     1   108.4600466 328.025600
   7780   7776   7781     1   110.2600474 425.931200
   7785   7766   7786     1   110.2600474 425.931200
   7789   7790   7809     1   109.5600471 388.275200
   7789   7800   7803     1   109.5600471 388.275200
   7789   7800   7804     1   109.5600471 388.275200
   7790   7792   7796     1   109.5600471 388.275200
   7790   7810   7811     1   107.2600461 396.643200
   7790   7789   7791     1   109.5600471 388.275200
   7791   7789   7800     1   109.5600471 388.275200
   7791   7789   7807     1   109.7800468 425.094400
   7792   7793   7795     1   109.5600471 388.275200
   7792   7799   7801     1   107.2600461 396.643200
   7792   7790   7809     1   109.5600471 388.275200
   7793   7794   7797     1   110.2200475 386.601600
   7793   7812   7802     1   109.2900470 396.643200
   7793   7792   7796     1   109.5600471 388.275200
   7794   7798   7808     1   107.2600461 396.643200
   7794   7793   7795     1   109.5600471 388.275200
   7795   7793   7812     1   109.8800469 414.216000
   7796   7792   7799     1   110.2600474 425.931200
   7797   7794   7798     1   109.4300470 427.604800
   7797   7794   7807     1   109.5800467 425.931200
   7800   7805   7806     1   107.2600461 396.643200
   7803   7800   7805     1   110.2600474 425.931200
   7803   7800   7804     1   108.4600466 328.025600
   7804   7800   7805     1   110.2600474 425.931200
   7809   7790   7810     1   110.2600474 425.931200
   7813   7815   7816     1   108.8800464 416.726400
   7813   7815   7818     1   108.8800464 416.726400
   7814   7813   7815     1   117.6800502 383.254400
   7815   7817   7819     1   109.5600471 388.275200
   7815   7817   7820     1   109.5600471 388.275200
   7816   7815   7817     1   109.5600471 388.275200
   7816   7815   7818     1   108.4600466 328.025600
   7817   7815   7818     1   109.5600471 388.275200
   7819   7817   7821     1   109.8800469 414.216000
   7819   7817   7820     1   108.4600466 328.025600
   7820   7817   7821     1   109.8800469 414.216000
   7821   7822   7831     1   109.8800469 414.216000
   7821   7822   7832     1   109.8800469 414.216000
   7821   7823   7824     1   109.8800469 414.216000
   7821   7823   7826     1   109.8800469 414.216000
   7822   7833   7834     1   109.8000471 387.438400
   7822   7833   7835     1   109.8000471 387.438400
   7823   7825   7827     1   109.8000471 387.438400
   7823   7825   7828     1   109.8000471 387.438400
   7824   7823   7825     1   109.5600471 388.275200
   7824   7823   7826     1   108.4600466 328.025600
   7825   7823   7826     1   109.5600471 388.275200
   7827   7825   7829     1   108.7700466 392.459200
   7827   7825   7828     1   107.5800459 329.699200
   7828   7825   7829     1   108.7700466 392.459200
   7829   7861   7851     1   119.3800509 410.868800
   7831   7822   7833     1   109.5600471 388.275200
   7831   7822   7832     1   108.4600466 328.025600
   7832   7822   7833     1   109.5600471 388.275200
   7834   7833   7836     1   108.7700466 392.459200
   7834   7833   7835     1   107.5800459 329.699200
   7835   7833   7836     1   108.7700466 392.459200
   7836   7885   7875     1   119.3800509 410.868800
   7838   7839   7858     1   109.5600471 388.275200
   7838   7849   7852     1   109.5600471 388.275200
   7838   7849   7853     1   109.5600471 388.275200
   7839   7838   7840     1   109.5600471 388.275200
   7839   7841   7845     1   109.5600471 388.275200
   7839   7859   7860     1   107.2600461 396.643200
   7840   7838   7849     1   109.5600471 388.275200
   7840   7838   7856     1   109.7800468 425.094400
   7841   7839   7858     1   109.5600471 388.275200
   7841   7842   7844     1   109.5600471 388.275200
   7841   7848   7850     1   107.2600461 396.643200
   7842   7841   7845     1   109.5600471 388.275200
   7842   7843   7846     1   110.2200475 386.601600
   7842   7861   7851     1   109.2900470 396.643200
   7843   7842   7844     1   109.5600471 388.275200
   7843   7847   7857     1   107.2600461 396.643200
   7844   7842   7861     1   109.8800469 414.216000
   7845   7841   7848     1   110.2600474 425.931200
   7846   7843   7847     1   109.4300470 427.604800
   7846   7843   7856     1   109.5800467 425.931200
   7849   7854   7855     1   107.2600461 396.643200
   7852   7849   7854     1   110.2600474 425.931200
   7852   7849   7853     1   108.4600466 328.025600
   7853   7849   7854     1   110.2600474 425.931200
   7858   7839   7859     1   110.2600474 425.931200
   7862   7863   7882     1   109.5600471 388.275200
   7862   7873   7876     1   109.5600471 388.275200
   7862   7873   7877     1   109.5600471 388.275200
   7863   7862   7864     1   109.5600471 388.275200
   7863   7865   7869     1   109.5600471 388.275200
   7863   7883   7884     1   107.2600461 396.643200
   7864   7862   7873     1   109.5600471 388.275200
   7864   7862   7880     1   109.7800468 425.094400
   7865   7863   7882     1   109.5600471 388.275200
   7865   7866   7868     1   109.5600471 388.275200
   7865   7872   7874     1   107.2600461 396.643200
   7866   7865   7869     1   109.5600471 388.275200
   7866   7867   7870     1   110.2200475 386.601600
   7866   7885   7875     1   109.2900470 396.643200
   7867   7866   7868     1   109.5600471 388.275200
   7867   7871   7881     1   107.2600461 396.643200
   7868   7866   7885     1   109.8800469 414.216000
   7869   7865   7872     1   110.2600474 425.931200
   7870   7867   7871     1   109.4300470 427.604800
   7870   7867   7880     1   109.5800467 425.931200
   7873   7878   7879     1   107.2600461 396.643200
   7876   7873   7878     1   110.2600474 425.931200
   7876   7873   7877     1   108.4600466 328.025600
   7877   7873   7878     1   110.2600474 425.931200
   7882   7863   7883     1   110.2600474 425.931200
   7886   7888   7889     1   108.8800464 416.726400
   7886   7888   7891     1   108.8800464 416.726400
   7887   7886   7888     1   117.6800502 383.254400
   7888   7890   7892     1   109.5600471 388.275200
   7888   7890   7893     1   109.5600471 388.275200
   7889   7888   7890     1   109.5600471 388.275200
   7889   7888   7891     1   108.4600466 328.025600
   7890   7888   7891     1   109.5600471 388.275200
   7892   7890   7894     1   109.8800469 414.216000
   7892   7890   7893     1   108.4600466 328.025600
   7893   7890   7894     1   109.8800469 414.216000
   7894   7895   7904     1   109.8800469 414.216000
   7894   7895   7905     1   109.8800469 414.216000
   7894   7896   7897     1   109.8800469 414.216000
   7894   7896   7899     1   109.8800469 414.216000
   7895   7906   7907     1   109.8000471 387.438400
   7895   7906   7908     1   109.8000471 387.438400
   7896   7898   7900     1   109.8000471 387.438400
   7896   7898   7901     1   109.8000471 387.438400
   7897   7896   7898     1   109.5600471 388.275200
   7897   7896   7899     1   108.4600466 328.025600
   7898   7896   7899     1   109.5600471 388.275200
   7900   7898   7902     1   108.7700466 392.459200
   7900   7898   7901     1   107.5800459 329.699200
   7901   7898   7902     1   108.7700466 392.459200
   7902   7934   7924     1   119.3800509 410.868800
   7904   7895   7906     1   109.5600471 388.275200
   7904   7895   7905     1   108.4600466 328.025600
   7905   7895   7906     1   109.5600471 388.275200
   7907   7906   7909     1   108.7700466 392.459200
   7907   7906   7908     1   107.5800459 329.699200
   7908   7906   7909     1   108.7700466 392.459200
   7909   7958   7948     1   119.3800509 410.868800
   7911   7912   7931     1   109.5600471 388.275200
   7911   7922   7925     1   109.5600471 388.275200
   7911   7922   7926     1   109.5600471 388.275200
   7912   7914   7918     1   109.5600471 388.275200
   7912   7932   7933     1   107.2600461 396.643200
   7912   7911   7913     1   109.5600471 388.275200
   7913   7911   7922     1   109.5600471 388.275200
   7913   7911   7929     1   109.7800468 425.094400
   7914   7915   7917     1   109.5600471 388.275200
   7914   7921   7923     1   107.2600461 396.643200
   7914   7912   7931     1   109.5600471 388.275200
   7915   7916   7919     1   110.2200475 386.601600
   7915   7934   7924     1   109.2900470 396.643200
   7915   7914   7918     1   109.5600471 388.275200
   7916   7920   7930     1   107.2600461 396.643200
   7916   7915   7917     1   109.5600471 388.275200
   7917   7915   7934     1   109.8800469 414.216000
   7918   7914   7921     1   110.2600474 425.931200
   7919   7916   7920     1   109.4300470 427.604800
   7919   7916   7929     1   109.5800467 425.931200
   7922   7927   7928     1   107.2600461 396.643200
   7925   7922   7927     1   110.2600474 425.931200
   7925   7922   7926     1   108.4600466 328.025600
   7926   7922   7927     1   110.2600474 425.931200
   7931   7912   7932     1   110.2600474 425.931200
   7935   7936   7955     1   109.5600471 388.275200
   7935   7946   7949     1   109.5600471 388.275200
   7935   7946   7950     1   109.5600471 388.275200
   7936   7938   7942     1   109.5600471 388.275200
   7936   7956   7957     1   107.2600461 396.643200
   7936   7935   7937     1   109.5600471 388.275200
   7937   7935   7946     1   109.5600471 388.275200
   7937   7935   7953     1   109.7800468 425.094400
   7938   7939   7941     1   109.5600471 388.275200
   7938   7945   7947     1   107.2600461 396.643200
   7938   7936   7955     1   109.5600471 388.275200
   7939   7940   7943     1   110.2200475 386.601600
   7939   7958   7948     1   109.2900470 396.643200
   7939   7938   7942     1   109.5600471 388.275200
   7940   7944   7954     1   107.2600461 396.643200
   7940   7939   7941     1   109.5600471 388.275200
   7941   7939   7958     1   109.8800469 414.216000
   7942   7938   7945     1   110.2600474 425.931200
   7943   7940   7944     1   109.4300470 427.604800
   7943   7940   7953     1   109.5800467 425.931200
   7946   7951   7952     1   107.2600461 396.643200
   7949   7946   7951     1   110.2600474 425.931200
   7949   7946   7950     1   108.4600466 328.025600
   7950   7946   7951     1   110.2600474 425.931200
   7955   7936   7956     1   110.2600474 425.931200
   7959   7961   7962     1   108.8800464 416.726400
   7959   7961   7964     1   108.8800464 416.726400
   7960   7959   7961     1   117.6800502 383.254400
   7961   7963   7965     1   109.5600471 388.275200
   7961   7963   7966     1   109.5600471 388.275200
   7962   7961   7963     1   109.5600471 388.275200
   7962   7961   7964     1   108.4600466 328.025600
   7963   7961   7964     1   109.5600471 388.275200
   7965   7963   7967     1   109.8800469 414.216000
   7965   7963   7966     1   108.4600466 328.025600
   7966   7963   7967     1   109.8800469 414.216000
   7967   7968   7977     1   109.8800469 414.216000
   7967   7968   7978     1   109.8800469 414.216000
   7967   7969   7970     1   109.8800469 414.216000
   7967   7969   7972     1   109.8800469 414.216000
   7968   7979   7980     1   109.8000471 387.438400
   7968   7979   7981     1   109.8000471 387.438400
   7969   7971   7973     1   109.8000471 387.438400
   7969   7971   7974     1   109.8000471 387.438400
   7970   7969   7971     1   109.5600471 388.275200
   7970   7969   7972     1   108.4600466 328.025600
   7971   7969   7972     1   109.5600471 388.275200
   7973   7971   7975     1   108.7700466 392.459200
   7973   7971   7974     1   107.5800459 329.699200
   7974   7971   7975     1   108.7700466 392.459200
   7975   8007   7997     1   119.3800509 410.868800
   7977   7968   7979     1   109.5600471 388.275200
   7977   7968   7978     1   108.4600466 328.025600
   7978   7968   7979     1   109.5600471 388.275200
   7980   7979   7982     1   108.7700466 392.459200
   7980   7979   7981     1   107.5800459 329.699200
   7981   7979   7982     1   108.7700466 392.459200
   7982   8031   8021     1   119.3800509 410.868800
   7984   7985   8004     1   109.5600471 388.275200
   7984   7995   7998     1   109.5600471 388.275200
   7984   7995   7999     1   109.5600471 388.275200
   7985   7984   7986     1   109.5600471 388.275200
   7985   7987   7991     1   109.5600471 388.275200
   7985   8005   8006     1   107.2600461 396.643200
   7986   7984   7995     1   109.5600471 388.275200
   7986   7984   8002     1   109.7800468 425.094400
   7987   7985   8004     1   109.5600471 388.275200
   7987   7988   7990     1   109.5600471 388.275200
   7987   7994   7996     1   107.2600461 396.643200
   7988   7987   7991     1   109.5600471 388.275200
   7988   7989   7992     1   110.2200475 386.601600
   7988   8007   7997     1   109.2900470 396.643200
   7989   7988   7990     1   109.5600471 388.275200
   7989   7993   8003     1   107.2600461 396.643200
   7990   7988   8007     1   109.8800469 414.216000
   7991   7987   7994     1   110.2600474 425.931200
   7992   7989   7993     1   109.4300470 427.604800
   7992   7989   8002     1   109.5800467 425.931200
   7995   8000   8001     1   107.2600461 396.643200
   7998   7995   8000     1   110.2600474 425.931200
   7998   7995   7999     1   108.4600466 328.025600
   7999   7995   8000     1   110.2600474 425.931200
   8004   7985   8005     1   110.2600474 425.931200
   8008   8009   8028     1   109.5600471 388.275200
   8008   8019   8022     1   109.5600471 388.275200
   8008   8019   8023     1   109.5600471 388.275200
   8009   8008   8010     1   109.5600471 388.275200
   8009   8011   8015     1   109.5600471 388.275200
   8009   8029   8030     1   107.2600461 396.643200
   8010   8008   8019     1   109.5600471 388.275200
   8010   8008   8026     1   109.7800468 425.094400
   8011   8009   8028     1   109.5600471 388.275200
   8011   8012   8014     1   109.5600471 388.275200
   8011   8018   8020     1   107.2600461 396.643200
   8012   8011   8015     1   109.5600471 388.275200
   8012   8013   8016     1   110.2200475 386.601600
   8012   8031   8021     1   109.2900470 396.643200
   8013   8012   8014     1   109.5600471 388.275200
   8013   8017   8027     1   107.2600461 396.643200
   8014   8012   8031     1   109.8800469 414.216000
   8015   8011   8018     1   110.2600474 425.931200
   8016   8013   8017     1   109.4300470 427.604800
   8016   8013   8026     1   109.5800467 425.931200
   8019   8024   8025     1   107.2600461 396.643200
   8022   8019   8024     1   110.2600474 425.931200
   8022   8019   8023     1   108.4600466 328.025600
   8023   8019   8024     1   110.2600474 425.931200
   8028   8009   8029     1   110.2600474 425.931200
   8032   8034   8035     1   108.8800464 416.726400
   8032   8034   8037     1   108.8800464 416.726400
   8033   8032   8034     1   117.6800502 383.254400
   8034   8036   8038     1   109.5600471 388.275200
   8034   8036   8039     1   109.5600471 388.275200
   8035   8034   8036     1   109.5600471 388.275200
   8035   8034   8037     1   108.4600466 328.025600
   8036   8034   8037     1   109.5600471 388.275200
   8038   8036   8040     1   109.8800469 414.216000
   8038   8036   8039     1   108.4600466 328.025600
   8039   8036   8040     1   109.8800469 414.216000
   8040   8041   8050     1   109.8800469 414.216000
   8040   8041   8051     1   109.8800469 414.216000
   8040   8042   8043     1   109.8800469 414.216000
   8040   8042   8045     1   109.8800469 414.216000
   8041   8052   8053     1   109.8000471 387.438400
   8041   8052   8054     1   109.8000471 387.438400
   8042   8044   8046     1   109.8000471 387.438400
   8042   8044   8047     1   109.8000471 387.438400
   8043   8042   8044     1   109.5600471 388.275200
   8043   8042   8045     1   108.4600466 328.025600
   8044   8042   8045     1   109.5600471 388.275200
   8046   8044   8048     1   108.7700466 392.459200
   8046   8044   8047     1   107.5800459 329.699200
   8047   8044   8048     1   108.7700466 392.459200
   8048   8080   8070     1   119.3800509 410.868800
   8050   8041   8052     1   109.5600471 388.275200
   8050   8041   8051     1   108.4600466 328.025600
   8051   8041   8052     1   109.5600471 388.275200
   8053   8052   8055     1   108.7700466 392.459200
   8053   8052   8054     1   107.5800459 329.699200
   8054   8052   8055     1   108.7700466 392.459200
   8055   8104   8094     1   119.3800509 410.868800
   8057   8058   8077     1   109.5600471 388.275200
   8057   8068   8071     1   109.5600471 388.275200
   8057   8068   8072     1   109.5600471 388.275200
   8058   8060   8064     1   109.5600471 388.275200
   8058   8078   8079     1   107.2600461 396.643200
   8058   8057   8059     1   109.5600471 388.275200
   8059   8057   8068     1   109.5600471 388.275200
   8059   8057   8075     1   109.7800468 425.094400
   8060   8061   8063     1   109.5600471 388.275200
   8060   8067   8069     1   107.2600461 396.643200
   8060   8058   8077     1   109.5600471 388.275200
   8061   8062   8065     1   110.2200475 386.601600
   8061   8080   8070     1   109.2900470 396.643200
   8061   8060   8064     1   109.5600471 388.275200
   8062   8066   8076     1   107.2600461 396.643200
   8062   8061   8063     1   109.5600471 388.275200
   8063   8061   8080     1   109.8800469 414.216000
   8064   8060   8067     1   110.2600474 425.931200
   8065   8062   8066     1   109.4300470 427.604800
   8065   8062   8075     1   109.5800467 425.931200
   8068   8073   8074     1   107.2600461 396.643200
   8071   8068   8073     1   110.2600474 425.931200
   8071   8068   8072     1   108.4600466 328.025600
   8072   8068   8073     1   110.2600474 425.931200
   8077   8058   8078     1   110.2600474 425.931200
   8081   8082   8101     1   109.5600471 388.275200
   8081   8092   8095     1   109.5600471 388.275200
   8081   8092   8096     1   109.5600471 388.275200
   8082   8084   8088     1   109.5600471 388.275200
   8082   8102   8103     1   107.2600461 396.643200
   8082   8081   8083     1   109.5600471 388.275200
   8083   8081   8092     1   109.5600471 388.275200
   8083   8081   8099     1   109.7800468 425.094400
   8084   8085   8087     1   109.5600471 388.275200
   8084   8091   8093     1   107.2600461 396.643200
   8084   8082   8101     1   109.5600471 388.275200
   8085   8086   8089     1   110.2200475 386.601600
   8085   8104   8094     1   109.2900470 396.643200
   8085   8084   8088     1   109.5600471 388.275200
   8086   8090   8100     1   107.2600461 396.643200
   8086   8085   8087     1   109.5600471 388.275200
   8087   8085   8104     1   109.8800469 414.216000
   8088   8084   8091     1   110.2600474 425.931200
   8089   8086   8090     1   109.4300470 427.604800
   8089   8086   8099     1   109.5800467 425.931200
   8092   8097   8098     1   107.2600461 396.643200
   8095   8092   8097     1   110.2600474 425.931200
   8095   8092   8096     1   108.4600466 328.025600
   8096   8092   8097     1   110.2600474 425.931200
   8101   8082   8102     1   110.2600474 425.931200
   8105   8107   8108     1   108.8800464 416.726400
   8105   8107   8110     1   108.8800464 416.726400
   8106   8105   8107     1   117.6800502 383.254400
   8107   8109   8111     1   109.5600471 388.275200
   8107   8109   8112     1   109.5600471 388.275200
   8108   8107   8109     1   109.5600471 388.275200
   8108   8107   8110     1   108.4600466 328.025600
   8109   8107   8110     1   109.5600471 388.275200
   8111   8109   8113     1   109.8800469 414.216000
   8111   8109   8112     1   108.4600466 328.025600
   8112   8109   8113     1   109.8800469 414.216000
   8113   8114   8123     1   109.8800469 414.216000
   8113   8114   8124     1   109.8800469 414.216000
   8113   8115   8116     1   109.8800469 414.216000
   8113   8115   8118     1   109.8800469 414.216000
   8114   8125   8126     1   109.8000471 387.438400
   8114   8125   8127     1   109.8000471 387.438400
   8115   8117   8119     1   109.8000471 387.438400
   8115   8117   8120     1   109.8000471 387.438400
   8116   8115   8117     1   109.5600471 388.275200
   8116   8115   8118     1   108.4600466 328.025600
   8117   8115   8118     1   109.5600471 388.275200
   8119   8117   8121     1   108.7700466 392.459200
   8119   8117   8120     1   107.5800459 329.699200
   8120   8117   8121     1   108.7700466 392.459200
   8121   8153   8143     1   119.3800509 410.868800
   8123   8114   8125     1   109.5600471 388.275200
   8123   8114   8124     1   108.4600466 328.025600
   8124   8114   8125     1   109.5600471 388.275200
   8126   8125   8128     1   108.7700466 392.459200
   8126   8125   8127     1   107.5800459 329.699200
   8127   8125   8128     1   108.7700466 392.459200
   8128   8177   8167     1   119.3800509 410.868800
   8130   8131   8150     1   109.5600471 388.275200
   8130   8141   8144     1   109.5600471 388.275200
   8130   8141   8145     1   109.5600471 388.275200
   8131   8130   8132     1   109.5600471 388.275200
   8131   8133   8137     1   109.5600471 388.275200
   8131   8151   8152     1   107.2600461 396.643200
   8132   8130   8141     1   109.5600471 388.275200
   8132   8130   8148     1   109.7800468 425.094400
   8133   8131   8150     1   109.5600471 388.275200
   8133   8134   8136     1   109.5600471 388.275200
   8133   8140   8142     1   107.2600461 396.643200
   8134   8133   8137     1   109.5600471 388.275200
   8134   8135   8138     1   110.2200475 386.601600
   8134   8153   8143     1   109.2900470 396.643200
   8135   8134   8136     1   109.5600471 388.275200
   8135   8139   8149     1   107.2600461 396.643200
   8136   8134   8153     1   109.8800469 414.216000
   8137   8133   8140     1   110.2600474 425.931200
   8138   8135   8139     1   109.4300470 427.604800
   8138   8135   8148     1   109.5800467 425.931200
   8141   8146   8147     1   107.2600461 396.643200
   8144   8141   8146     1   110.2600474 425.931200
   8144   8141   8145     1   108.4600466 328.025600
   8145   8141   8146     1   110.2600474 425.931200
   8150   8131   8151     1   110.2600474 425.931200
   8154   8155   8174     1   109.5600471 388.275200
   8154   8165   8168     1   109.5600471 388.275200
   8154   8165   8169     1   109.5600471 388.275200
   8155   8154   8156     1   109.5600471 388.275200
   8155   8157   8161     1   109.5600471 388.275200
   8155   8175   8176     1   107.2600461 396.643200
   8156   8154   8165     1   109.5600471 388.275200
   8156   8154   8172     1   109.7800468 425.094400
   8157   8155   8174     1   109.5600471 388.275200
   8157   8158   8160     1   109.5600471 388.275200
   8157   8164   8166     1   107.2600461 396.643200
   8158   8157   8161     1   109.5600471 388.275200
   8158   8159   8162     1   110.2200475 386.601600
   8158   8177   8167     1   109.2900470 396.643200
   8159   8158   8160     1   109.5600471 388.275200
   8159   8163   8173     1   107.2600461 396.643200
   8160   8158   8177     1   109.8800469 414.216000
   8161   8157   8164     1   110.2600474 425.931200
   8162   8159   8163     1   109.4300470 427.604800
   8162   8159   8172     1   109.5800467 425.931200
   8165   8170   8171     1   107.2600461 396.643200
   8168   8165   8170     1   110.2600474 425.931200
   8168   8165   8169     1   108.4600466 328.025600
   8169   8165   8170     1   110.2600474 425.931200
   8174   8155   8175     1   110.2600474 425.931200
   8178   8180   8181     1   108.8800464 416.726400
   8178   8180   8183     1   108.8800464 416.726400
   8179   8178   8180     1   117.6800502 383.254400
   8180   8182   8184     1   109.5600471 388.275200
   8180   8182   8185     1   109.5600471 388.275200
   8181   8180   8182     1   109.5600471 388.275200
   8181   8180   8183     1   108.4600466 328.025600
   8182   8180   8183     1   109.5600471 388.275200
   8184   8182   8186     1   109.8800469 414.216000
   8184   8182   8185     1   108.4600466 328.025600
   8185   8182   8186     1   109.8800469 414.216000
   8186   8187   8196     1   109.8800469 414.216000
   8186   8187   8197     1   109.8800469 414.216000
   8186   8188   8189     1   109.8800469 414.216000
   8186   8188   8191     1   109.8800469 414.216000
   8187   8198   8199     1   109.8000471 387.438400
   8187   8198   8200     1   109.8000471 387.438400
   8188   8190   8192     1   109.8000471 387.438400
   8188   8190   8193     1   109.8000471 387.438400
   8189   8188   8190     1   109.5600471 388.275200
   8189   8188   8191     1   108.4600466 328.025600
   8190   8188   8191     1   109.5600471 388.275200
   8192   8190   8194     1   108.7700466 392.459200
   8192   8190   8193     1   107.5800459 329.699200
   8193   8190   8194     1   108.7700466 392.459200
   8194   8226   8216     1   119.3800509 410.868800
   8196   8187   8198     1   109.5600471 388.275200
   8196   8187   8197     1   108.4600466 328.025600
   8197   8187   8198     1   109.5600471 388.275200
   8199   8198   8201     1   108.7700466 392.459200
   8199   8198   8200     1   107.5800459 329.699200
   8200   8198   8201     1   108.7700466 392.459200
   8201   8250   8240     1   119.3800509 410.868800
   8203   8204   8223     1   109.5600471 388.275200
   8203   8214   8217     1   109.5600471 388.275200
   8203   8214   8218     1   109.5600471 388.275200
   8204   8206   8210     1   109.5600471 388.275200
   8204   8224   8225     1   107.2600461 396.643200
   8204   8203   8205     1   109.5600471 388.275200
   8205   8203   8214     1   109.5600471 388.275200
   8205   8203   8221     1   109.7800468 425.094400
   8206   8207   8209     1   109.5600471 388.275200
   8206   8213   8215     1   107.2600461 396.643200
   8206   8204   8223     1   109.5600471 388.275200
   8207   8208   8211     1   110.2200475 386.601600
   8207   8226   8216     1   109.2900470 396.643200
   8207   8206   8210     1   109.5600471 388.275200
   8208   8212   8222     1   107.2600461 396.643200
   8208   8207   8209     1   109.5600471 388.275200
   8209   8207   8226     1   109.8800469 414.216000
   8210   8206   8213     1   110.2600474 425.931200
   8211   8208   8212     1   109.4300470 427.604800
   8211   8208   8221     1   109.5800467 425.931200
   8214   8219   8220     1   107.2600461 396.643200
   8217   8214   8219     1   110.2600474 425.931200
   8217   8214   8218     1   108.4600466 328.025600
   8218   8214   8219     1   110.2600474 425.931200
   8223   8204   8224     1   110.2600474 425.931200
   8227   8228   8247     1   109.5600471 388.275200
   8227   8238   8241     1   109.5600471 388.275200
   8227   8238   8242     1   109.5600471 388.275200
   8228   8230   8234     1   109.5600471 388.275200
   8228   8248   8249     1   107.2600461 396.643200
   8228   8227   8229     1   109.5600471 388.275200
   8229   8227   8238     1   109.5600471 388.275200
   8229   8227   8245     1   109.7800468 425.094400
   8230   8231   8233     1   109.5600471 388.275200
   8230   8237   8239     1   107.2600461 396.643200
   8230   8228   8247     1   109.5600471 388.275200
   8231   8232   8235     1   110.2200475 386.601600
   8231   8250   8240     1   109.2900470 396.643200
   8231   8230   8234     1   109.5600471 388.275200
   8232   8236   8246     1   107.2600461 396.643200
   8232   8231   8233     1   109.5600471 388.275200
   8233   8231   8250     1   109.8800469 414.216000
   8234   8230   8237     1   110.2600474 425.931200
   8235   8232   8236     1   109.4300470 427.604800
   8235   8232   8245     1   109.5800467 425.931200
   8238   8243   8244     1   107.2600461 396.643200
   8241   8238   8243     1   110.2600474 425.931200
   8241   8238   8242     1   108.4600466 328.025600
   8242   8238   8243     1   110.2600474 425.931200
   8247   8228   8248     1   110.2600474 425.931200
   8251   8253   8254     1   108.8800464 416.726400
   8251   8253   8256     1   108.8800464 416.726400
   8252   8251   8253     1   117.6800502 383.254400
   8253   8255   8257     1   109.5600471 388.275200
   8253   8255   8258     1   109.5600471 388.275200
   8254   8253   8255     1   109.5600471 388.275200
   8254   8253   8256     1   108.4600466 328.025600
   8255   8253   8256     1   109.5600471 388.275200
   8257   8255   8259     1   109.8800469 414.216000
   8257   8255   8258     1   108.4600466 328.025600
   8258   8255   8259     1   109.8800469 414.216000
   8259   8260   8269     1   109.8800469 414.216000
   8259   8260   8270     1   109.8800469 414.216000
   8259   8261   8262     1   109.8800469 414.216000
   8259   8261   8264     1   109.8800469 414.216000
   8260   8271   8272     1   109.8000471 387.438400
   8260   8271   8273     1   109.8000471 387.438400
   8261   8263   8265     1   109.8000471 387.438400
   8261   8263   8266     1   109.8000471 387.438400
   8262   8261   8263     1   109.5600471 388.275200
   8262   8261   8264     1   108.4600466 328.025600
   8263   8261   8264     1   109.5600471 388.275200
   8265   8263   8267     1   108.7700466 392.459200
   8265   8263   8266     1   107.5800459 329.699200
   8266   8263   8267     1   108.7700466 392.459200
   8267   8299   8289     1   119.3800509 410.868800
   8269   8260   8271     1   109.5600471 388.275200
   8269   8260   8270     1   108.4600466 328.025600
   8270   8260   8271     1   109.5600471 388.275200
   8272   8271   8274     1   108.7700466 392.459200
   8272   8271   8273     1   107.5800459 329.699200
   8273   8271   8274     1   108.7700466 392.459200
   8274   8323   8313     1   119.3800509 410.868800
   8276   8277   8296     1   109.5600471 388.275200
   8276   8287   8290     1   109.5600471 388.275200
   8276   8287   8291     1   109.5600471 388.275200
   8277   8276   8278     1   109.5600471 388.275200
   8277   8279   8283     1   109.5600471 388.275200
   8277   8297   8298     1   107.2600461 396.643200
   8278   8276   8287     1   109.5600471 388.275200
   8278   8276   8294     1   109.7800468 425.094400
   8279   8277   8296     1   109.5600471 388.275200
   8279   8280   8282     1   109.5600471 388.275200
   8279   8286   8288     1   107.2600461 396.643200
   8280   8279   8283     1   109.5600471 388.275200
   8280   8281   8284     1   110.2200475 386.601600
   8280   8299   8289     1   109.2900470 396.643200
   8281   8280   8282     1   109.5600471 388.275200
   8281   8285   8295     1   107.2600461 396.643200
   8282   8280   8299     1   109.8800469 414.216000
   8283   8279   8286     1   110.2600474 425.931200
   8284   8281   8285     1   109.4300470 427.604800
   8284   8281   8294     1   109.5800467 425.931200
   8287   8292   8293     1   107.2600461 396.643200
   8290   8287   8292     1   110.2600474 425.931200
   8290   8287   8291     1   108.4600466 328.025600
   8291   8287   8292     1   110.2600474 425.931200
   8296   8277   8297     1   110.2600474 425.931200
   8300   8301   8320     1   109.5600471 388.275200
   8300   8311   8314     1   109.5600471 388.275200
   8300   8311   8315     1   109.5600471 388.275200
   8301   8300   8302     1   109.5600471 388.275200
   8301   8303   8307     1   109.5600471 388.275200
   8301   8321   8322     1   107.2600461 396.643200
   8302   8300   8311     1   109.5600471 388.275200
   8302   8300   8318     1   109.7800468 425.094400
   8303   8301   8320     1   109.5600471 388.275200
   8303   8304   8306     1   109.5600471 388.275200
   8303   8310   8312     1   107.2600461 396.643200
   8304   8303   8307     1   109.5600471 388.275200
   8304   8305   8308     1   110.2200475 386.601600
   8304   8323   8313     1   109.2900470 396.643200
   8305   8304   8306     1   109.5600471 388.275200
   8305   8309   8319     1   107.2600461 396.643200
   8306   8304   8323     1   109.8800469 414.216000
   8307   8303   8310     1   110.2600474 425.931200
   8308   8305   8309     1   109.4300470 427.604800
   8308   8305   8318     1   109.5800467 425.931200
   8311   8316   8317     1   107.2600461 396.643200
   8314   8311   8316     1   110.2600474 425.931200
   8314   8311   8315     1   108.4600466 328.025600
   8315   8311   8316     1   110.2600474 425.931200
   8320   8301   8321     1   110.2600474 425.931200
   8324   8326   8327     1   108.8800464 416.726400
   8324   8326   8329     1   108.8800464 416.726400
   8325   8324   8326     1   117.6800502 383.254400
   8326   8328   8330     1   109.5600471 388.275200
   8326   8328   8331     1   109.5600471 388.275200
   8327   8326   8328     1   109.5600471 388.275200
   8327   8326   8329     1   108.4600466 328.025600
   8328   8326   8329     1   109.5600471 388.275200
   8330   8328   8332     1   109.8800469 414.216000
   8330   8328   8331     1   108.4600466 328.025600
   8331   8328   8332     1   109.8800469 414.216000
   8332   8333   8342     1   109.8800469 414.216000
   8332   8333   8343     1   109.8800469 414.216000
   8332   8334   8335     1   109.8800469 414.216000
   8332   8334   8337     1   109.8800469 414.216000
   8333   8344   8345     1   109.8000471 387.438400
   8333   8344   8346     1   109.8000471 387.438400
   8334   8336   8338     1   109.8000471 387.438400
   8334   8336   8339     1   109.8000471 387.438400
   8335   8334   8336     1   109.5600471 388.275200
   8335   8334   8337     1   108.4600466 328.025600
   8336   8334   8337     1   109.5600471 388.275200
   8338   8336   8340     1   108.7700466 392.459200
   8338   8336   8339     1   107.5800459 329.699200
   8339   8336   8340     1   108.7700466 392.459200
   8340   8372   8362     1   119.3800509 410.868800
   8342   8333   8344     1   109.5600471 388.275200
   8342   8333   8343     1   108.4600466 328.025600
   8343   8333   8344     1   109.5600471 388.275200
   8345   8344   8347     1   108.7700466 392.459200
   8345   8344   8346     1   107.5800459 329.699200
   8346   8344   8347     1   108.7700466 392.459200
   8347   8396   8386     1   119.3800509 410.868800
   8349   8350   8369     1   109.5600471 388.275200
   8349   8360   8363     1   109.5600471 388.275200
   8349   8360   8364     1   109.5600471 388.275200
   8350   8352   8356     1   109.5600471 388.275200
   8350   8370   8371     1   107.2600461 396.643200
   8350   8349   8351     1   109.5600471 388.275200
   8351   8349   8360     1   109.5600471 388.275200
   8351   8349   8367     1   109.7800468 425.094400
   8352   8353   8355     1   109.5600471 388.275200
   8352   8359   8361     1   107.2600461 396.643200
   8352   8350   8369     1   109.5600471 388.275200
   8353   8354   8357     1   110.2200475 386.601600
   8353   8372   8362     1   109.2900470 396.643200
   8353   8352   8356     1   109.5600471 388.275200
   8354   8358   8368     1   107.2600461 396.643200
   8354   8353   8355     1   109.5600471 388.275200
   8355   8353   8372     1   109.8800469 414.216000
   8356   8352   8359     1   110.2600474 425.931200
   8357   8354   8358     1   109.4300470 427.604800
   8357   8354   8367     1   109.5800467 425.931200
   8360   8365   8366     1   107.2600461 396.643200
   8363   8360   8365     1   110.2600474 425.931200
   8363   8360   8364     1   108.4600466 328.025600
   8364   8360   8365     1   110.2600474 425.931200
   8369   8350   8370     1   110.2600474 425.931200
   8373   8374   8393     1   109.5600471 388.275200
   8373   8384   8387     1   109.5600471 388.275200
   8373   8384   8388     1   109.5600471 388.275200
   8374   8376   8380     1   109.5600471 388.275200
   8374   8394   8395     1   107.2600461 396.643200
   8374   8373   8375     1   109.5600471 388.275200
   8375   8373   8384     1   109.5600471 388.275200
   8375   8373   8391     1   109.7800468 425.094400
   8376   8377   8379     1   109.5600471 388.275200
   8376   8383   8385     1   107.2600461 396.643200
   8376   8374   8393     1   109.5600471 388.275200
   8377   8378   8381     1   110.2200475 386.601600
   8377   8396   8386     1   109.2900470 396.643200
   8377   8376   8380     1   109.5600471 388.275200
   8378   8382   8392     1   107.2600461 396.643200
   8378   8377   8379     1   109.5600471 388.275200
   8379   8377   8396     1   109.8800469 414.216000
   8380   8376   8383     1   110.2600474 425.931200
   8381   8378   8382     1   109.4300470 427.604800
   8381   8378   8391     1   109.5800467 425.931200
   8384   8389   8390     1   107.2600461 396.643200
   8387   8384   8389     1   110.2600474 425.931200
   8387   8384   8388     1   108.4600466 328.025600
   8388   8384   8389     1   110.2600474 425.931200
   8393   8374   8394     1   110.2600474 425.931200
   8397   8399   8400     1   108.8800464 416.726400
   8397   8399   8402     1   108.8800464 416.726400
   8398   8397   8399     1   117.6800502 383.254400
   8399   8401   8403     1   109.5600471 388.275200
   8399   8401   8404     1   109.5600471 388.275200
   8400   8399   8401     1   109.5600471 388.275200
   8400   8399   8402     1   108.4600466 328.025600
   8401   8399   8402     1   109.5600471 388.275200
   8403   8401   8405     1   109.8800469 414.216000
   8403   8401   8404     1   108.4600466 328.025600
   8404   8401   8405     1   109.8800469 414.216000
   8405   8406   8415     1   109.8800469 414.216000
   8405   8406   8416     1   109.8800469 414.216000
   8405   8407   8408     1   109.8800469 414.216000
   8405   8407   8410     1   109.8800469 414.216000
   8406   8417   8418     1   109.8000471 387.438400
   8406   8417   8419     1   109.8000471 387.438400
   8407   8409   8411     1   109.8000471 387.438400
   8407   8409   8412     1   109.8000471 387.438400
   8408   8407   8409     1   109.5600471 388.275200
   8408   8407   8410     1   108.4600466 328.025600
   8409   8407   8410     1   109.5600471 388.275200
   8411   8409   8413     1   108.7700466 392.459200
   8411   8409   8412     1   107.5800459 329.699200
   8412   8409   8413     1   108.7700466 392.459200
   8413   8445   8435     1   119.3800509 410.868800
   8415   8406   8417     1   109.5600471 388.275200
   8415   8406   8416     1   108.4600466 328.025600
   8416   8406   8417     1   109.5600471 388.275200
   8418   8417   8420     1   108.7700466 392.459200
   8418   8417   8419     1   107.5800459 329.699200
   8419   8417   8420     1   108.7700466 392.459200
   8420   8469   8459     1   119.3800509 410.868800
   8422   8423   8442     1   109.5600471 388.275200
   8422   8433   8436     1   109.5600471 388.275200
   8422   8433   8437     1   109.5600471 388.275200
   8423   8422   8424     1   109.5600471 388.275200
   8423   8425   8429     1   109.5600471 388.275200
   8423   8443   8444     1   107.2600461 396.643200
   8424   8422   8433     1   109.5600471 388.275200
   8424   8422   8440     1   109.7800468 425.094400
   8425   8423   8442     1   109.5600471 388.275200
   8425   8426   8428     1   109.5600471 388.275200
   8425   8432   8434     1   107.2600461 396.643200
   8426   8425   8429     1   109.5600471 388.275200
   8426   8427   8430     1   110.2200475 386.601600
   8426   8445   8435     1   109.2900470 396.643200
   8427   8426   8428     1   109.5600471 388.275200
   8427   8431   8441     1   107.2600461 396.643200
   8428   8426   8445     1   109.8800469 414.216000
   8429   8425   8432     1   110.2600474 425.931200
   8430   8427   8431     1   109.4300470 427.604800
   8430   8427   8440     1   109.5800467 425.931200
   8433   8438   8439     1   107.2600461 396.643200
   8436   8433   8438     1   110.2600474 425.931200
   8436   8433   8437     1   108.4600466 328.025600
   8437   8433   8438     1   110.2600474 425.931200
   8442   8423   8443     1   110.2600474 425.931200
   8446   8447   8466     1   109.5600471 388.275200
   8446   8457   8460     1   109.5600471 388.275200
   8446   8457   8461     1   109.5600471 388.275200
   8447   8446   8448     1   109.5600471 388.275200
   8447   8449   8453     1   109.5600471 388.275200
   8447   8467   8468     1   107.2600461 396.643200
   8448   8446   8457     1   109.5600471 388.275200
   8448   8446   8464     1   109.7800468 425.094400
   8449   8447   8466     1   109.5600471 388.275200
   8449   8450   8452     1   109.5600471 388.275200
   8449   8456   8458     1   107.2600461 396.643200
   8450   8449   8453     1   109.5600471 388.275200
   8450   8451   8454     1   110.2200475 386.601600
   8450   8469   8459     1   109.2900470 396.643200
   8451   8450   8452     1   109.5600471 388.275200
   8451   8455   8465     1   107.2600461 396.643200
   8452   8450   8469     1   109.8800469 414.216000
   8453   8449   8456     1   110.2600474 425.931200
   8454   8451   8455     1   109.4300470 427.604800
   8454   8451   8464     1   109.5800467 425.931200
   8457   8462   8463     1   107.2600461 396.643200
   8460   8457   8462     1   110.2600474 425.931200
   8460   8457   8461     1   108.4600466 328.025600
   8461   8457   8462     1   110.2600474 425.931200
   8466   8447   8467     1   110.2600474 425.931200
   8470   8472   8473     1   108.8800464 416.726400
   8470   8472   8475     1   108.8800464 416.726400
   8471   8470   8472     1   117.6800502 383.254400
   8472   8474   8476     1   109.5600471 388.275200
   8472   8474   8477     1   109.5600471 388.275200
   8473   8472   8474     1   109.5600471 388.275200
   8473   8472   8475     1   108.4600466 328.025600
   8474   8472   8475     1   109.5600471 388.275200
   8476   8474   8478     1   109.8800469 414.216000
   8476   8474   8477     1   108.4600466 328.025600
   8477   8474   8478     1   109.8800469 414.216000
   8478   8479   8488     1   109.8800469 414.216000
   8478   8479   8489     1   109.8800469 414.216000
   8478   8480   8481     1   109.8800469 414.216000
   8478   8480   8483     1   109.8800469 414.216000
   8479   8490   8491     1   109.8000471 387.438400
   8479   8490   8492     1   109.8000471 387.438400
   8480   8482   8484     1   109.8000471 387.438400
   8480   8482   8485     1   109.8000471 387.438400
   8481   8480   8482     1   109.5600471 388.275200
   8481   8480   8483     1   108.4600466 328.025600
   8482   8480   8483     1   109.5600471 388.275200
   8484   8482   8486     1   108.7700466 392.459200
   8484   8482   8485     1   107.5800459 329.699200
   8485   8482   8486     1   108.7700466 392.459200
   8486   8518   8508     1   119.3800509 410.868800
   8488   8479   8490     1   109.5600471 388.275200
   8488   8479   8489     1   108.4600466 328.025600
   8489   8479   8490     1   109.5600471 388.275200
   8491   8490   8493     1   108.7700466 392.459200
   8491   8490   8492     1   107.5800459 329.699200
   8492   8490   8493     1   108.7700466 392.459200
   8493   8542   8532     1   119.3800509 410.868800
   8495   8496   8515     1   109.5600471 388.275200
   8495   8506   8509     1   109.5600471 388.275200
   8495   8506   8510     1   109.5600471 388.275200
   8496   8498   8502     1   109.5600471 388.275200
   8496   8516   8517     1   107.2600461 396.643200
   8496   8495   8497     1   109.5600471 388.275200
   8497   8495   8506     1   109.5600471 388.275200
   8497   8495   8513     1   109.7800468 425.094400
   8498   8499   8501     1   109.5600471 388.275200
   8498   8505   8507     1   107.2600461 396.643200
   8498   8496   8515     1   109.5600471 388.275200
   8499   8500   8503     1   110.2200475 386.601600
   8499   8518   8508     1   109.2900470 396.643200
   8499   8498   8502     1   109.5600471 388.275200
   8500   8504   8514     1   107.2600461 396.643200
   8500   8499   8501     1   109.5600471 388.275200
   8501   8499   8518     1   109.8800469 414.216000
   8502   8498   8505     1   110.2600474 425.931200
   8503   8500   8504     1   109.4300470 427.604800
   8503   8500   8513     1   109.5800467 425.931200
   8506   8511   8512     1   107.2600461 396.643200
   8509   8506   8511     1   110.2600474 425.931200
   8509   8506   8510     1   108.4600466 328.025600
   8510   8506   8511     1   110.2600474 425.931200
   8515   8496   8516     1   110.2600474 425.931200
   8519   8520   8539     1   109.5600471 388.275200
   8519   8530   8533     1   109.5600471 388.275200
   8519   8530   8534     1   109.5600471 388.275200
   8520   8522   8526     1   109.5600471 388.275200
   8520   8540   8541     1   107.2600461 396.643200
   8520   8519   8521     1   109.5600471 388.275200
   8521   8519   8530     1   109.5600471 388.275200
   8521   8519   8537     1   109.7800468 425.094400
   8522   8523   8525     1   109.5600471 388.275200
   8522   8529   8531     1   107.2600461 396.643200
   8522   8520   8539     1   109.5600471 388.275200
   8523   8524   8527     1   110.2200475 386.601600
   8523   8542   8532     1   109.2900470 396.643200
   8523   8522   8526     1   109.5600471 388.275200
   8524   8528   8538     1   107.2600461 396.643200
   8524   8523   8525     1   109.5600471 388.275200
   8525   8523   8542     1   109.8800469 414.216000
   8526   8522   8529     1   110.2600474 425.931200
   8527   8524   8528     1   109.4300470 427.604800
   8527   8524   8537     1   109.5800467 425.931200
   8530   8535   8536     1   107.2600461 396.643200
   8533   8530   8535     1   110.2600474 425.931200
   8533   8530   8534     1   108.4600466 328.025600
   8534   8530   8535     1   110.2600474 425.931200
   8539   8520   8540     1   110.2600474 425.931200
   8543   8545   8546     1   108.8800464 416.726400
   8543   8545   8548     1   108.8800464 416.726400
   8544   8543   8545     1   117.6800502 383.254400
   8545   8547   8549     1   109.5600471 388.275200
   8545   8547   8550     1   109.5600471 388.275200
   8546   8545   8547     1   109.5600471 388.275200
   8546   8545   8548     1   108.4600466 328.025600
   8547   8545   8548     1   109.5600471 388.275200
   8549   8547   8551     1   109.8800469 414.216000
   8549   8547   8550     1   108.4600466 328.025600
   8550   8547   8551     1   109.8800469 414.216000
   8551   8552   8561     1   109.8800469 414.216000
   8551   8552   8562     1   109.8800469 414.216000
   8551   8553   8554     1   109.8800469 414.216000
   8551   8553   8556     1   109.8800469 414.216000
   8552   8563   8564     1   109.8000471 387.438400
   8552   8563   8565     1   109.8000471 387.438400
   8553   8555   8557     1   109.8000471 387.438400
   8553   8555   8558     1   109.8000471 387.438400
   8554   8553   8555     1   109.5600471 388.275200
   8554   8553   8556     1   108.4600466 328.025600
   8555   8553   8556     1   109.5600471 388.275200
   8557   8555   8559     1   108.7700466 392.459200
   8557   8555   8558     1   107.5800459 329.699200
   8558   8555   8559     1   108.7700466 392.459200
   8559   8591   8581     1   119.3800509 410.868800
   8561   8552   8563     1   109.5600471 388.275200
   8561   8552   8562     1   108.4600466 328.025600
   8562   8552   8563     1   109.5600471 388.275200
   8564   8563   8566     1   108.7700466 392.459200
   8564   8563   8565     1   107.5800459 329.699200
   8565   8563   8566     1   108.7700466 392.459200
   8566   8615   8605     1   119.3800509 410.868800
   8568   8569   8588     1   109.5600471 388.275200
   8568   8579   8582     1   109.5600471 388.275200
   8568   8579   8583     1   109.5600471 388.275200
   8569   8568   8570     1   109.5600471 388.275200
   8569   8571   8575     1   109.5600471 388.275200
   8569   8589   8590     1   107.2600461 396.643200
   8570   8568   8579     1   109.5600471 388.275200
   8570   8568   8586     1   109.7800468 425.094400
   8571   8569   8588     1   109.5600471 388.275200
   8571   8572   8574     1   109.5600471 388.275200
   8571   8578   8580     1   107.2600461 396.643200
   8572   8571   8575     1   109.5600471 388.275200
   8572   8573   8576     1   110.2200475 386.601600
   8572   8591   8581     1   109.2900470 396.643200
   8573   8572   8574     1   109.5600471 388.275200
   8573   8577   8587     1   107.2600461 396.643200
   8574   8572   8591     1   109.8800469 414.216000
   8575   8571   8578     1   110.2600474 425.931200
   8576   8573   8577     1   109.4300470 427.604800
   8576   8573   8586     1   109.5800467 425.931200
   8579   8584   8585     1   107.2600461 396.643200
   8582   8579   8584     1   110.2600474 425.931200
   8582   8579   8583     1   108.4600466 328.025600
   8583   8579   8584     1   110.2600474 425.931200
   8588   8569   8589     1   110.2600474 425.931200
   8592   8593   8612     1   109.5600471 388.275200
   8592   8603   8606     1   109.5600471 388.275200
   8592   8603   8607     1   109.5600471 388.275200
   8593   8592   8594     1   109.5600471 388.275200
   8593   8595   8599     1   109.5600471 388.275200
   8593   8613   8614     1   107.2600461 396.643200
   8594   8592   8603     1   109.5600471 388.275200
   8594   8592   8610     1   109.7800468 425.094400
   8595   8593   8612     1   109.5600471 388.275200
   8595   8596   8598     1   109.5600471 388.275200
   8595   8602   8604     1   107.2600461 396.643200
   8596   8595   8599     1   109.5600471 388.275200
   8596   8597   8600     1   110.2200475 386.601600
   8596   8615   8605     1   109.2900470 396.643200
   8597   8596   8598     1   109.5600471 388.275200
   8597   8601   8611     1   107.2600461 396.643200
   8598   8596   8615     1   109.8800469 414.216000
   8599   8595   8602     1   110.2600474 425.931200
   8600   8597   8601     1   109.4300470 427.604800
   8600   8597   8610     1   109.5800467 425.931200
   8603   8608   8609     1   107.2600461 396.643200
   8606   8603   8608     1   110.2600474 425.931200
   8606   8603   8607     1   108.4600466 328.025600
   8607   8603   8608     1   110.2600474 425.931200
   8612   8593   8613     1   110.2600474 425.931200
   8616   8618   8619     1   108.8800464 416.726400
   8616   8618   8621     1   108.8800464 416.726400
   8617   8616   8618     1   117.6800502 383.254400
   8618   8620   8622     1   109.5600471 388.275200
   8618   8620   8623     1   109.5600471 388.275200
   8619   8618   8620     1   109.5600471 388.275200
   8619   8618   8621     1   108.4600466 328.025600
   8620   8618   8621     1   109.5600471 388.275200
   8622   8620   8624     1   109.8800469 414.216000
   8622   8620   8623     1   108.4600466 328.025600
   8623   8620   8624     1   109.8800469 414.216000
   8624   8625   8634     1   109.8800469 414.216000
   8624   8625   8635     1   109.8800469 414.216000
   8624   8626   8627     1   109.8800469 414.216000
   8624   8626   8629     1   109.8800469 414.216000
   8625   8636   8637     1   109.8000471 387.438400
   8625   8636   8638     1   109.8000471 387.438400
   8626   8628   8630     1   109.8000471 387.438400
   8626   8628   8631     1   109.8000471 387.438400
   8627   8626   8628     1   109.5600471 388.275200
   8627   8626   8629     1   108.4600466 328.025600
   8628   8626   8629     1   109.5600471 388.275200
   8630   8628   8632     1   108.7700466 392.459200
   8630   8628   8631     1   107.5800459 329.699200
   8631   8628   8632     1   108.7700466 392.459200
   8632   8664   8654     1   119.3800509 410.868800
   8634   8625   8636     1   109.5600471 388.275200
   8634   8625   8635     1   108.4600466 328.025600
   8635   8625   8636     1   109.5600471 388.275200
   8637   8636   8639     1   108.7700466 392.459200
   8637   8636   8638     1   107.5800459 329.699200
   8638   8636   8639     1   108.7700466 392.459200
   8639   8688   8678     1   119.3800509 410.868800
   8641   8642   8661     1   109.5600471 388.275200
   8641   8652   8655     1   109.5600471 388.275200
   8641   8652   8656     1   109.5600471 388.275200
   8642   8644   8648     1   109.5600471 388.275200
   8642   8662   8663     1   107.2600461 396.643200
   8642   8641   8643     1   109.5600471 388.275200
   8643   8641   8652     1   109.5600471 388.275200
   8643   8641   8659     1   109.7800468 425.094400
   8644   8645   8647     1   109.5600471 388.275200
   8644   8651   8653     1   107.2600461 396.643200
   8644   8642   8661     1   109.5600471 388.275200
   8645   8646   8649     1   110.2200475 386.601600
   8645   8664   8654     1   109.2900470 396.643200
   8645   8644   8648     1   109.5600471 388.275200
   8646   8650   8660     1   107.2600461 396.643200
   8646   8645   8647     1   109.5600471 388.275200
   8647   8645   8664     1   109.8800469 414.216000
   8648   8644   8651     1   110.2600474 425.931200
   8649   8646   8650     1   109.4300470 427.604800
   8649   8646   8659     1   109.5800467 425.931200
   8652   8657   8658     1   107.2600461 396.643200
   8655   8652   8657     1   110.2600474 425.931200
   8655   8652   8656     1   108.4600466 328.025600
   8656   8652   8657     1   110.2600474 425.931200
   8661   8642   8662     1   110.2600474 425.931200
   8665   8666   8685     1   109.5600471 388.275200
   8665   8676   8679     1   109.5600471 388.275200
   8665   8676   8680     1   109.5600471 388.275200
   8666   8668   8672     1   109.5600471 388.275200
   8666   8686   8687     1   107.2600461 396.643200
   8666   8665   8667     1   109.5600471 388.275200
   8667   8665   8676     1   109.5600471 388.275200
   8667   8665   8683     1   109.7800468 425.094400
   8668   8669   8671     1   109.5600471 388.275200
   8668   8675   8677     1   107.2600461 396.643200
   8668   8666   8685     1   109.5600471 388.275200
   8669   8670   8673     1   110.2200475 386.601600
   8669   8688   8678     1   109.2900470 396.643200
   8669   8668   8672     1   109.5600471 388.275200
   8670   8674   8684     1   107.2600461 396.643200
   8670   8669   8671     1   109.5600471 388.275200
   8671   8669   8688     1   109.8800469 414.216000
   8672   8668   8675     1   110.2600474 425.931200
   8673   8670   8674     1   109.4300470 427.604800
   8673   8670   8683     1   109.5800467 425.931200
   8676   8681   8682     1   107.2600461 396.643200
   8679   8676   8681     1   110.2600474 425.931200
   8679   8676   8680     1   108.4600466 328.025600
   8680   8676   8681     1   110.2600474 425.931200
   8685   8666   8686     1   110.2600474 425.931200
   8689   8691   8692     1   108.8800464 416.726400
   8689   8691   8694     1   108.8800464 416.726400
   8690   8689   8691     1   117.6800502 383.254400
   8691   8693   8695     1   109.5600471 388.275200
   8691   8693   8696     1   109.5600471 388.275200
   8692   8691   8693     1   109.5600471 388.275200
   8692   8691   8694     1   108.4600466 328.025600
   8693   8691   8694     1   109.5600471 388.275200
   8695   8693   8697     1   109.8800469 414.216000
   8695   8693   8696     1   108.4600466 328.025600
   8696   8693   8697     1   109.8800469 414.216000
   8697   8698   8707     1   109.8800469 414.216000
   8697   8698   8708     1   109.8800469 414.216000
   8697   8699   8700     1   109.8800469 414.216000
   8697   8699   8702     1   109.8800469 414.216000
   8698   8709   8710     1   109.8000471 387.438400
   8698   8709   8711     1   109.8000471 387.438400
   8699   8701   8703     1   109.8000471 387.438400
   8699   8701   8704     1   109.8000471 387.438400
   8700   8699   8701     1   109.5600471 388.275200
   8700   8699   8702     1   108.4600466 328.025600
   8701   8699   8702     1   109.5600471 388.275200
   8703   8701   8705     1   108.7700466 392.459200
   8703   8701   8704     1   107.5800459 329.699200
   8704   8701   8705     1   108.7700466 392.459200
   8705   8737   8727     1   119.3800509 410.868800
   8707   8698   8709     1   109.5600471 388.275200
   8707   8698   8708     1   108.4600466 328.025600
   8708   8698   8709     1   109.5600471 388.275200
   8710   8709   8712     1   108.7700466 392.459200
   8710   8709   8711     1   107.5800459 329.699200
   8711   8709   8712     1   108.7700466 392.459200
   8712   8761   8751     1   119.3800509 410.868800
   8714   8715   8734     1   109.5600471 388.275200
   8714   8725   8728     1   109.5600471 388.275200
   8714   8725   8729     1   109.5600471 388.275200
   8715   8714   8716     1   109.5600471 388.275200
   8715   8717   8721     1   109.5600471 388.275200
   8715   8735   8736     1   107.2600461 396.643200
   8716   8714   8725     1   109.5600471 388.275200
   8716   8714   8732     1   109.7800468 425.094400
   8717   8715   8734     1   109.5600471 388.275200
   8717   8718   8720     1   109.5600471 388.275200
   8717   8724   8726     1   107.2600461 396.643200
   8718   8717   8721     1   109.5600471 388.275200
   8718   8719   8722     1   110.2200475 386.601600
   8718   8737   8727     1   109.2900470 396.643200
   8719   8718   8720     1   109.5600471 388.275200
   8719   8723   8733     1   107.2600461 396.643200
   8720   8718   8737     1   109.8800469 414.216000
   8721   8717   8724     1   110.2600474 425.931200
   8722   8719   8723     1   109.4300470 427.604800
   8722   8719   8732     1   109.5800467 425.931200
   8725   8730   8731     1   107.2600461 396.643200
   8728   8725   8730     1   110.2600474 425.931200
   8728   8725   8729     1   108.4600466 328.025600
   8729   8725   8730     1   110.2600474 425.931200
   8734   8715   8735     1   110.2600474 425.931200
   8738   8739   8758     1   109.5600471 388.275200
   8738   8749   8752     1   109.5600471 388.275200
   8738   8749   8753     1   109.5600471 388.275200
   8739   8738   8740     1   109.5600471 388.275200
   8739   8741   8745     1   109.5600471 388.275200
   8739   8759   8760     1   107.2600461 396.643200
   8740   8738   8749     1   109.5600471 388.275200
   8740   8738   8756     1   109.7800468 425.094400
   8741   8739   8758     1   109.5600471 388.275200
   8741   8742   8744     1   109.5600471 388.275200
   8741   8748   8750     1   107.2600461 396.643200
   8742   8741   8745     1   109.5600471 388.275200
   8742   8743   8746     1   110.2200475 386.601600
   8742   8761   8751     1   109.2900470 396.643200
   8743   8742   8744     1   109.5600471 388.275200
   8743   8747   8757     1   107.2600461 396.643200
   8744   8742   8761     1   109.8800469 414.216000
   8745   8741   8748     1   110.2600474 425.931200
   8746   8743   8747     1   109.4300470 427.604800
   8746   8743   8756     1   109.5800467 425.931200
   8749   8754   8755     1   107.2600461 396.643200
   8752   8749   8754     1   110.2600474 425.931200
   8752   8749   8753     1   108.4600466 328.025600
   8753   8749   8754     1   110.2600474 425.931200
   8758   8739   8759     1   110.2600474 425.931200
   8762   8764   8765     1   108.8800464 416.726400
   8762   8764   8767     1   108.8800464 416.726400
   8763   8762   8764     1   117.6800502 383.254400
   8764   8766   8768     1   109.5600471 388.275200
   8764   8766   8769     1   109.5600471 388.275200
   8765   8764   8766     1   109.5600471 388.275200
   8765   8764   8767     1   108.4600466 328.025600
   8766   8764   8767     1   109.5600471 388.275200
   8768   8766   8770     1   109.8800469 414.216000
   8768   8766   8769     1   108.4600466 328.025600
   8769   8766   8770     1   109.8800469 414.216000
   8770   8771   8780     1   109.8800469 414.216000
   8770   8771   8781     1   109.8800469 414.216000
   8770   8772   8773     1   109.8800469 414.216000
   8770   8772   8775     1   109.8800469 414.216000
   8771   8782   8783     1   109.8000471 387.438400
   8771   8782   8784     1   109.8000471 387.438400
   8772   8774   8776     1   109.8000471 387.438400
   8772   8774   8777     1   109.8000471 387.438400
   8773   8772   8774     1   109.5600471 388.275200
   8773   8772   8775     1   108.4600466 328.025600
   8774   8772   8775     1   109.5600471 388.275200
   8776   8774   8778     1   108.7700466 392.459200
   8776   8774   8777     1   107.5800459 329.699200
   8777   8774   8778     1   108.7700466 392.459200
   8778   8810   8800     1   119.3800509 410.868800
   8780   8771   8782     1   109.5600471 388.275200
   8780   8771   8781     1   108.4600466 328.025600
   8781   8771   8782     1   109.5600471 388.275200
   8783   8782   8785     1   108.7700466 392.459200
   8783   8782   8784     1   107.5800459 329.699200
   8784   8782   8785     1   108.7700466 392.459200
   8785   8834   8824     1   119.3800509 410.868800
   8787   8788   8807     1   109.5600471 388.275200
   8787   8798   8801     1   109.5600471 388.275200
   8787   8798   8802     1   109.5600471 388.275200
   8788   8790   8794     1   109.5600471 388.275200
   8788   8808   8809     1   107.2600461 396.643200
   8788   8787   8789     1   109.5600471 388.275200
   8789   8787   8798     1   109.5600471 388.275200
   8789   8787   8805     1   109.7800468 425.094400
   8790   8791   8793     1   109.5600471 388.275200
   8790   8797   8799     1   107.2600461 396.643200
   8790   8788   8807     1   109.5600471 388.275200
   8791   8792   8795     1   110.2200475 386.601600
   8791   8810   8800     1   109.2900470 396.643200
   8791   8790   8794     1   109.5600471 388.275200
   8792   8796   8806     1   107.2600461 396.643200
   8792   8791   8793     1   109.5600471 388.275200
   8793   8791   8810     1   109.8800469 414.216000
   8794   8790   8797     1   110.2600474 425.931200
   8795   8792   8796     1   109.4300470 427.604800
   8795   8792   8805     1   109.5800467 425.931200
   8798   8803   8804     1   107.2600461 396.643200
   8801   8798   8803     1   110.2600474 425.931200
   8801   8798   8802     1   108.4600466 328.025600
   8802   8798   8803     1   110.2600474 425.931200
   8807   8788   8808     1   110.2600474 425.931200
   8811   8812   8831     1   109.5600471 388.275200
   8811   8822   8825     1   109.5600471 388.275200
   8811   8822   8826     1   109.5600471 388.275200
   8812   8814   8818     1   109.5600471 388.275200
   8812   8832   8833     1   107.2600461 396.643200
   8812   8811   8813     1   109.5600471 388.275200
   8813   8811   8822     1   109.5600471 388.275200
   8813   8811   8829     1   109.7800468 425.094400
   8814   8815   8817     1   109.5600471 388.275200
   8814   8821   8823     1   107.2600461 396.643200
   8814   8812   8831     1   109.5600471 388.275200
   8815   8816   8819     1   110.2200475 386.601600
   8815   8834   8824     1   109.2900470 396.643200
   8815   8814   8818     1   109.5600471 388.275200
   8816   8820   8830     1   107.2600461 396.643200
   8816   8815   8817     1   109.5600471 388.275200
   8817   8815   8834     1   109.8800469 414.216000
   8818   8814   8821     1   110.2600474 425.931200
   8819   8816   8820     1   109.4300470 427.604800
   8819   8816   8829     1   109.5800467 425.931200
   8822   8827   8828     1   107.2600461 396.643200
   8825   8822   8827     1   110.2600474 425.931200
   8825   8822   8826     1   108.4600466 328.025600
   8826   8822   8827     1   110.2600474 425.931200
   8831   8812   8832     1   110.2600474 425.931200
   8835   8837   8838     1   108.8800464 416.726400
   8835   8837   8840     1   108.8800464 416.726400
   8836   8835   8837     1   117.6800502 383.254400
   8837   8839   8841     1   109.5600471 388.275200
   8837   8839   8842     1   109.5600471 388.275200
   8838   8837   8839     1   109.5600471 388.275200
   8838   8837   8840     1   108.4600466 328.025600
   8839   8837   8840     1   109.5600471 388.275200
   8841   8839   8843     1   109.8800469 414.216000
   8841   8839   8842     1   108.4600466 328.025600
   8842   8839   8843     1   109.8800469 414.216000
   8843   8844   8853     1   109.8800469 414.216000
   8843   8844   8854     1   109.8800469 414.216000
   8843   8845   8846     1   109.8800469 414.216000
   8843   8845   8848     1   109.8800469 414.216000
   8844   8855   8856     1   109.8000471 387.438400
   8844   8855   8857     1   109.8000471 387.438400
   8845   8847   8849     1   109.8000471 387.438400
   8845   8847   8850     1   109.8000471 387.438400
   8846   8845   8847     1   109.5600471 388.275200
   8846   8845   8848     1   108.4600466 328.025600
   8847   8845   8848     1   109.5600471 388.275200
   8849   8847   8851     1   108.7700466 392.459200
   8849   8847   8850     1   107.5800459 329.699200
   8850   8847   8851     1   108.7700466 392.459200
   8851   8883   8873     1   119.3800509 410.868800
   8853   8844   8855     1   109.5600471 388.275200
   8853   8844   8854     1   108.4600466 328.025600
   8854   8844   8855     1   109.5600471 388.275200
   8856   8855   8858     1   108.7700466 392.459200
   8856   8855   8857     1   107.5800459 329.699200
   8857   8855   8858     1   108.7700466 392.459200
   8858   8907   8897     1   119.3800509 410.868800
   8860   8861   8880     1   109.5600471 388.275200
   8860   8871   8874     1   109.5600471 388.275200
   8860   8871   8875     1   109.5600471 388.275200
   8861   8860   8862     1   109.5600471 388.275200
   8861   8863   8867     1   109.5600471 388.275200
   8861   8881   8882     1   107.2600461 396.643200
   8862   8860   8871     1   109.5600471 388.275200
   8862   8860   8878     1   109.7800468 425.094400
   8863   8861   8880     1   109.5600471 388.275200
   8863   8864   8866     1   109.5600471 388.275200
   8863   8870   8872     1   107.2600461 396.643200
   8864   8863   8867     1   109.5600471 388.275200
   8864   8865   8868     1   110.2200475 386.601600
   8864   8883   8873     1   109.2900470 396.643200
   8865   8864   8866     1   109.5600471 388.275200
   8865   8869   8879     1   107.2600461 396.643200
   8866   8864   8883     1   109.8800469 414.216000
   8867   8863   8870     1   110.2600474 425.931200
   8868   8865   8869     1   109.4300470 427.604800
   8868   8865   8878     1   109.5800467 425.931200
   8871   8876   8877     1   107.2600461 396.643200
   8874   8871   8876     1   110.2600474 425.931200
   8874   8871   8875     1   108.4600466 328.025600
   8875   8871   8876     1   110.2600474 425.931200
   8880   8861   8881     1   110.2600474 425.931200
   8884   8885   8904     1   109.5600471 388.275200
   8884   8895   8898     1   109.5600471 388.275200
   8884   8895   8899     1   109.5600471 388.275200
   8885   8884   8886     1   109.5600471 388.275200
   8885   8887   8891     1   109.5600471 388.275200
   8885   8905   8906     1   107.2600461 396.643200
   8886   8884   8895     1   109.5600471 388.275200
   8886   8884   8902     1   109.7800468 425.094400
   8887   8885   8904     1   109.5600471 388.275200
   8887   8888   8890     1   109.5600471 388.275200
   8887   8894   8896     1   107.2600461 396.643200
   8888   8887   8891     1   109.5600471 388.275200
   8888   8889   8892     1   110.2200475 386.601600
   8888   8907   8897     1   109.2900470 396.643200
   8889   8888   8890     1   109.5600471 388.275200
   8889   8893   8903     1   107.2600461 396.643200
   8890   8888   8907     1   109.8800469 414.216000
   8891   8887   8894     1   110.2600474 425.931200
   8892   8889   8893     1   109.4300470 427.604800
   8892   8889   8902     1   109.5800467 425.931200
   8895   8900   8901     1   107.2600461 396.643200
   8898   8895   8900     1   110.2600474 425.931200
   8898   8895   8899     1   108.4600466 328.025600
   8899   8895   8900     1   110.2600474 425.931200
   8904   8885   8905     1   110.2600474 425.931200
   8908   8910   8911     1   108.8800464 416.726400
   8908   8910   8913     1   108.8800464 416.726400
   8909   8908   8910     1   117.6800502 383.254400
   8910   8912   8914     1   109.5600471 388.275200
   8910   8912   8915     1   109.5600471 388.275200
   8911   8910   8912     1   109.5600471 388.275200
   8911   8910   8913     1   108.4600466 328.025600
   8912   8910   8913     1   109.5600471 388.275200
   8914   8912   8916     1   109.8800469 414.216000
   8914   8912   8915     1   108.4600466 328.025600
   8915   8912   8916     1   109.8800469 414.216000
   8916   8917   8926     1   109.8800469 414.216000
   8916   8917   8927     1   109.8800469 414.216000
   8916   8918   8919     1   109.8800469 414.216000
   8916   8918   8921     1   109.8800469 414.216000
   8917   8928   8929     1   109.8000471 387.438400
   8917   8928   8930     1   109.8000471 387.438400
   8918   8920   8922     1   109.8000471 387.438400
   8918   8920   8923     1   109.8000471 387.438400
   8919   8918   8920     1   109.5600471 388.275200
   8919   8918   8921     1   108.4600466 328.025600
   8920   8918   8921     1   109.5600471 388.275200
   8922   8920   8924     1   108.7700466 392.459200
   8922   8920   8923     1   107.5800459 329.699200
   8923   8920   8924     1   108.7700466 392.459200
   8924   8956   8946     1   119.3800509 410.868800
   8926   8917   8928     1   109.5600471 388.275200
   8926   8917   8927     1   108.4600466 328.025600
   8927   8917   8928     1   109.5600471 388.275200
   8929   8928   8931     1   108.7700466 392.459200
   8929   8928   8930     1   107.5800459 329.699200
   8930   8928   8931     1   108.7700466 392.459200
   8931   8980   8970     1   119.3800509 410.868800
   8933   8934   8953     1   109.5600471 388.275200
   8933   8944   8947     1   109.5600471 388.275200
   8933   8944   8948     1   109.5600471 388.275200
   8934   8936   8940     1   109.5600471 388.275200
   8934   8954   8955     1   107.2600461 396.643200
   8934   8933   8935     1   109.5600471 388.275200
   8935   8933   8944     1   109.5600471 388.275200
   8935   8933   8951     1   109.7800468 425.094400
   8936   8937   8939     1   109.5600471 388.275200
   8936   8943   8945     1   107.2600461 396.643200
   8936   8934   8953     1   109.5600471 388.275200
   8937   8938   8941     1   110.2200475 386.601600
   8937   8956   8946     1   109.2900470 396.643200
   8937   8936   8940     1   109.5600471 388.275200
   8938   8942   8952     1   107.2600461 396.643200
   8938   8937   8939     1   109.5600471 388.275200
   8939   8937   8956     1   109.8800469 414.216000
   8940   8936   8943     1   110.2600474 425.931200
   8941   8938   8942     1   109.4300470 427.604800
   8941   8938   8951     1   109.5800467 425.931200
   8944   8949   8950     1   107.2600461 396.643200
   8947   8944   8949     1   110.2600474 425.931200
   8947   8944   8948     1   108.4600466 328.025600
   8948   8944   8949     1   110.2600474 425.931200
   8953   8934   8954     1   110.2600474 425.931200
   8957   8958   8977     1   109.5600471 388.275200
   8957   8968   8971     1   109.5600471 388.275200
   8957   8968   8972     1   109.5600471 388.275200
   8958   8960   8964     1   109.5600471 388.275200
   8958   8978   8979     1   107.2600461 396.643200
   8958   8957   8959     1   109.5600471 388.275200
   8959   8957   8968     1   109.5600471 388.275200
   8959   8957   8975     1   109.7800468 425.094400
   8960   8961   8963     1   109.5600471 388.275200
   8960   8967   8969     1   107.2600461 396.643200
   8960   8958   8977     1   109.5600471 388.275200
   8961   8962   8965     1   110.2200475 386.601600
   8961   8980   8970     1   109.2900470 396.643200
   8961   8960   8964     1   109.5600471 388.275200
   8962   8966   8976     1   107.2600461 396.643200
   8962   8961   8963     1   109.5600471 388.275200
   8963   8961   8980     1   109.8800469 414.216000
   8964   8960   8967     1   110.2600474 425.931200
   8965   8962   8966     1   109.4300470 427.604800
   8965   8962   8975     1   109.5800467 425.931200
   8968   8973   8974     1   107.2600461 396.643200
   8971   8968   8973     1   110.2600474 425.931200
   8971   8968   8972     1   108.4600466 328.025600
   8972   8968   8973     1   110.2600474 425.931200
   8977   8958   8978     1   110.2600474 425.931200
   8981   8983   8984     1   108.8800464 416.726400
   8981   8983   8986     1   108.8800464 416.726400
   8982   8981   8983     1   117.6800502 383.254400
   8983   8985   8987     1   109.5600471 388.275200
   8983   8985   8988     1   109.5600471 388.275200
   8984   8983   8985     1   109.5600471 388.275200
   8984   8983   8986     1   108.4600466 328.025600
   8985   8983   8986     1   109.5600471 388.275200
   8987   8985   8989     1   109.8800469 414.216000
   8987   8985   8988     1   108.4600466 328.025600
   8988   8985   8989     1   109.8800469 414.216000
   8989   8990   8999     1   109.8800469 414.216000
   8989   8990   9000     1   109.8800469 414.216000
   8989   8991   8992     1   109.8800469 414.216000
   8989   8991   8994     1   109.8800469 414.216000
   8990   9001   9002     1   109.8000471 387.438400
   8990   9001   9003     1   109.8000471 387.438400
   8991   8993   8995     1   109.8000471 387.438400
   8991   8993   8996     1   109.8000471 387.438400
   8992   8991   8993     1   109.5600471 388.275200
   8992   8991   8994     1   108.4600466 328.025600
   8993   8991   8994     1   109.5600471 388.275200
   8995   8993   8997     1   108.7700466 392.459200
   8995   8993   8996     1   107.5800459 329.699200
   8996   8993   8997     1   108.7700466 392.459200
   8997   9029   9019     1   119.3800509 410.868800
   8999   8990   9001     1   109.5600471 388.275200
   8999   8990   9000     1   108.4600466 328.025600
   9000   8990   9001     1   109.5600471 388.275200
   9002   9001   9004     1   108.7700466 392.459200
   9002   9001   9003     1   107.5800459 329.699200
   9003   9001   9004     1   108.7700466 392.459200
   9004   9053   9043     1   119.3800509 410.868800
   9006   9007   9026     1   109.5600471 388.275200
   9006   9017   9020     1   109.5600471 388.275200
   9006   9017   9021     1   109.5600471 388.275200
   9007   9006   9008     1   109.5600471 388.275200
   9007   9009   9013     1   109.5600471 388.275200
   9007   9027   9028     1   107.2600461 396.643200
   9008   9006   9017     1   109.5600471 388.275200
   9008   9006   9024     1   109.7800468 425.094400
   9009   9007   9026     1   109.5600471 388.275200
   9009   9010   9012     1   109.5600471 388.275200
   9009   9016   9018     1   107.2600461 396.643200
   9010   9009   9013     1   109.5600471 388.275200
   9010   9011   9014     1   110.2200475 386.601600
   9010   9029   9019     1   109.2900470 396.643200
   9011   9010   9012     1   109.5600471 388.275200
   9011   9015   9025     1   107.2600461 396.643200
   9012   9010   9029     1   109.8800469 414.216000
   9013   9009   9016     1   110.2600474 425.931200
   9014   9011   9015     1   109.4300470 427.604800
   9014   9011   9024     1   109.5800467 425.931200
   9017   9022   9023     1   107.2600461 396.643200
   9020   9017   9022     1   110.2600474 425.931200
   9020   9017   9021     1   108.4600466 328.025600
   9021   9017   9022     1   110.2600474 425.931200
   9026   9007   9027     1   110.2600474 425.931200
   9030   9031   9050     1   109.5600471 388.275200
   9030   9041   9044     1   109.5600471 388.275200
   9030   9041   9045     1   109.5600471 388.275200
   9031   9030   9032     1   109.5600471 388.275200
   9031   9033   9037     1   109.5600471 388.275200
   9031   9051   9052     1   107.2600461 396.643200
   9032   9030   9041     1   109.5600471 388.275200
   9032   9030   9048     1   109.7800468 425.094400
   9033   9031   9050     1   109.5600471 388.275200
   9033   9034   9036     1   109.5600471 388.275200
   9033   9040   9042     1   107.2600461 396.643200
   9034   9033   9037     1   109.5600471 388.275200
   9034   9035   9038     1   110.2200475 386.601600
   9034   9053   9043     1   109.2900470 396.643200
   9035   9034   9036     1   109.5600471 388.275200
   9035   9039   9049     1   107.2600461 396.643200
   9036   9034   9053     1   109.8800469 414.216000
   9037   9033   9040     1   110.2600474 425.931200
   9038   9035   9039     1   109.4300470 427.604800
   9038   9035   9048     1   109.5800467 425.931200
   9041   9046   9047     1   107.2600461 396.643200
   9044   9041   9046     1   110.2600474 425.931200
   9044   9041   9045     1   108.4600466 328.025600
   9045   9041   9046     1   110.2600474 425.931200
   9050   9031   9051     1   110.2600474 425.931200
   9054   9056   9057     1   108.8800464 416.726400
   9054   9056   9059     1   108.8800464 416.726400
   9055   9054   9056     1   117.6800502 383.254400
   9056   9058   9060     1   109.5600471 388.275200
   9056   9058   9061     1   109.5600471 388.275200
   9057   9056   9058     1   109.5600471 388.275200
   9057   9056   9059     1   108.4600466 328.025600
   9058   9056   9059     1   109.5600471 388.275200
   9060   9058   9062     1   109.8800469 414.216000
   9060   9058   9061     1   108.4600466 328.025600
   9061   9058   9062     1   109.8800469 414.216000
   9062   9063   9072     1   109.8800469 414.216000
   9062   9063   9073     1   109.8800469 414.216000
   9062   9064   9065     1   109.8800469 414.216000
   9062   9064   9067     1   109.8800469 414.216000
   9063   9074   9075     1   109.8000471 387.438400
   9063   9074   9076     1   109.8000471 387.438400
   9064   9066   9068     1   109.8000471 387.438400
   9064   9066   9069     1   109.8000471 387.438400
   9065   9064   9066     1   109.5600471 388.275200
   9065   9064   9067     1   108.4600466 328.025600
   9066   9064   9067     1   109.5600471 388.275200
   9068   9066   9070     1   108.7700466 392.459200
   9068   9066   9069     1   107.5800459 329.699200
   9069   9066   9070     1   108.7700466 392.459200
   9070   9102   9092     1   119.3800509 410.868800
   9072   9063   9074     1   109.5600471 388.275200
   9072   9063   9073     1   108.4600466 328.025600
   9073   9063   9074     1   109.5600471 388.275200
   9075   9074   9077     1   108.7700466 392.459200
   9075   9074   9076     1   107.5800459 329.699200
   9076   9074   9077     1   108.7700466 392.459200
   9077   9126   9116     1   119.3800509 410.868800
   9079   9080   9099     1   109.5600471 388.275200
   9079   9090   9093     1   109.5600471 388.275200
   9079   9090   9094     1   109.5600471 388.275200
   9080   9082   9086     1   109.5600471 388.275200
   9080   9100   9101     1   107.2600461 396.643200
   9080   9079   9081     1   109.5600471 388.275200
   9081   9079   9090     1   109.5600471 388.275200
   9081   9079   9097     1   109.7800468 425.094400
   9082   9083   9085     1   109.5600471 388.275200
   9082   9089   9091     1   107.2600461 396.643200
   9082   9080   9099     1   109.5600471 388.275200
   9083   9084   9087     1   110.2200475 386.601600
   9083   9102   9092     1   109.2900470 396.643200
   9083   9082   9086     1   109.5600471 388.275200
   9084   9088   9098     1   107.2600461 396.643200
   9084   9083   9085     1   109.5600471 388.275200
   9085   9083   9102     1   109.8800469 414.216000
   9086   9082   9089     1   110.2600474 425.931200
   9087   9084   9088     1   109.4300470 427.604800
   9087   9084   9097     1   109.5800467 425.931200
   9090   9095   9096     1   107.2600461 396.643200
   9093   9090   9095     1   110.2600474 425.931200
   9093   9090   9094     1   108.4600466 328.025600
   9094   9090   9095     1   110.2600474 425.931200
   9099   9080   9100     1   110.2600474 425.931200
   9103   9104   9123     1   109.5600471 388.275200
   9103   9114   9117     1   109.5600471 388.275200
   9103   9114   9118     1   109.5600471 388.275200
   9104   9106   9110     1   109.5600471 388.275200
   9104   9124   9125     1   107.2600461 396.643200
   9104   9103   9105     1   109.5600471 388.275200
   9105   9103   9114     1   109.5600471 388.275200
   9105   9103   9121     1   109.7800468 425.094400
   9106   9107   9109     1   109.5600471 388.275200
   9106   9113   9115     1   107.2600461 396.643200
   9106   9104   9123     1   109.5600471 388.275200
   9107   9108   9111     1   110.2200475 386.601600
   9107   9126   9116     1   109.2900470 396.643200
   9107   9106   9110     1   109.5600471 388.275200
   9108   9112   9122     1   107.2600461 396.643200
   9108   9107   9109     1   109.5600471 388.275200
   9109   9107   9126     1   109.8800469 414.216000
   9110   9106   9113     1   110.2600474 425.931200
   9111   9108   9112     1   109.4300470 427.604800
   9111   9108   9121     1   109.5800467 425.931200
   9114   9119   9120     1   107.2600461 396.643200
   9117   9114   9119     1   110.2600474 425.931200
   9117   9114   9118     1   108.4600466 328.025600
   9118   9114   9119     1   110.2600474 425.931200
   9123   9104   9124     1   110.2600474 425.931200
   9127   9129   9130     1   108.8800464 416.726400
   9127   9129   9132     1   108.8800464 416.726400
   9128   9127   9129     1   117.6800502 383.254400
   9129   9131   9133     1   109.5600471 388.275200
   9129   9131   9134     1   109.5600471 388.275200
   9130   9129   9131     1   109.5600471 388.275200
   9130   9129   9132     1   108.4600466 328.025600
   9131   9129   9132     1   109.5600471 388.275200
   9133   9131   9135     1   109.8800469 414.216000
   9133   9131   9134     1   108.4600466 328.025600
   9134   9131   9135     1   109.8800469 414.216000
   9135   9136   9145     1   109.8800469 414.216000
   9135   9136   9146     1   109.8800469 414.216000
   9135   9137   9138     1   109.8800469 414.216000
   9135   9137   9140     1   109.8800469 414.216000
   9136   9147   9148     1   109.8000471 387.438400
   9136   9147   9149     1   109.8000471 387.438400
   9137   9139   9141     1   109.8000471 387.438400
   9137   9139   9142     1   109.8000471 387.438400
   9138   9137   9139     1   109.5600471 388.275200
   9138   9137   9140     1   108.4600466 328.025600
   9139   9137   9140     1   109.5600471 388.275200
   9141   9139   9143     1   108.7700466 392.459200
   9141   9139   9142     1   107.5800459 329.699200
   9142   9139   9143     1   108.7700466 392.459200
   9143   9175   9165     1   119.3800509 410.868800
   9145   9136   9147     1   109.5600471 388.275200
   9145   9136   9146     1   108.4600466 328.025600
   9146   9136   9147     1   109.5600471 388.275200
   9148   9147   9150     1   108.7700466 392.459200
   9148   9147   9149     1   107.5800459 329.699200
   9149   9147   9150     1   108.7700466 392.459200
   9150   9199   9189     1   119.3800509 410.868800
   9152   9153   9172     1   109.5600471 388.275200
   9152   9163   9166     1   109.5600471 388.275200
   9152   9163   9167     1   109.5600471 388.275200
   9153   9152   9154     1   109.5600471 388.275200
   9153   9155   9159     1   109.5600471 388.275200
   9153   9173   9174     1   107.2600461 396.643200
   9154   9152   9163     1   109.5600471 388.275200
   9154   9152   9170     1   109.7800468 425.094400
   9155   9153   9172     1   109.5600471 388.275200
   9155   9156   9158     1   109.5600471 388.275200
   9155   9162   9164     1   107.2600461 396.643200
   9156   9155   9159     1   109.5600471 388.275200
   9156   9157   9160     1   110.2200475 386.601600
   9156   9175   9165     1   109.2900470 396.643200
   9157   9156   9158     1   109.5600471 388.275200
   9157   9161   9171     1   107.2600461 396.643200
   9158   9156   9175     1   109.8800469 414.216000
   9159   9155   9162     1   110.2600474 425.931200
   9160   9157   9161     1   109.4300470 427.604800
   9160   9157   9170     1   109.5800467 425.931200
   9163   9168   9169     1   107.2600461 396.643200
   9166   9163   9168     1   110.2600474 425.931200
   9166   9163   9167     1   108.4600466 328.025600
   9167   9163   9168     1   110.2600474 425.931200
   9172   9153   9173     1   110.2600474 425.931200
   9176   9177   9196     1   109.5600471 388.275200
   9176   9187   9190     1   109.5600471 388.275200
   9176   9187   9191     1   109.5600471 388.275200
   9177   9176   9178     1   109.5600471 388.275200
   9177   9179   9183     1   109.5600471 388.275200
   9177   9197   9198     1   107.2600461 396.643200
   9178   9176   9187     1   109.5600471 388.275200
   9178   9176   9194     1   109.7800468 425.094400
   9179   9177   9196     1   109.5600471 388.275200
   9179   9180   9182     1   109.5600471 388.275200
   9179   9186   9188     1   107.2600461 396.643200
   9180   9179   9183     1   109.5600471 388.275200
   9180   9181   9184     1   110.2200475 386.601600
   9180   9199   9189     1   109.2900470 396.643200
   9181   9180   9182     1   109.5600471 388.275200
   9181   9185   9195     1   107.2600461 396.643200
   9182   9180   9199     1   109.8800469 414.216000
   9183   9179   9186     1   110.2600474 425.931200
   9184   9181   9185     1   109.4300470 427.604800
   9184   9181   9194     1   109.5800467 425.931200
   9187   9192   9193     1   107.2600461 396.643200
   9190   9187   9192     1   110.2600474 425.931200
   9190   9187   9191     1   108.4600466 328.025600
   9191   9187   9192     1   110.2600474 425.931200
   9196   9177   9197     1   110.2600474 425.931200
   9200   9202   9203     1   108.8800464 416.726400
   9200   9202   9205     1   108.8800464 416.726400
   9201   9200   9202     1   117.6800502 383.254400
   9202   9204   9206     1   109.5600471 388.275200
   9202   9204   9207     1   109.5600471 388.275200
   9203   9202   9204     1   109.5600471 388.275200
   9203   9202   9205     1   108.4600466 328.025600
   9204   9202   9205     1   109.5600471 388.275200
   9206   9204   9208     1   109.8800469 414.216000
   9206   9204   9207     1   108.4600466 328.025600
   9207   9204   9208     1   109.8800469 414.216000
   9208   9209   9218     1   109.8800469 414.216000
   9208   9209   9219     1   109.8800469 414.216000
   9208   9210   9211     1   109.8800469 414.216000
   9208   9210   9213     1   109.8800469 414.216000
   9209   9220   9221     1   109.8000471 387.438400
   9209   9220   9222     1   109.8000471 387.438400
   9210   9212   9214     1   109.8000471 387.438400
   9210   9212   9215     1   109.8000471 387.438400
   9211   9210   9212     1   109.5600471 388.275200
   9211   9210   9213     1   108.4600466 328.025600
   9212   9210   9213     1   109.5600471 388.275200
   9214   9212   9216     1   108.7700466 392.459200
   9214   9212   9215     1   107.5800459 329.699200
   9215   9212   9216     1   108.7700466 392.459200
   9216   9248   9238     1   119.3800509 410.868800
   9218   9209   9220     1   109.5600471 388.275200
   9218   9209   9219     1   108.4600466 328.025600
   9219   9209   9220     1   109.5600471 388.275200
   9221   9220   9223     1   108.7700466 392.459200
   9221   9220   9222     1   107.5800459 329.699200
   9222   9220   9223     1   108.7700466 392.459200
   9223   9272   9262     1   119.3800509 410.868800
   9225   9226   9245     1   109.5600471 388.275200
   9225   9236   9239     1   109.5600471 388.275200
   9225   9236   9240     1   109.5600471 388.275200
   9226   9228   9232     1   109.5600471 388.275200
   9226   9246   9247     1   107.2600461 396.643200
   9226   9225   9227     1   109.5600471 388.275200
   9227   9225   9236     1   109.5600471 388.275200
   9227   9225   9243     1   109.7800468 425.094400
   9228   9229   9231     1   109.5600471 388.275200
   9228   9235   9237     1   107.2600461 396.643200
   9228   9226   9245     1   109.5600471 388.275200
   9229   9230   9233     1   110.2200475 386.601600
   9229   9248   9238     1   109.2900470 396.643200
   9229   9228   9232     1   109.5600471 388.275200
   9230   9234   9244     1   107.2600461 396.643200
   9230   9229   9231     1   109.5600471 388.275200
   9231   9229   9248     1   109.8800469 414.216000
   9232   9228   9235     1   110.2600474 425.931200
   9233   9230   9234     1   109.4300470 427.604800
   9233   9230   9243     1   109.5800467 425.931200
   9236   9241   9242     1   107.2600461 396.643200
   9239   9236   9241     1   110.2600474 425.931200
   9239   9236   9240     1   108.4600466 328.025600
   9240   9236   9241     1   110.2600474 425.931200
   9245   9226   9246     1   110.2600474 425.931200
   9249   9250   9269     1   109.5600471 388.275200
   9249   9260   9263     1   109.5600471 388.275200
   9249   9260   9264     1   109.5600471 388.275200
   9250   9252   9256     1   109.5600471 388.275200
   9250   9270   9271     1   107.2600461 396.643200
   9250   9249   9251     1   109.5600471 388.275200
   9251   9249   9260     1   109.5600471 388.275200
   9251   9249   9267     1   109.7800468 425.094400
   9252   9253   9255     1   109.5600471 388.275200
   9252   9259   9261     1   107.2600461 396.643200
   9252   9250   9269     1   109.5600471 388.275200
   9253   9254   9257     1   110.2200475 386.601600
   9253   9272   9262     1   109.2900470 396.643200
   9253   9252   9256     1   109.5600471 388.275200
   9254   9258   9268     1   107.2600461 396.643200
   9254   9253   9255     1   109.5600471 388.275200
   9255   9253   9272     1   109.8800469 414.216000
   9256   9252   9259     1   110.2600474 425.931200
   9257   9254   9258     1   109.4300470 427.604800
   9257   9254   9267     1   109.5800467 425.931200
   9260   9265   9266     1   107.2600461 396.643200
   9263   9260   9265     1   110.2600474 425.931200
   9263   9260   9264     1   108.4600466 328.025600
   9264   9260   9265     1   110.2600474 425.931200
   9269   9250   9270     1   110.2600474 425.931200
   9273   9275   9276     1   108.8800464 416.726400
   9273   9275   9278     1   108.8800464 416.726400
   9274   9273   9275     1   117.6800502 383.254400
   9275   9277   9279     1   109.5600471 388.275200
   9275   9277   9280     1   109.5600471 388.275200
   9276   9275   9277     1   109.5600471 388.275200
   9276   9275   9278     1   108.4600466 328.025600
   9277   9275   9278     1   109.5600471 388.275200
   9279   9277   9281     1   109.8800469 414.216000
   9279   9277   9280     1   108.4600466 328.025600
   9280   9277   9281     1   109.8800469 414.216000
   9281   9282   9291     1   109.8800469 414.216000
   9281   9282   9292     1   109.8800469 414.216000
   9281   9283   9284     1   109.8800469 414.216000
   9281   9283   9286     1   109.8800469 414.216000
   9282   9293   9294     1   109.8000471 387.438400
   9282   9293   9295     1   109.8000471 387.438400
   9283   9285   9287     1   109.8000471 387.438400
   9283   9285   9288     1   109.8000471 387.438400
   9284   9283   9285     1   109.5600471 388.275200
   9284   9283   9286     1   108.4600466 328.025600
   9285   9283   9286     1   109.5600471 388.275200
   9287   9285   9289     1   108.7700466 392.459200
   9287   9285   9288     1   107.5800459 329.699200
   9288   9285   9289     1   108.7700466 392.459200
   9289   9321   9311     1   119.3800509 410.868800
   9291   9282   9293     1   109.5600471 388.275200
   9291   9282   9292     1   108.4600466 328.025600
   9292   9282   9293     1   109.5600471 388.275200
   9294   9293   9296     1   108.7700466 392.459200
   9294   9293   9295     1   107.5800459 329.699200
   9295   9293   9296     1   108.7700466 392.459200
   9296   9345   9335     1   119.3800509 410.868800
   9298   9299   9318     1   109.5600471 388.275200
   9298   9309   9312     1   109.5600471 388.275200
   9298   9309   9313     1   109.5600471 388.275200
   9299   9298   9300     1   109.5600471 388.275200
   9299   9301   9305     1   109.5600471 388.275200
   9299   9319   9320     1   107.2600461 396.643200
   9300   9298   9309     1   109.5600471 388.275200
   9300   9298   9316     1   109.7800468 425.094400
   9301   9299   9318     1   109.5600471 388.275200
   9301   9302   9304     1   109.5600471 388.275200
   9301   9308   9310     1   107.2600461 396.643200
   9302   9301   9305     1   109.5600471 388.275200
   9302   9303   9306     1   110.2200475 386.601600
   9302   9321   9311     1   109.2900470 396.643200
   9303   9302   9304     1   109.5600471 388.275200
   9303   9307   9317     1   107.2600461 396.643200
   9304   9302   9321     1   109.8800469 414.216000
   9305   9301   9308     1   110.2600474 425.931200
   9306   9303   9307     1   109.4300470 427.604800
   9306   9303   9316     1   109.5800467 425.931200
   9309   9314   9315     1   107.2600461 396.643200
   9312   9309   9314     1   110.2600474 425.931200
   9312   9309   9313     1   108.4600466 328.025600
   9313   9309   9314     1   110.2600474 425.931200
   9318   9299   9319     1   110.2600474 425.931200
   9322   9323   9342     1   109.5600471 388.275200
   9322   9333   9336     1   109.5600471 388.275200
   9322   9333   9337     1   109.5600471 388.275200
   9323   9322   9324     1   109.5600471 388.275200
   9323   9325   9329     1   109.5600471 388.275200
   9323   9343   9344     1   107.2600461 396.643200
   9324   9322   9333     1   109.5600471 388.275200
   9324   9322   9340     1   109.7800468 425.094400
   9325   9323   9342     1   109.5600471 388.275200
   9325   9326   9328     1   109.5600471 388.275200
   9325   9332   9334     1   107.2600461 396.643200
   9326   9325   9329     1   109.5600471 388.275200
   9326   9327   9330     1   110.2200475 386.601600
   9326   9345   9335     1   109.2900470 396.643200
   9327   9326   9328     1   109.5600471 388.275200
   9327   9331   9341     1   107.2600461 396.643200
   9328   9326   9345     1   109.8800469 414.216000
   9329   9325   9332     1   110.2600474 425.931200
   9330   9327   9331     1   109.4300470 427.604800
   9330   9327   9340     1   109.5800467 425.931200
   9333   9338   9339     1   107.2600461 396.643200
   9336   9333   9338     1   110.2600474 425.931200
   9336   9333   9337     1   108.4600466 328.025600
   9337   9333   9338     1   110.2600474 425.931200
   9342   9323   9343     1   110.2600474 425.931200
   9346   9348   9349     1   108.8800464 416.726400
   9346   9348   9351     1   108.8800464 416.726400
   9347   9346   9348     1   117.6800502 383.254400
   9348   9350   9352     1   109.5600471 388.275200
   9348   9350   9353     1   109.5600471 388.275200
   9349   9348   9350     1   109.5600471 388.275200
   9349   9348   9351     1   108.4600466 328.025600
   9350   9348   9351     1   109.5600471 388.275200
   9352   9350   9354     1   109.8800469 414.216000
   9352   9350   9353     1   108.4600466 328.025600
   9353   9350   9354     1   109.8800469 414.216000
   9354   9355   9364     1   109.8800469 414.216000
   9354   9355   9365     1   109.8800469 414.216000
   9354   9356   9357     1   109.8800469 414.216000
   9354   9356   9359     1   109.8800469 414.216000
   9355   9366   9367     1   109.8000471 387.438400
   9355   9366   9368     1   109.8000471 387.438400
   9356   9358   9360     1   109.8000471 387.438400
   9356   9358   9361     1   109.8000471 387.438400
   9357   9356   9358     1   109.5600471 388.275200
   9357   9356   9359     1   108.4600466 328.025600
   9358   9356   9359     1   109.5600471 388.275200
   9360   9358   9362     1   108.7700466 392.459200
   9360   9358   9361     1   107.5800459 329.699200
   9361   9358   9362     1   108.7700466 392.459200
   9362   9394   9384     1   119.3800509 410.868800
   9364   9355   9366     1   109.5600471 388.275200
   9364   9355   9365     1   108.4600466 328.025600
   9365   9355   9366     1   109.5600471 388.275200
   9367   9366   9369     1   108.7700466 392.459200
   9367   9366   9368     1   107.5800459 329.699200
   9368   9366   9369     1   108.7700466 392.459200
   9369   9418   9408     1   119.3800509 410.868800
   9371   9372   9391     1   109.5600471 388.275200
   9371   9382   9385     1   109.5600471 388.275200
   9371   9382   9386     1   109.5600471 388.275200
   9372   9374   9378     1   109.5600471 388.275200
   9372   9392   9393     1   107.2600461 396.643200
   9372   9371   9373     1   109.5600471 388.275200
   9373   9371   9382     1   109.5600471 388.275200
   9373   9371   9389     1   109.7800468 425.094400
   9374   9375   9377     1   109.5600471 388.275200
   9374   9381   9383     1   107.2600461 396.643200
   9374   9372   9391     1   109.5600471 388.275200
   9375   9376   9379     1   110.2200475 386.601600
   9375   9394   9384     1   109.2900470 396.643200
   9375   9374   9378     1   109.5600471 388.275200
   9376   9380   9390     1   107.2600461 396.643200
   9376   9375   9377     1   109.5600471 388.275200
   9377   9375   9394     1   109.8800469 414.216000
   9378   9374   9381     1   110.2600474 425.931200
   9379   9376   9380     1   109.4300470 427.604800
   9379   9376   9389     1   109.5800467 425.931200
   9382   9387   9388     1   107.2600461 396.643200
   9385   9382   9387     1   110.2600474 425.931200
   9385   9382   9386     1   108.4600466 328.025600
   9386   9382   9387     1   110.2600474 425.931200
   9391   9372   9392     1   110.2600474 425.931200
   9395   9396   9415     1   109.5600471 388.275200
   9395   9406   9409     1   109.5600471 388.275200
   9395   9406   9410     1   109.5600471 388.275200
   9396   9398   9402     1   109.5600471 388.275200
   9396   9416   9417     1   107.2600461 396.643200
   9396   9395   9397     1   109.5600471 388.275200
   9397   9395   9406     1   109.5600471 388.275200
   9397   9395   9413     1   109.7800468 425.094400
   9398   9399   9401     1   109.5600471 388.275200
   9398   9405   9407     1   107.2600461 396.643200
   9398   9396   9415     1   109.5600471 388.275200
   9399   9400   9403     1   110.2200475 386.601600
   9399   9418   9408     1   109.2900470 396.643200
   9399   9398   9402     1   109.5600471 388.275200
   9400   9404   9414     1   107.2600461 396.643200
   9400   9399   9401     1   109.5600471 388.275200
   9401   9399   9418     1   109.8800469 414.216000
   9402   9398   9405     1   110.2600474 425.931200
   9403   9400   9404     1   109.4300470 427.604800
   9403   9400   9413     1   109.5800467 425.931200
   9406   9411   9412     1   107.2600461 396.643200
   9409   9406   9411     1   110.2600474 425.931200
   9409   9406   9410     1   108.4600466 328.025600
   9410   9406   9411     1   110.2600474 425.931200
   9415   9396   9416     1   110.2600474 425.931200
   9419   9421   9422     1   108.8800464 416.726400
   9419   9421   9424     1   108.8800464 416.726400
   9420   9419   9421     1   117.6800502 383.254400
   9421   9423   9425     1   109.5600471 388.275200
   9421   9423   9426     1   109.5600471 388.275200
   9422   9421   9423     1   109.5600471 388.275200
   9422   9421   9424     1   108.4600466 328.025600
   9423   9421   9424     1   109.5600471 388.275200
   9425   9423   9427     1   109.8800469 414.216000
   9425   9423   9426     1   108.4600466 328.025600
   9426   9423   9427     1   109.8800469 414.216000
   9427   9428   9437     1   109.8800469 414.216000
   9427   9428   9438     1   109.8800469 414.216000
   9427   9429   9430     1   109.8800469 414.216000
   9427   9429   9432     1   109.8800469 414.216000
   9428   9439   9440     1   109.8000471 387.438400
   9428   9439   9441     1   109.8000471 387.438400
   9429   9431   9433     1   109.8000471 387.438400
   9429   9431   9434     1   109.8000471 387.438400
   9430   9429   9431     1   109.5600471 388.275200
   9430   9429   9432     1   108.4600466 328.025600
   9431   9429   9432     1   109.5600471 388.275200
   9433   9431   9435     1   108.7700466 392.459200
   9433   9431   9434     1   107.5800459 329.699200
   9434   9431   9435     1   108.7700466 392.459200
   9435   9467   9457     1   119.3800509 410.868800
   9437   9428   9439     1   109.5600471 388.275200
   9437   9428   9438     1   108.4600466 328.025600
   9438   9428   9439     1   109.5600471 388.275200
   9440   9439   9442     1   108.7700466 392.459200
   9440   9439   9441     1   107.5800459 329.699200
   9441   9439   9442     1   108.7700466 392.459200
   9442   9491   9481     1   119.3800509 410.868800
   9444   9445   9464     1   109.5600471 388.275200
   9444   9455   9458     1   109.5600471 388.275200
   9444   9455   9459     1   109.5600471 388.275200
   9445   9444   9446     1   109.5600471 388.275200
   9445   9447   9451     1   109.5600471 388.275200
   9445   9465   9466     1   107.2600461 396.643200
   9446   9444   9455     1   109.5600471 388.275200
   9446   9444   9462     1   109.7800468 425.094400
   9447   9445   9464     1   109.5600471 388.275200
   9447   9448   9450     1   109.5600471 388.275200
   9447   9454   9456     1   107.2600461 396.643200
   9448   9447   9451     1   109.5600471 388.275200
   9448   9449   9452     1   110.2200475 386.601600
   9448   9467   9457     1   109.2900470 396.643200
   9449   9448   9450     1   109.5600471 388.275200
   9449   9453   9463     1   107.2600461 396.643200
   9450   9448   9467     1   109.8800469 414.216000
   9451   9447   9454     1   110.2600474 425.931200
   9452   9449   9453     1   109.4300470 427.604800
   9452   9449   9462     1   109.5800467 425.931200
   9455   9460   9461     1   107.2600461 396.643200
   9458   9455   9460     1   110.2600474 425.931200
   9458   9455   9459     1   108.4600466 328.025600
   9459   9455   9460     1   110.2600474 425.931200
   9464   9445   9465     1   110.2600474 425.931200
   9468   9469   9488     1   109.5600471 388.275200
   9468   9479   9482     1   109.5600471 388.275200
   9468   9479   9483     1   109.5600471 388.275200
   9469   9468   9470     1   109.5600471 388.275200
   9469   9471   9475     1   109.5600471 388.275200
   9469   9489   9490     1   107.2600461 396.643200
   9470   9468   9479     1   109.5600471 388.275200
   9470   9468   9486     1   109.7800468 425.094400
   9471   9469   9488     1   109.5600471 388.275200
   9471   9472   9474     1   109.5600471 388.275200
   9471   9478   9480     1   107.2600461 396.643200
   9472   9471   9475     1   109.5600471 388.275200
   9472   9473   9476     1   110.2200475 386.601600
   9472   9491   9481     1   109.2900470 396.643200
   9473   9472   9474     1   109.5600471 388.275200
   9473   9477   9487     1   107.2600461 396.643200
   9474   9472   9491     1   109.8800469 414.216000
   9475   9471   9478     1   110.2600474 425.931200
   9476   9473   9477     1   109.4300470 427.604800
   9476   9473   9486     1   109.5800467 425.931200
   9479   9484   9485     1   107.2600461 396.643200
   9482   9479   9484     1   110.2600474 425.931200
   9482   9479   9483     1   108.4600466 328.025600
   9483   9479   9484     1   110.2600474 425.931200
   9488   9469   9489     1   110.2600474 425.931200
   9492   9494   9495     1   108.8800464 416.726400
   9492   9494   9497     1   108.8800464 416.726400
   9493   9492   9494     1   117.6800502 383.254400
   9494   9496   9498     1   109.5600471 388.275200
   9494   9496   9499     1   109.5600471 388.275200
   9495   9494   9496     1   109.5600471 388.275200
   9495   9494   9497     1   108.4600466 328.025600
   9496   9494   9497     1   109.5600471 388.275200
   9498   9496   9500     1   109.8800469 414.216000
   9498   9496   9499     1   108.4600466 328.025600
   9499   9496   9500     1   109.8800469 414.216000
   9500   9501   9510     1   109.8800469 414.216000
   9500   9501   9511     1   109.8800469 414.216000
   9500   9502   9503     1   109.8800469 414.216000
   9500   9502   9505     1   109.8800469 414.216000
   9501   9512   9513     1   109.8000471 387.438400
   9501   9512   9514     1   109.8000471 387.438400
   9502   9504   9506     1   109.8000471 387.438400
   9502   9504   9507     1   109.8000471 387.438400
   9503   9502   9504     1   109.5600471 388.275200
   9503   9502   9505     1   108.4600466 328.025600
   9504   9502   9505     1   109.5600471 388.275200
   9506   9504   9508     1   108.7700466 392.459200
   9506   9504   9507     1   107.5800459 329.699200
   9507   9504   9508     1   108.7700466 392.459200
   9508   9540   9530     1   119.3800509 410.868800
   9510   9501   9512     1   109.5600471 388.275200
   9510   9501   9511     1   108.4600466 328.025600
   9511   9501   9512     1   109.5600471 388.275200
   9513   9512   9515     1   108.7700466 392.459200
   9513   9512   9514     1   107.5800459 329.699200
   9514   9512   9515     1   108.7700466 392.459200
   9515   9564   9554     1   119.3800509 410.868800
   9517   9518   9537     1   109.5600471 388.275200
   9517   9528   9531     1   109.5600471 388.275200
   9517   9528   9532     1   109.5600471 388.275200
   9518   9520   9524     1   109.5600471 388.275200
   9518   9538   9539     1   107.2600461 396.643200
   9518   9517   9519     1   109.5600471 388.275200
   9519   9517   9528     1   109.5600471 388.275200
   9519   9517   9535     1   109.7800468 425.094400
   9520   9521   9523     1   109.5600471 388.275200
   9520   9527   9529     1   107.2600461 396.643200
   9520   9518   9537     1   109.5600471 388.275200
   9521   9522   9525     1   110.2200475 386.601600
   9521   9540   9530     1   109.2900470 396.643200
   9521   9520   9524     1   109.5600471 388.275200
   9522   9526   9536     1   107.2600461 396.643200
   9522   9521   9523     1   109.5600471 388.275200
   9523   9521   9540     1   109.8800469 414.216000
   9524   9520   9527     1   110.2600474 425.931200
   9525   9522   9526     1   109.4300470 427.604800
   9525   9522   9535     1   109.5800467 425.931200
   9528   9533   9534     1   107.2600461 396.643200
   9531   9528   9533     1   110.2600474 425.931200
   9531   9528   9532     1   108.4600466 328.025600
   9532   9528   9533     1   110.2600474 425.931200
   9537   9518   9538     1   110.2600474 425.931200
   9541   9542   9561     1   109.5600471 388.275200
   9541   9552   9555     1   109.5600471 388.275200
   9541   9552   9556     1   109.5600471 388.275200
   9542   9544   9548     1   109.5600471 388.275200
   9542   9562   9563     1   107.2600461 396.643200
   9542   9541   9543     1   109.5600471 388.275200
   9543   9541   9552     1   109.5600471 388.275200
   9543   9541   9559     1   109.7800468 425.094400
   9544   9545   9547     1   109.5600471 388.275200
   9544   9551   9553     1   107.2600461 396.643200
   9544   9542   9561     1   109.5600471 388.275200
   9545   9546   9549     1   110.2200475 386.601600
   9545   9564   9554     1   109.2900470 396.643200
   9545   9544   9548     1   109.5600471 388.275200
   9546   9550   9560     1   107.2600461 396.643200
   9546   9545   9547     1   109.5600471 388.275200
   9547   9545   9564     1   109.8800469 414.216000
   9548   9544   9551     1   110.2600474 425.931200
   9549   9546   9550     1   109.4300470 427.604800
   9549   9546   9559     1   109.5800467 425.931200
   9552   9557   9558     1   107.2600461 396.643200
   9555   9552   9557     1   110.2600474 425.931200
   9555   9552   9556     1   108.4600466 328.025600
   9556   9552   9557     1   110.2600474 425.931200
   9561   9542   9562     1   110.2600474 425.931200
   9565   9567   9568     1   108.8800464 416.726400
   9565   9567   9570     1   108.8800464 416.726400
   9566   9565   9567     1   117.6800502 383.254400
   9567   9569   9571     1   109.5600471 388.275200
   9567   9569   9572     1   109.5600471 388.275200
   9568   9567   9569     1   109.5600471 388.275200
   9568   9567   9570     1   108.4600466 328.025600
   9569   9567   9570     1   109.5600471 388.275200
   9571   9569   9573     1   109.8800469 414.216000
   9571   9569   9572     1   108.4600466 328.025600
   9572   9569   9573     1   109.8800469 414.216000
   9573   9574   9583     1   109.8800469 414.216000
   9573   9574   9584     1   109.8800469 414.216000
   9573   9575   9576     1   109.8800469 414.216000
   9573   9575   9578     1   109.8800469 414.216000
   9574   9585   9586     1   109.8000471 387.438400
   9574   9585   9587     1   109.8000471 387.438400
   9575   9577   9579     1   109.8000471 387.438400
   9575   9577   9580     1   109.8000471 387.438400
   9576   9575   9577     1   109.5600471 388.275200
   9576   9575   9578     1   108.4600466 328.025600
   9577   9575   9578     1   109.5600471 388.275200
   9579   9577   9581     1   108.7700466 392.459200
   9579   9577   9580     1   107.5800459 329.699200
   9580   9577   9581     1   108.7700466 392.459200
   9581   9613   9603     1   119.3800509 410.868800
   9583   9574   9585     1   109.5600471 388.275200
   9583   9574   9584     1   108.4600466 328.025600
   9584   9574   9585     1   109.5600471 388.275200
   9586   9585   9588     1   108.7700466 392.459200
   9586   9585   9587     1   107.5800459 329.699200
   9587   9585   9588     1   108.7700466 392.459200
   9588   9637   9627     1   119.3800509 410.868800
   9590   9591   9610     1   109.5600471 388.275200
   9590   9601   9604     1   109.5600471 388.275200
   9590   9601   9605     1   109.5600471 388.275200
   9591   9590   9592     1   109.5600471 388.275200
   9591   9593   9597     1   109.5600471 388.275200
   9591   9611   9612     1   107.2600461 396.643200
   9592   9590   9601     1   109.5600471 388.275200
   9592   9590   9608     1   109.7800468 425.094400
   9593   9591   9610     1   109.5600471 388.275200
   9593   9594   9596     1   109.5600471 388.275200
   9593   9600   9602     1   107.2600461 396.643200
   9594   9593   9597     1   109.5600471 388.275200
   9594   9595   9598     1   110.2200475 386.601600
   9594   9613   9603     1   109.2900470 396.643200
   9595   9594   9596     1   109.5600471 388.275200
   9595   9599   9609     1   107.2600461 396.643200
   9596   9594   9613     1   109.8800469 414.216000
   9597   9593   9600     1   110.2600474 425.931200
   9598   9595   9599     1   109.4300470 427.604800
   9598   9595   9608     1   109.5800467 425.931200
   9601   9606   9607     1   107.2600461 396.643200
   9604   9601   9606     1   110.2600474 425.931200
   9604   9601   9605     1   108.4600466 328.025600
   9605   9601   9606     1   110.2600474 425.931200
   9610   9591   9611     1   110.2600474 425.931200
   9614   9615   9634     1   109.5600471 388.275200
   9614   9625   9628     1   109.5600471 388.275200
   9614   9625   9629     1   109.5600471 388.275200
   9615   9614   9616     1   109.5600471 388.275200
   9615   9617   9621     1   109.5600471 388.275200
   9615   9635   9636     1   107.2600461 396.643200
   9616   9614   9625     1   109.5600471 388.275200
   9616   9614   9632     1   109.7800468 425.094400
   9617   9615   9634     1   109.5600471 388.275200
   9617   9618   9620     1   109.5600471 388.275200
   9617   9624   9626     1   107.2600461 396.643200
   9618   9617   9621     1   109.5600471 388.275200
   9618   9619   9622     1   110.2200475 386.601600
   9618   9637   9627     1   109.2900470 396.643200
   9619   9618   9620     1   109.5600471 388.275200
   9619   9623   9633     1   107.2600461 396.643200
   9620   9618   9637     1   109.8800469 414.216000
   9621   9617   9624     1   110.2600474 425.931200
   9622   9619   9623     1   109.4300470 427.604800
   9622   9619   9632     1   109.5800467 425.931200
   9625   9630   9631     1   107.2600461 396.643200
   9628   9625   9630     1   110.2600474 425.931200
   9628   9625   9629     1   108.4600466 328.025600
   9629   9625   9630     1   110.2600474 425.931200
   9634   9615   9635     1   110.2600474 425.931200
   9638   9640   9641     1   108.8800464 416.726400
   9638   9640   9643     1   108.8800464 416.726400
   9639   9638   9640     1   117.6800502 383.254400
   9640   9642   9644     1   109.5600471 388.275200
   9640   9642   9645     1   109.5600471 388.275200
   9641   9640   9642     1   109.5600471 388.275200
   9641   9640   9643     1   108.4600466 328.025600
   9642   9640   9643     1   109.5600471 388.275200
   9644   9642   9646     1   109.8800469 414.216000
   9644   9642   9645     1   108.4600466 328.025600
   9645   9642   9646     1   109.8800469 414.216000
   9646   9647   9656     1   109.8800469 414.216000
   9646   9647   9657     1   109.8800469 414.216000
   9646   9648   9649     1   109.8800469 414.216000
   9646   9648   9651     1   109.8800469 414.216000
   9647   9658   9659     1   109.8000471 387.438400
   9647   9658   9660     1   109.8000471 387.438400
   9648   9650   9652     1   109.8000471 387.438400
   9648   9650   9653     1   109.8000471 387.438400
   9649   9648   9650     1   109.5600471 388.275200
   9649   9648   9651     1   108.4600466 328.025600
   9650   9648   9651     1   109.5600471 388.275200
   9652   9650   9654     1   108.7700466 392.459200
   9652   9650   9653     1   107.5800459 329.699200
   9653   9650   9654     1   108.7700466 392.459200
   9654   9686   9676     1   119.3800509 410.868800
   9656   9647   9658     1   109.5600471 388.275200
   9656   9647   9657     1   108.4600466 328.025600
   9657   9647   9658     1   109.5600471 388.275200
   9659   9658   9661     1   108.7700466 392.459200
   9659   9658   9660     1   107.5800459 329.699200
   9660   9658   9661     1   108.7700466 392.459200
   9661   9710   9700     1   119.3800509 410.868800
   9663   9664   9683     1   109.5600471 388.275200
   9663   9674   9677     1   109.5600471 388.275200
   9663   9674   9678     1   109.5600471 388.275200
   9664   9666   9670     1   109.5600471 388.275200
   9664   9684   9685     1   107.2600461 396.643200
   9664   9663   9665     1   109.5600471 388.275200
   9665   9663   9674     1   109.5600471 388.275200
   9665   9663   9681     1   109.7800468 425.094400
   9666   9667   9669     1   109.5600471 388.275200
   9666   9673   9675     1   107.2600461 396.643200
   9666   9664   9683     1   109.5600471 388.275200
   9667   9668   9671     1   110.2200475 386.601600
   9667   9686   9676     1   109.2900470 396.643200
   9667   9666   9670     1   109.5600471 388.275200
   9668   9672   9682     1   107.2600461 396.643200
   9668   9667   9669     1   109.5600471 388.275200
   9669   9667   9686     1   109.8800469 414.216000
   9670   9666   9673     1   110.2600474 425.931200
   9671   9668   9672     1   109.4300470 427.604800
   9671   9668   9681     1   109.5800467 425.931200
   9674   9679   9680     1   107.2600461 396.643200
   9677   9674   9679     1   110.2600474 425.931200
   9677   9674   9678     1   108.4600466 328.025600
   9678   9674   9679     1   110.2600474 425.931200
   9683   9664   9684     1   110.2600474 425.931200
   9687   9688   9707     1   109.5600471 388.275200
   9687   9698   9701     1   109.5600471 388.275200
   9687   9698   9702     1   109.5600471 388.275200
   9688   9690   9694     1   109.5600471 388.275200
   9688   9708   9709     1   107.2600461 396.643200
   9688   9687   9689     1   109.5600471 388.275200
   9689   9687   9698     1   109.5600471 388.275200
   9689   9687   9705     1   109.7800468 425.094400
   9690   9691   9693     1   109.5600471 388.275200
   9690   9697   9699     1   107.2600461 396.643200
   9690   9688   9707     1   109.5600471 388.275200
   9691   9692   9695     1   110.2200475 386.601600
   9691   9710   9700     1   109.2900470 396.643200
   9691   9690   9694     1   109.5600471 388.275200
   9692   9696   9706     1   107.2600461 396.643200
   9692   9691   9693     1   109.5600471 388.275200
   9693   9691   9710     1   109.8800469 414.216000
   9694   9690   9697     1   110.2600474 425.931200
   9695   9692   9696     1   109.4300470 427.604800
   9695   9692   9705     1   109.5800467 425.931200
   9698   9703   9704     1   107.2600461 396.643200
   9701   9698   9703     1   110.2600474 425.931200
   9701   9698   9702     1   108.4600466 328.025600
   9702   9698   9703     1   110.2600474 425.931200
   9707   9688   9708     1   110.2600474 425.931200
   9711   9713   9714     1   108.8800464 416.726400
   9711   9713   9716     1   108.8800464 416.726400
   9712   9711   9713     1   117.6800502 383.254400
   9713   9715   9717     1   109.5600471 388.275200
   9713   9715   9718     1   109.5600471 388.275200
   9714   9713   9715     1   109.5600471 388.275200
   9714   9713   9716     1   108.4600466 328.025600
   9715   9713   9716     1   109.5600471 388.275200
   9717   9715   9719     1   109.8800469 414.216000
   9717   9715   9718     1   108.4600466 328.025600
   9718   9715   9719     1   109.8800469 414.216000
   9719   9720   9729     1   109.8800469 414.216000
   9719   9720   9730     1   109.8800469 414.216000
   9719   9721   9722     1   109.8800469 414.216000
   9719   9721   9724     1   109.8800469 414.216000
   9720   9731   9732     1   109.8000471 387.438400
   9720   9731   9733     1   109.8000471 387.438400
   9721   9723   9725     1   109.8000471 387.438400
   9721   9723   9726     1   109.8000471 387.438400
   9722   9721   9723     1   109.5600471 388.275200
   9722   9721   9724     1   108.4600466 328.025600
   9723   9721   9724     1   109.5600471 388.275200
   9725   9723   9727     1   108.7700466 392.459200
   9725   9723   9726     1   107.5800459 329.699200
   9726   9723   9727     1   108.7700466 392.459200
   9727   9759   9749     1   119.3800509 410.868800
   9729   9720   9731     1   109.5600471 388.275200
   9729   9720   9730     1   108.4600466 328.025600
   9730   9720   9731     1   109.5600471 388.275200
   9732   9731   9734     1   108.7700466 392.459200
   9732   9731   9733     1   107.5800459 329.699200
   9733   9731   9734     1   108.7700466 392.459200
   9734   9783   9773     1   119.3800509 410.868800
   9736   9737   9756     1   109.5600471 388.275200
   9736   9747   9750     1   109.5600471 388.275200
   9736   9747   9751     1   109.5600471 388.275200
   9737   9736   9738     1   109.5600471 388.275200
   9737   9739   9743     1   109.5600471 388.275200
   9737   9757   9758     1   107.2600461 396.643200
   9738   9736   9747     1   109.5600471 388.275200
   9738   9736   9754     1   109.7800468 425.094400
   9739   9737   9756     1   109.5600471 388.275200
   9739   9740   9742     1   109.5600471 388.275200
   9739   9746   9748     1   107.2600461 396.643200
   9740   9739   9743     1   109.5600471 388.275200
   9740   9741   9744     1   110.2200475 386.601600
   9740   9759   9749     1   109.2900470 396.643200
   9741   9740   9742     1   109.5600471 388.275200
   9741   9745   9755     1   107.2600461 396.643200
   9742   9740   9759     1   109.8800469 414.216000
   9743   9739   9746     1   110.2600474 425.931200
   9744   9741   9745     1   109.4300470 427.604800
   9744   9741   9754     1   109.5800467 425.931200
   9747   9752   9753     1   107.2600461 396.643200
   9750   9747   9752     1   110.2600474 425.931200
   9750   9747   9751     1   108.4600466 328.025600
   9751   9747   9752     1   110.2600474 425.931200
   9756   9737   9757     1   110.2600474 425.931200
   9760   9761   9780     1   109.5600471 388.275200
   9760   9771   9774     1   109.5600471 388.275200
   9760   9771   9775     1   109.5600471 388.275200
   9761   9760   9762     1   109.5600471 388.275200
   9761   9763   9767     1   109.5600471 388.275200
   9761   9781   9782     1   107.2600461 396.643200
   9762   9760   9771     1   109.5600471 388.275200
   9762   9760   9778     1   109.7800468 425.094400
   9763   9761   9780     1   109.5600471 388.275200
   9763   9764   9766     1   109.5600471 388.275200
   9763   9770   9772     1   107.2600461 396.643200
   9764   9763   9767     1   109.5600471 388.275200
   9764   9765   9768     1   110.2200475 386.601600
   9764   9783   9773     1   109.2900470 396.643200
   9765   9764   9766     1   109.5600471 388.275200
   9765   9769   9779     1   107.2600461 396.643200
   9766   9764   9783     1   109.8800469 414.216000
   9767   9763   9770     1   110.2600474 425.931200
   9768   9765   9769     1   109.4300470 427.604800
   9768   9765   9778     1   109.5800467 425.931200
   9771   9776   9777     1   107.2600461 396.643200
   9774   9771   9776     1   110.2600474 425.931200
   9774   9771   9775     1   108.4600466 328.025600
   9775   9771   9776     1   110.2600474 425.931200
   9780   9761   9781     1   110.2600474 425.931200
   9784   9786   9787     1   108.8800464 416.726400
   9784   9786   9789     1   108.8800464 416.726400
   9785   9784   9786     1   117.6800502 383.254400
   9786   9788   9790     1   109.5600471 388.275200
   9786   9788   9791     1   109.5600471 388.275200
   9787   9786   9788     1   109.5600471 388.275200
   9787   9786   9789     1   108.4600466 328.025600
   9788   9786   9789     1   109.5600471 388.275200
   9790   9788   9792     1   109.8800469 414.216000
   9790   9788   9791     1   108.4600466 328.025600
   9791   9788   9792     1   109.8800469 414.216000
   9792   9793   9802     1   109.8800469 414.216000
   9792   9793   9803     1   109.8800469 414.216000
   9792   9794   9795     1   109.8800469 414.216000
   9792   9794   9797     1   109.8800469 414.216000
   9793   9804   9805     1   109.8000471 387.438400
   9793   9804   9806     1   109.8000471 387.438400
   9794   9796   9798     1   109.8000471 387.438400
   9794   9796   9799     1   109.8000471 387.438400
   9795   9794   9796     1   109.5600471 388.275200
   9795   9794   9797     1   108.4600466 328.025600
   9796   9794   9797     1   109.5600471 388.275200
   9798   9796   9800     1   108.7700466 392.459200
   9798   9796   9799     1   107.5800459 329.699200
   9799   9796   9800     1   108.7700466 392.459200
   9800   9832   9822     1   119.3800509 410.868800
   9802   9793   9804     1   109.5600471 388.275200
   9802   9793   9803     1   108.4600466 328.025600
   9803   9793   9804     1   109.5600471 388.275200
   9805   9804   9807     1   108.7700466 392.459200
   9805   9804   9806     1   107.5800459 329.699200
   9806   9804   9807     1   108.7700466 392.459200
   9807   9856   9846     1   119.3800509 410.868800
   9809   9810   9829     1   109.5600471 388.275200
   9809   9820   9823     1   109.5600471 388.275200
   9809   9820   9824     1   109.5600471 388.275200
   9810   9812   9816     1   109.5600471 388.275200
   9810   9830   9831     1   107.2600461 396.643200
   9810   9809   9811     1   109.5600471 388.275200
   9811   9809   9820     1   109.5600471 388.275200
   9811   9809   9827     1   109.7800468 425.094400
   9812   9813   9815     1   109.5600471 388.275200
   9812   9819   9821     1   107.2600461 396.643200
   9812   9810   9829     1   109.5600471 388.275200
   9813   9814   9817     1   110.2200475 386.601600
   9813   9832   9822     1   109.2900470 396.643200
   9813   9812   9816     1   109.5600471 388.275200
   9814   9818   9828     1   107.2600461 396.643200
   9814   9813   9815     1   109.5600471 388.275200
   9815   9813   9832     1   109.8800469 414.216000
   9816   9812   9819     1   110.2600474 425.931200
   9817   9814   9818     1   109.4300470 427.604800
   9817   9814   9827     1   109.5800467 425.931200
   9820   9825   9826     1   107.2600461 396.643200
   9823   9820   9825     1   110.2600474 425.931200
   9823   9820   9824     1   108.4600466 328.025600
   9824   9820   9825     1   110.2600474 425.931200
   9829   9810   9830     1   110.2600474 425.931200
   9833   9834   9853     1   109.5600471 388.275200
   9833   9844   9847     1   109.5600471 388.275200
   9833   9844   9848     1   109.5600471 388.275200
   9834   9836   9840     1   109.5600471 388.275200
   9834   9854   9855     1   107.2600461 396.643200
   9834   9833   9835     1   109.5600471 388.275200
   9835   9833   9844     1   109.5600471 388.275200
   9835   9833   9851     1   109.7800468 425.094400
   9836   9837   9839     1   109.5600471 388.275200
   9836   9843   9845     1   107.2600461 396.643200
   9836   9834   9853     1   109.5600471 388.275200
   9837   9838   9841     1   110.2200475 386.601600
   9837   9856   9846     1   109.2900470 396.643200
   9837   9836   9840     1   109.5600471 388.275200
   9838   9842   9852     1   107.2600461 396.643200
   9838   9837   9839     1   109.5600471 388.275200
   9839   9837   9856     1   109.8800469 414.216000
   9840   9836   9843     1   110.2600474 425.931200
   9841   9838   9842     1   109.4300470 427.604800
   9841   9838   9851     1   109.5800467 425.931200
   9844   9849   9850     1   107.2600461 396.643200
   9847   9844   9849     1   110.2600474 425.931200
   9847   9844   9848     1   108.4600466 328.025600
   9848   9844   9849     1   110.2600474 425.931200
   9853   9834   9854     1   110.2600474 425.931200
   9857   9859   9860     1   108.8800464 416.726400
   9857   9859   9862     1   108.8800464 416.726400
   9858   9857   9859     1   117.6800502 383.254400
   9859   9861   9863     1   109.5600471 388.275200
   9859   9861   9864     1   109.5600471 388.275200
   9860   9859   9861     1   109.5600471 388.275200
   9860   9859   9862     1   108.4600466 328.025600
   9861   9859   9862     1   109.5600471 388.275200
   9863   9861   9865     1   109.8800469 414.216000
   9863   9861   9864     1   108.4600466 328.025600
   9864   9861   9865     1   109.8800469 414.216000
   9865   9866   9875     1   109.8800469 414.216000
   9865   9866   9876     1   109.8800469 414.216000
   9865   9867   9868     1   109.8800469 414.216000
   9865   9867   9870     1   109.8800469 414.216000
   9866   9877   9878     1   109.8000471 387.438400
   9866   9877   9879     1   109.8000471 387.438400
   9867   9869   9871     1   109.8000471 387.438400
   9867   9869   9872     1   109.8000471 387.438400
   9868   9867   9869     1   109.5600471 388.275200
   9868   9867   9870     1   108.4600466 328.025600
   9869   9867   9870     1   109.5600471 388.275200
   9871   9869   9873     1   108.7700466 392.459200
   9871   9869   9872     1   107.5800459 329.699200
   9872   9869   9873     1   108.7700466 392.459200
   9873   9905   9895     1   119.3800509 410.868800
   9875   9866   9877     1   109.5600471 388.275200
   9875   9866   9876     1   108.4600466 328.025600
   9876   9866   9877     1   109.5600471 388.275200
   9878   9877   9880     1   108.7700466 392.459200
   9878   9877   9879     1   107.5800459 329.699200
   9879   9877   9880     1   108.7700466 392.459200
   9880   9929   9919     1   119.3800509 410.868800
   9882   9883   9902     1   109.5600471 388.275200
   9882   9893   9896     1   109.5600471 388.275200
   9882   9893   9897     1   109.5600471 388.275200
   9883   9882   9884     1   109.5600471 388.275200
   9883   9885   9889     1   109.5600471 388.275200
   9883   9903   9904     1   107.2600461 396.643200
   9884   9882   9893     1   109.5600471 388.275200
   9884   9882   9900     1   109.7800468 425.094400
   9885   9883   9902     1   109.5600471 388.275200
   9885   9886   9888     1   109.5600471 388.275200
   9885   9892   9894     1   107.2600461 396.643200
   9886   9885   9889     1   109.5600471 388.275200
   9886   9887   9890     1   110.2200475 386.601600
   9886   9905   9895     1   109.2900470 396.643200
   9887   9886   9888     1   109.5600471 388.275200
   9887   9891   9901     1   107.2600461 396.643200
   9888   9886   9905     1   109.8800469 414.216000
   9889   9885   9892     1   110.2600474 425.931200
   9890   9887   9891     1   109.4300470 427.604800
   9890   9887   9900     1   109.5800467 425.931200
   9893   9898   9899     1   107.2600461 396.643200
   9896   9893   9898     1   110.2600474 425.931200
   9896   9893   9897     1   108.4600466 328.025600
   9897   9893   9898     1   110.2600474 425.931200
   9902   9883   9903     1   110.2600474 425.931200
   9906   9907   9926     1   109.5600471 388.275200
   9906   9917   9920     1   109.5600471 388.275200
   9906   9917   9921     1   109.5600471 388.275200
   9907   9906   9908     1   109.5600471 388.275200
   9907   9909   9913     1   109.5600471 388.275200
   9907   9927   9928     1   107.2600461 396.643200
   9908   9906   9917     1   109.5600471 388.275200
   9908   9906   9924     1   109.7800468 425.094400
   9909   9907   9926     1   109.5600471 388.275200
   9909   9910   9912     1   109.5600471 388.275200
   9909   9916   9918     1   107.2600461 396.643200
   9910   9909   9913     1   109.5600471 388.275200
   9910   9911   9914     1   110.2200475 386.601600
   9910   9929   9919     1   109.2900470 396.643200
   9911   9910   9912     1   109.5600471 388.275200
   9911   9915   9925     1   107.2600461 396.643200
   9912   9910   9929     1   109.8800469 414.216000
   9913   9909   9916     1   110.2600474 425.931200
   9914   9911   9915     1   109.4300470 427.604800
   9914   9911   9924     1   109.5800467 425.931200
   9917   9922   9923     1   107.2600461 396.643200
   9920   9917   9922     1   110.2600474 425.931200
   9920   9917   9921     1   108.4600466 328.025600
   9921   9917   9922     1   110.2600474 425.931200
   9926   9907   9927     1   110.2600474 425.931200
   9930   9932   9933     1   108.8800464 416.726400
   9930   9932   9935     1   108.8800464 416.726400
   9931   9930   9932     1   117.6800502 383.254400
   9932   9934   9936     1   109.5600471 388.275200
   9932   9934   9937     1   109.5600471 388.275200
   9933   9932   9934     1   109.5600471 388.275200
   9933   9932   9935     1   108.4600466 328.025600
   9934   9932   9935     1   109.5600471 388.275200
   9936   9934   9938     1   109.8800469 414.216000
   9936   9934   9937     1   108.4600466 328.025600
   9937   9934   9938     1   109.8800469 414.216000
   9938   9939   9948     1   109.8800469 414.216000
   9938   9939   9949     1   109.8800469 414.216000
   9938   9940   9941     1   109.8800469 414.216000
   9938   9940   9943     1   109.8800469 414.216000
   9939   9950   9951     1   109.8000471 387.438400
   9939   9950   9952     1   109.8000471 387.438400
   9940   9942   9944     1   109.8000471 387.438400
   9940   9942   9945     1   109.8000471 387.438400
   9941   9940   9942     1   109.5600471 388.275200
   9941   9940   9943     1   108.4600466 328.025600
   9942   9940   9943     1   109.5600471 388.275200
   9944   9942   9946     1   108.7700466 392.459200
   9944   9942   9945     1   107.5800459 329.699200
   9945   9942   9946     1   108.7700466 392.459200
   9946   9978   9968     1   119.3800509 410.868800
   9948   9939   9950     1   109.5600471 388.275200
   9948   9939   9949     1   108.4600466 328.025600
   9949   9939   9950     1   109.5600471 388.275200
   9951   9950   9953     1   108.7700466 392.459200
   9951   9950   9952     1   107.5800459 329.699200
   9952   9950   9953     1   108.7700466 392.459200
   9953  10002   9992     1   119.3800509 410.868800
   9955   9956   9975     1   109.5600471 388.275200
   9955   9966   9969     1   109.5600471 388.275200
   9955   9966   9970     1   109.5600471 388.275200
   9956   9958   9962     1   109.5600471 388.275200
   9956   9976   9977     1   107.2600461 396.643200
   9956   9955   9957     1   109.5600471 388.275200
   9957   9955   9966     1   109.5600471 388.275200
   9957   9955   9973     1   109.7800468 425.094400
   9958   9959   9961     1   109.5600471 388.275200
   9958   9965   9967     1   107.2600461 396.643200
   9958   9956   9975     1   109.5600471 388.275200
   9959   9960   9963     1   110.2200475 386.601600
   9959   9978   9968     1   109.2900470 396.643200
   9959   9958   9962     1   109.5600471 388.275200
   9960   9964   9974     1   107.2600461 396.643200
   9960   9959   9961     1   109.5600471 388.275200
   9961   9959   9978     1   109.8800469 414.216000
   9962   9958   9965     1   110.2600474 425.931200
   9963   9960   9964     1   109.4300470 427.604800
   9963   9960   9973     1   109.5800467 425.931200
   9966   9971   9972     1   107.2600461 396.643200
   9969   9966   9971     1   110.2600474 425.931200
   9969   9966   9970     1   108.4600466 328.025600
   9970   9966   9971     1   110.2600474 425.931200
   9975   9956   9976     1   110.2600474 425.931200
   9979   9980   9999     1   109.5600471 388.275200
   9979   9990   9993     1   109.5600471 388.275200
   9979   9990   9994     1   109.5600471 388.275200
   9980   9982   9986     1   109.5600471 388.275200
   9980  10000  10001     1   107.2600461 396.643200
   9980   9979   9981     1   109.5600471 388.275200
   9981   9979   9990     1   109.5600471 388.275200
   9981   9979   9997     1   109.7800468 425.094400
   9982   9983   9985     1   109.5600471 388.275200
   9982   9989   9991     1   107.2600461 396.643200
   9982   9980   9999     1   109.5600471 388.275200
   9983   9984   9987     1   110.2200475 386.601600
   9983  10002   9992     1   109.2900470 396.643200
   9983   9982   9986     1   109.5600471 388.275200
   9984   9988   9998     1   107.2600461 396.643200
   9984   9983   9985     1   109.5600471 388.275200
   9985   9983  10002     1   109.8800469 414.216000
   9986   9982   9989     1   110.2600474 425.931200
   9987   9984   9988     1   109.4300470 427.604800
   9987   9984   9997     1   109.5800467 425.931200
   9990   9995   9996     1   107.2600461 396.643200
   9993   9990   9995     1   110.2600474 425.931200
   9993   9990   9994     1   108.4600466 328.025600
   9994   9990   9995     1   110.2600474 425.931200
   9999   9980  10000     1   110.2600474 425.931200
  10003  10005  10006     1   108.8800464 416.726400
  10003  10005  10008     1   108.8800464 416.726400
  10004  10003  10005     1   117.6800502 383.254400
  10005  10007  10009     1   109.5600471 388.275200
  10005  10007  10010     1   109.5600471 388.275200
  10006  10005  10007     1   109.5600471 388.275200
  10006  10005  10008     1   108.4600466 328.025600
  10007  10005  10008     1   109.5600471 388.275200
  10009  10007  10011     1   109.8800469 414.216000
  10009  10007  10010     1   108.4600466 328.025600
  10010  10007  10011     1   109.8800469 414.216000
  10011  10012  10021     1   109.8800469 414.216000
  10011  10012  10022     1   109.8800469 414.216000
  10011  10013  10014     1   109.8800469 414.216000
  10011  10013  10016     1   109.8800469 414.216000
  10012  10023  10024     1   109.8000471 387.438400
  10012  10023  10025     1   109.8000471 387.438400
  10013  10015  10017     1   109.8000471 387.438400
  10013  10015  10018     1   109.8000471 387.438400
  10014  10013  10015     1   109.5600471 388.275200
  10014  10013  10016     1   108.4600466 328.025600
  10015  10013  10016     1   109.5600471 388.275200
  10017  10015  10019     1   108.7700466 392.459200
  10017  10015  10018     1   107.5800459 329.699200
  10018  10015  10019     1   108.7700466 392.459200
  10019  10051  10041     1   119.3800509 410.868800
  10021  10012  10023     1   109.5600471 388.275200
  10021  10012  10022     1   108.4600466 328.025600
  10022  10012  10023     1   109.5600471 388.275200
  10024  10023  10026     1   108.7700466 392.459200
  10024  10023  10025     1   107.5800459 329.699200
  10025  10023  10026     1   108.7700466 392.459200
  10026  10075  10065     1   119.3800509 410.868800
  10028  10029  10048     1   109.5600471 388.275200
  10028  10039  10042     1   109.5600471 388.275200
  10028  10039  10043     1   109.5600471 388.275200
  10029  10028  10030     1   109.5600471 388.275200
  10029  10031  10035     1   109.5600471 388.275200
  10029  10049  10050     1   107.2600461 396.643200
  10030  10028  10039     1   109.5600471 388.275200
  10030  10028  10046     1   109.7800468 425.094400
  10031  10029  10048     1   109.5600471 388.275200
  10031  10032  10034     1   109.5600471 388.275200
  10031  10038  10040     1   107.2600461 396.643200
  10032  10031  10035     1   109.5600471 388.275200
  10032  10033  10036     1   110.2200475 386.601600
  10032  10051  10041     1   109.2900470 396.643200
  10033  10032  10034     1   109.5600471 388.275200
  10033  10037  10047     1   107.2600461 396.643200
  10034  10032  10051     1   109.8800469 414.216000
  10035  10031  10038     1   110.2600474 425.931200
  10036  10033  10037     1   109.4300470 427.604800
  10036  10033  10046     1   109.5800467 425.931200
  10039  10044  10045     1   107.2600461 396.643200
  10042  10039  10044     1   110.2600474 425.931200
  10042  10039  10043     1   108.4600466 328.025600
  10043  10039  10044     1   110.2600474 425.931200
  10048  10029  10049     1   110.2600474 425.931200
  10052  10053  10072     1   109.5600471 388.275200
  10052  10063  10066     1   109.5600471 388.275200
  10052  10063  10067     1   109.5600471 388.275200
  10053  10052  10054     1   109.5600471 388.275200
  10053  10055  10059     1   109.5600471 388.275200
  10053  10073  10074     1   107.2600461 396.643200
  10054  10052  10063     1   109.5600471 388.275200
  10054  10052  10070     1   109.7800468 425.094400
  10055  10053  10072     1   109.5600471 388.275200
  10055  10056  10058     1   109.5600471 388.275200
  10055  10062  10064     1   107.2600461 396.643200
  10056  10055  10059     1   109.5600471 388.275200
  10056  10057  10060     1   110.2200475 386.601600
  10056  10075  10065     1   109.2900470 396.643200
  10057  10056  10058     1   109.5600471 388.275200
  10057  10061  10071     1   107.2600461 396.643200
  10058  10056  10075     1   109.8800469 414.216000
  10059  10055  10062     1   110.2600474 425.931200
  10060  10057  10061     1   109.4300470 427.604800
  10060  10057  10070     1   109.5800467 425.931200
  10063  10068  10069     1   107.2600461 396.643200
  10066  10063  10068     1   110.2600474 425.931200
  10066  10063  10067     1   108.4600466 328.025600
  10067  10063  10068     1   110.2600474 425.931200
  10072  10053  10073     1   110.2600474 425.931200
  10076  10078  10079     1   108.8800464 416.726400
  10076  10078  10081     1   108.8800464 416.726400
  10077  10076  10078     1   117.6800502 383.254400
  10078  10080  10082     1   109.5600471 388.275200
  10078  10080  10083     1   109.5600471 388.275200
  10079  10078  10080     1   109.5600471 388.275200
  10079  10078  10081     1   108.4600466 328.025600
  10080  10078  10081     1   109.5600471 388.275200
  10082  10080  10084     1   109.8800469 414.216000
  10082  10080  10083     1   108.4600466 328.025600
  10083  10080  10084     1   109.8800469 414.216000
  10084  10085  10094     1   109.8800469 414.216000
  10084  10085  10095     1   109.8800469 414.216000
  10084  10086  10087     1   109.8800469 414.216000
  10084  10086  10089     1   109.8800469 414.216000
  10085  10096  10097     1   109.8000471 387.438400
  10085  10096  10098     1   109.8000471 387.438400
  10086  10088  10090     1   109.8000471 387.438400
  10086  10088  10091     1   109.8000471 387.438400
  10087  10086  10088     1   109.5600471 388.275200
  10087  10086  10089     1   108.4600466 328.025600
  10088  10086  10089     1   109.5600471 388.275200
  10090  10088  10092     1   108.7700466 392.459200
  10090  10088  10091     1   107.5800459 329.699200
  10091  10088  10092     1   108.7700466 392.459200
  10092  10124  10114     1   119.3800509 410.868800
  10094  10085  10096     1   109.5600471 388.275200
  10094  10085  10095     1   108.4600466 328.025600
  10095  10085  10096     1   109.5600471 388.275200
  10097  10096  10099     1   108.7700466 392.459200
  10097  10096  10098     1   107.5800459 329.699200
  10098  10096  10099     1   108.7700466 392.459200
  10099  10148  10138     1   119.3800509 410.868800
  10101  10102  10121     1   109.5600471 388.275200
  10101  10112  10115     1   109.5600471 388.275200
  10101  10112  10116     1   109.5600471 388.275200
  10102  10104  10108     1   109.5600471 388.275200
  10102  10122  10123     1   107.2600461 396.643200
  10102  10101  10103     1   109.5600471 388.275200
  10103  10101  10112     1   109.5600471 388.275200
  10103  10101  10119     1   109.7800468 425.094400
  10104  10105  10107     1   109.5600471 388.275200
  10104  10111  10113     1   107.2600461 396.643200
  10104  10102  10121     1   109.5600471 388.275200
  10105  10106  10109     1   110.2200475 386.601600
  10105  10124  10114     1   109.2900470 396.643200
  10105  10104  10108     1   109.5600471 388.275200
  10106  10110  10120     1   107.2600461 396.643200
  10106  10105  10107     1   109.5600471 388.275200
  10107  10105  10124     1   109.8800469 414.216000
  10108  10104  10111     1   110.2600474 425.931200
  10109  10106  10110     1   109.4300470 427.604800
  10109  10106  10119     1   109.5800467 425.931200
  10112  10117  10118     1   107.2600461 396.643200
  10115  10112  10117     1   110.2600474 425.931200
  10115  10112  10116     1   108.4600466 328.025600
  10116  10112  10117     1   110.2600474 425.931200
  10121  10102  10122     1   110.2600474 425.931200
  10125  10126  10145     1   109.5600471 388.275200
  10125  10136  10139     1   109.5600471 388.275200
  10125  10136  10140     1   109.5600471 388.275200
  10126  10128  10132     1   109.5600471 388.275200
  10126  10146  10147     1   107.2600461 396.643200
  10126  10125  10127     1   109.5600471 388.275200
  10127  10125  10136     1   109.5600471 388.275200
  10127  10125  10143     1   109.7800468 425.094400
  10128  10129  10131     1   109.5600471 388.275200
  10128  10135  10137     1   107.2600461 396.643200
  10128  10126  10145     1   109.5600471 388.275200
  10129  10130  10133     1   110.2200475 386.601600
  10129  10148  10138     1   109.2900470 396.643200
  10129  10128  10132     1   109.5600471 388.275200
  10130  10134  10144     1   107.2600461 396.643200
  10130  10129  10131     1   109.5600471 388.275200
  10131  10129  10148     1   109.8800469 414.216000
  10132  10128  10135     1   110.2600474 425.931200
  10133  10130  10134     1   109.4300470 427.604800
  10133  10130  10143     1   109.5800467 425.931200
  10136  10141  10142     1   107.2600461 396.643200
  10139  10136  10141     1   110.2600474 425.931200
  10139  10136  10140     1   108.4600466 328.025600
  10140  10136  10141     1   110.2600474 425.931200
  10145  10126  10146     1   110.2600474 425.931200
  10149  10151  10152     1   108.8800464 416.726400
  10149  10151  10154     1   108.8800464 416.726400
  10150  10149  10151     1   117.6800502 383.254400
  10151  10153  10155     1   109.5600471 388.275200
  10151  10153  10156     1   109.5600471 388.275200
  10152  10151  10153     1   109.5600471 388.275200
  10152  10151  10154     1   108.4600466 328.025600
  10153  10151  10154     1   109.5600471 388.275200
  10155  10153  10157     1   109.8800469 414.216000
  10155  10153  10156     1   108.4600466 328.025600
  10156  10153  10157     1   109.8800469 414.216000
  10157  10158  10167     1   109.8800469 414.216000
  10157  10158  10168     1   109.8800469 414.216000
  10157  10159  10160     1   109.8800469 414.216000
  10157  10159  10162     1   109.8800469 414.216000
  10158  10169  10170     1   109.8000471 387.438400
  10158  10169  10171     1   109.8000471 387.438400
  10159  10161  10163     1   109.8000471 387.438400
  10159  10161  10164     1   109.8000471 387.438400
  10160  10159  10161     1   109.5600471 388.275200
  10160  10159  10162     1   108.4600466 328.025600
  10161  10159  10162     1   109.5600471 388.275200
  10163  10161  10165     1   108.7700466 392.459200
  10163  10161  10164     1   107.5800459 329.699200
  10164  10161  10165     1   108.7700466 392.459200
  10165  10197  10187     1   119.3800509 410.868800
  10167  10158  10169     1   109.5600471 388.275200
  10167  10158  10168     1   108.4600466 328.025600
  10168  10158  10169     1   109.5600471 388.275200
  10170  10169  10172     1   108.7700466 392.459200
  10170  10169  10171     1   107.5800459 329.699200
  10171  10169  10172     1   108.7700466 392.459200
  10172  10221  10211     1   119.3800509 410.868800
  10174  10175  10194     1   109.5600471 388.275200
  10174  10185  10188     1   109.5600471 388.275200
  10174  10185  10189     1   109.5600471 388.275200
  10175  10174  10176     1   109.5600471 388.275200
  10175  10177  10181     1   109.5600471 388.275200
  10175  10195  10196     1   107.2600461 396.643200
  10176  10174  10185     1   109.5600471 388.275200
  10176  10174  10192     1   109.7800468 425.094400
  10177  10175  10194     1   109.5600471 388.275200
  10177  10178  10180     1   109.5600471 388.275200
  10177  10184  10186     1   107.2600461 396.643200
  10178  10177  10181     1   109.5600471 388.275200
  10178  10179  10182     1   110.2200475 386.601600
  10178  10197  10187     1   109.2900470 396.643200
  10179  10178  10180     1   109.5600471 388.275200
  10179  10183  10193     1   107.2600461 396.643200
  10180  10178  10197     1   109.8800469 414.216000
  10181  10177  10184     1   110.2600474 425.931200
  10182  10179  10183     1   109.4300470 427.604800
  10182  10179  10192     1   109.5800467 425.931200
  10185  10190  10191     1   107.2600461 396.643200
  10188  10185  10190     1   110.2600474 425.931200
  10188  10185  10189     1   108.4600466 328.025600
  10189  10185  10190     1   110.2600474 425.931200
  10194  10175  10195     1   110.2600474 425.931200
  10198  10199  10218     1   109.5600471 388.275200
  10198  10209  10212     1   109.5600471 388.275200
  10198  10209  10213     1   109.5600471 388.275200
  10199  10198  10200     1   109.5600471 388.275200
  10199  10201  10205     1   109.5600471 388.275200
  10199  10219  10220     1   107.2600461 396.643200
  10200  10198  10209     1   109.5600471 388.275200
  10200  10198  10216     1   109.7800468 425.094400
  10201  10199  10218     1   109.5600471 388.275200
  10201  10202  10204     1   109.5600471 388.275200
  10201  10208  10210     1   107.2600461 396.643200
  10202  10201  10205     1   109.5600471 388.275200
  10202  10203  10206     1   110.2200475 386.601600
  10202  10221  10211     1   109.2900470 396.643200
  10203  10202  10204     1   109.5600471 388.275200
  10203  10207  10217     1   107.2600461 396.643200
  10204  10202  10221     1   109.8800469 414.216000
  10205  10201  10208     1   110.2600474 425.931200
  10206  10203  10207     1   109.4300470 427.604800
  10206  10203  10216     1   109.5800467 425.931200
  10209  10214  10215     1   107.2600461 396.643200
  10212  10209  10214     1   110.2600474 425.931200
  10212  10209  10213     1   108.4600466 328.025600
  10213  10209  10214     1   110.2600474 425.931200
  10218  10199  10219     1   110.2600474 425.931200
  10222  10224  10225     1   108.8800464 416.726400
  10222  10224  10227     1   108.8800464 416.726400
  10223  10222  10224     1   117.6800502 383.254400
  10224  10226  10228     1   109.5600471 388.275200
  10224  10226  10229     1   109.5600471 388.275200
  10225  10224  10226     1   109.5600471 388.275200
  10225  10224  10227     1   108.4600466 328.025600
  10226  10224  10227     1   109.5600471 388.275200
  10228  10226  10230     1   109.8800469 414.216000
  10228  10226  10229     1   108.4600466 328.025600
  10229  10226  10230     1   109.8800469 414.216000
  10230  10231  10240     1   109.8800469 414.216000
  10230  10231  10241     1   109.8800469 414.216000
  10230  10232  10233     1   109.8800469 414.216000
  10230  10232  10235     1   109.8800469 414.216000
  10231  10242  10243     1   109.8000471 387.438400
  10231  10242  10244     1   109.8000471 387.438400
  10232  10234  10236     1   109.8000471 387.438400
  10232  10234  10237     1   109.8000471 387.438400
  10233  10232  10234     1   109.5600471 388.275200
  10233  10232  10235     1   108.4600466 328.025600
  10234  10232  10235     1   109.5600471 388.275200
  10236  10234  10238     1   108.7700466 392.459200
  10236  10234  10237     1   107.5800459 329.699200
  10237  10234  10238     1   108.7700466 392.459200
  10238  10270  10260     1   119.3800509 410.868800
  10240  10231  10242     1   109.5600471 388.275200
  10240  10231  10241     1   108.4600466 328.025600
  10241  10231  10242     1   109.5600471 388.275200
  10243  10242  10245     1   108.7700466 392.459200
  10243  10242  10244     1   107.5800459 329.699200
  10244  10242  10245     1   108.7700466 392.459200
  10245  10294  10284     1   119.3800509 410.868800
  10247  10248  10267     1   109.5600471 388.275200
  10247  10258  10261     1   109.5600471 388.275200
  10247  10258  10262     1   109.5600471 388.275200
  10248  10250  10254     1   109.5600471 388.275200
  10248  10268  10269     1   107.2600461 396.643200
  10248  10247  10249     1   109.5600471 388.275200
  10249  10247  10258     1   109.5600471 388.275200
  10249  10247  10265     1   109.7800468 425.094400
  10250  10251  10253     1   109.5600471 388.275200
  10250  10257  10259     1   107.2600461 396.643200
  10250  10248  10267     1   109.5600471 388.275200
  10251  10252  10255     1   110.2200475 386.601600
  10251  10270  10260     1   109.2900470 396.643200
  10251  10250  10254     1   109.5600471 388.275200
  10252  10256  10266     1   107.2600461 396.643200
  10252  10251  10253     1   109.5600471 388.275200
  10253  10251  10270     1   109.8800469 414.216000
  10254  10250  10257     1   110.2600474 425.931200
  10255  10252  10256     1   109.4300470 427.604800
  10255  10252  10265     1   109.5800467 425.931200
  10258  10263  10264     1   107.2600461 396.643200
  10261  10258  10263     1   110.2600474 425.931200
  10261  10258  10262     1   108.4600466 328.025600
  10262  10258  10263     1   110.2600474 425.931200
  10267  10248  10268     1   110.2600474 425.931200
  10271  10272  10291     1   109.5600471 388.275200
  10271  10282  10285     1   109.5600471 388.275200
  10271  10282  10286     1   109.5600471 388.275200
  10272  10274  10278     1   109.5600471 388.275200
  10272  10292  10293     1   107.2600461 396.643200
  10272  10271  10273     1   109.5600471 388.275200
  10273  10271  10282     1   109.5600471 388.275200
  10273  10271  10289     1   109.7800468 425.094400
  10274  10275  10277     1   109.5600471 388.275200
  10274  10281  10283     1   107.2600461 396.643200
  10274  10272  10291     1   109.5600471 388.275200
  10275  10276  10279     1   110.2200475 386.601600
  10275  10294  10284     1   109.2900470 396.643200
  10275  10274  10278     1   109.5600471 388.275200
  10276  10280  10290     1   107.2600461 396.643200
  10276  10275  10277     1   109.5600471 388.275200
  10277  10275  10294     1   109.8800469 414.216000
  10278  10274  10281     1   110.2600474 425.931200
  10279  10276  10280     1   109.4300470 427.604800
  10279  10276  10289     1   109.5800467 425.931200
  10282  10287  10288     1   107.2600461 396.643200
  10285  10282  10287     1   110.2600474 425.931200
  10285  10282  10286     1   108.4600466 328.025600
  10286  10282  10287     1   110.2600474 425.931200
  10291  10272  10292     1   110.2600474 425.931200
  10295  10297  10298     1   108.8800464 416.726400
  10295  10297  10300     1   108.8800464 416.726400
  10296  10295  10297     1   117.6800502 383.254400
  10297  10299  10301     1   109.5600471 388.275200
  10297  10299  10302     1   109.5600471 388.275200
  10298  10297  10299     1   109.5600471 388.275200
  10298  10297  10300     1   108.4600466 328.025600
  10299  10297  10300     1   109.5600471 388.275200
  10301  10299  10303     1   109.8800469 414.216000
  10301  10299  10302     1   108.4600466 328.025600
  10302  10299  10303     1   109.8800469 414.216000
  10303  10304  10313     1   109.8800469 414.216000
  10303  10304  10314     1   109.8800469 414.216000
  10303  10305  10306     1   109.8800469 414.216000
  10303  10305  10308     1   109.8800469 414.216000
  10304  10315  10316     1   109.8000471 387.438400
  10304  10315  10317     1   109.8000471 387.438400
  10305  10307  10309     1   109.8000471 387.438400
  10305  10307  10310     1   109.8000471 387.438400
  10306  10305  10307     1   109.5600471 388.275200
  10306  10305  10308     1   108.4600466 328.025600
  10307  10305  10308     1   109.5600471 388.275200
  10309  10307  10311     1   108.7700466 392.459200
  10309  10307  10310     1   107.5800459 329.699200
  10310  10307  10311     1   108.7700466 392.459200
  10311  10343  10333     1   119.3800509 410.868800
  10313  10304  10315     1   109.5600471 388.275200
  10313  10304  10314     1   108.4600466 328.025600
  10314  10304  10315     1   109.5600471 388.275200
  10316  10315  10318     1   108.7700466 392.459200
  10316  10315  10317     1   107.5800459 329.699200
  10317  10315  10318     1   108.7700466 392.459200
  10318  10367  10357     1   119.3800509 410.868800
  10320  10321  10340     1   109.5600471 388.275200
  10320  10331  10334     1   109.5600471 388.275200
  10320  10331  10335     1   109.5600471 388.275200
  10321  10320  10322     1   109.5600471 388.275200
  10321  10323  10327     1   109.5600471 388.275200
  10321  10341  10342     1   107.2600461 396.643200
  10322  10320  10331     1   109.5600471 388.275200
  10322  10320  10338     1   109.7800468 425.094400
  10323  10321  10340     1   109.5600471 388.275200
  10323  10324  10326     1   109.5600471 388.275200
  10323  10330  10332     1   107.2600461 396.643200
  10324  10323  10327     1   109.5600471 388.275200
  10324  10325  10328     1   110.2200475 386.601600
  10324  10343  10333     1   109.2900470 396.643200
  10325  10324  10326     1   109.5600471 388.275200
  10325  10329  10339     1   107.2600461 396.643200
  10326  10324  10343     1   109.8800469 414.216000
  10327  10323  10330     1   110.2600474 425.931200
  10328  10325  10329     1   109.4300470 427.604800
  10328  10325  10338     1   109.5800467 425.931200
  10331  10336  10337     1   107.2600461 396.643200
  10334  10331  10336     1   110.2600474 425.931200
  10334  10331  10335     1   108.4600466 328.025600
  10335  10331  10336     1   110.2600474 425.931200
  10340  10321  10341     1   110.2600474 425.931200
  10344  10345  10364     1   109.5600471 388.275200
  10344  10355  10358     1   109.5600471 388.275200
  10344  10355  10359     1   109.5600471 388.275200
  10345  10344  10346     1   109.5600471 388.275200
  10345  10347  10351     1   109.5600471 388.275200
  10345  10365  10366     1   107.2600461 396.643200
  10346  10344  10355     1   109.5600471 388.275200
  10346  10344  10362     1   109.7800468 425.094400
  10347  10345  10364     1   109.5600471 388.275200
  10347  10348  10350     1   109.5600471 388.275200
  10347  10354  10356     1   107.2600461 396.643200
  10348  10347  10351     1   109.5600471 388.275200
  10348  10349  10352     1   110.2200475 386.601600
  10348  10367  10357     1   109.2900470 396.643200
  10349  10348  10350     1   109.5600471 388.275200
  10349  10353  10363     1   107.2600461 396.643200
  10350  10348  10367     1   109.8800469 414.216000
  10351  10347  10354     1   110.2600474 425.931200
  10352  10349  10353     1   109.4300470 427.604800
  10352  10349  10362     1   109.5800467 425.931200
  10355  10360  10361     1   107.2600461 396.643200
  10358  10355  10360     1   110.2600474 425.931200
  10358  10355  10359     1   108.4600466 328.025600
  10359  10355  10360     1   110.2600474 425.931200
  10364  10345  10365     1   110.2600474 425.931200
  10368  10370  10371     1   108.8800464 416.726400
  10368  10370  10373     1   108.8800464 416.726400
  10369  10368  10370     1   117.6800502 383.254400
  10370  10372  10374     1   109.5600471 388.275200
  10370  10372  10375     1   109.5600471 388.275200
  10371  10370  10372     1   109.5600471 388.275200
  10371  10370  10373     1   108.4600466 328.025600
  10372  10370  10373     1   109.5600471 388.275200
  10374  10372  10376     1   109.8800469 414.216000
  10374  10372  10375     1   108.4600466 328.025600
  10375  10372  10376     1   109.8800469 414.216000
  10376  10377  10386     1   109.8800469 414.216000
  10376  10377  10387     1   109.8800469 414.216000
  10376  10378  10379     1   109.8800469 414.216000
  10376  10378  10381     1   109.8800469 414.216000
  10377  10388  10389     1   109.8000471 387.438400
  10377  10388  10390     1   109.8000471 387.438400
  10378  10380  10382     1   109.8000471 387.438400
  10378  10380  10383     1   109.8000471 387.438400
  10379  10378  10380     1   109.5600471 388.275200
  10379  10378  10381     1   108.4600466 328.025600
  10380  10378  10381     1   109.5600471 388.275200
  10382  10380  10384     1   108.7700466 392.459200
  10382  10380  10383     1   107.5800459 329.699200
  10383  10380  10384     1   108.7700466 392.459200
  10384  10416  10406     1   119.3800509 410.868800
  10386  10377  10388     1   109.5600471 388.275200
  10386  10377  10387     1   108.4600466 328.025600
  10387  10377  10388     1   109.5600471 388.275200
  10389  10388  10391     1   108.7700466 392.459200
  10389  10388  10390     1   107.5800459 329.699200
  10390  10388  10391     1   108.7700466 392.459200
  10391  10440  10430     1   119.3800509 410.868800
  10393  10394  10413     1   109.5600471 388.275200
  10393  10404  10407     1   109.5600471 388.275200
  10393  10404  10408     1   109.5600471 388.275200
  10394  10396  10400     1   109.5600471 388.275200
  10394  10414  10415     1   107.2600461 396.643200
  10394  10393  10395     1   109.5600471 388.275200
  10395  10393  10404     1   109.5600471 388.275200
  10395  10393  10411     1   109.7800468 425.094400
  10396  10397  10399     1   109.5600471 388.275200
  10396  10403  10405     1   107.2600461 396.643200
  10396  10394  10413     1   109.5600471 388.275200
  10397  10398  10401     1   110.2200475 386.601600
  10397  10416  10406     1   109.2900470 396.643200
  10397  10396  10400     1   109.5600471 388.275200
  10398  10402  10412     1   107.2600461 396.643200
  10398  10397  10399     1   109.5600471 388.275200
  10399  10397  10416     1   109.8800469 414.216000
  10400  10396  10403     1   110.2600474 425.931200
  10401  10398  10402     1   109.4300470 427.604800
  10401  10398  10411     1   109.5800467 425.931200
  10404  10409  10410     1   107.2600461 396.643200
  10407  10404  10409     1   110.2600474 425.931200
  10407  10404  10408     1   108.4600466 328.025600
  10408  10404  10409     1   110.2600474 425.931200
  10413  10394  10414     1   110.2600474 425.931200
  10417  10418  10437     1   109.5600471 388.275200
  10417  10428  10431     1   109.5600471 388.275200
  10417  10428  10432     1   109.5600471 388.275200
  10418  10420  10424     1   109.5600471 388.275200
  10418  10438  10439     1   107.2600461 396.643200
  10418  10417  10419     1   109.5600471 388.275200
  10419  10417  10428     1   109.5600471 388.275200
  10419  10417  10435     1   109.7800468 425.094400
  10420  10421  10423     1   109.5600471 388.275200
  10420  10427  10429     1   107.2600461 396.643200
  10420  10418  10437     1   109.5600471 388.275200
  10421  10422  10425     1   110.2200475 386.601600
  10421  10440  10430     1   109.2900470 396.643200
  10421  10420  10424     1   109.5600471 388.275200
  10422  10426  10436     1   107.2600461 396.643200
  10422  10421  10423     1   109.5600471 388.275200
  10423  10421  10440     1   109.8800469 414.216000
  10424  10420  10427     1   110.2600474 425.931200
  10425  10422  10426     1   109.4300470 427.604800
  10425  10422  10435     1   109.5800467 425.931200
  10428  10433  10434     1   107.2600461 396.643200
  10431  10428  10433     1   110.2600474 425.931200
  10431  10428  10432     1   108.4600466 328.025600
  10432  10428  10433     1   110.2600474 425.931200
  10437  10418  10438     1   110.2600474 425.931200
  10441  10443  10444     1   108.8800464 416.726400
  10441  10443  10446     1   108.8800464 416.726400
  10442  10441  10443     1   117.6800502 383.254400
  10443  10445  10447     1   109.5600471 388.275200
  10443  10445  10448     1   109.5600471 388.275200
  10444  10443  10445     1   109.5600471 388.275200
  10444  10443  10446     1   108.4600466 328.025600
  10445  10443  10446     1   109.5600471 388.275200
  10447  10445  10449     1   109.8800469 414.216000
  10447  10445  10448     1   108.4600466 328.025600
  10448  10445  10449     1   109.8800469 414.216000
  10449  10450  10459     1   109.8800469 414.216000
  10449  10450  10460     1   109.8800469 414.216000
  10449  10451  10452     1   109.8800469 414.216000
  10449  10451  10454     1   109.8800469 414.216000
  10450  10461  10462     1   109.8000471 387.438400
  10450  10461  10463     1   109.8000471 387.438400
  10451  10453  10455     1   109.8000471 387.438400
  10451  10453  10456     1   109.8000471 387.438400
  10452  10451  10453     1   109.5600471 388.275200
  10452  10451  10454     1   108.4600466 328.025600
  10453  10451  10454     1   109.5600471 388.275200
  10455  10453  10457     1   108.7700466 392.459200
  10455  10453  10456     1   107.5800459 329.699200
  10456  10453  10457     1   108.7700466 392.459200
  10457  10489  10479     1   119.3800509 410.868800
  10459  10450  10461     1   109.5600471 388.275200
  10459  10450  10460     1   108.4600466 328.025600
  10460  10450  10461     1   109.5600471 388.275200
  10462  10461  10464     1   108.7700466 392.459200
  10462  10461  10463     1   107.5800459 329.699200
  10463  10461  10464     1   108.7700466 392.459200
  10464  10513  10503     1   119.3800509 410.868800
  10466  10467  10486     1   109.5600471 388.275200
  10466  10477  10480     1   109.5600471 388.275200
  10466  10477  10481     1   109.5600471 388.275200
  10467  10466  10468     1   109.5600471 388.275200
  10467  10469  10473     1   109.5600471 388.275200
  10467  10487  10488     1   107.2600461 396.643200
  10468  10466  10477     1   109.5600471 388.275200
  10468  10466  10484     1   109.7800468 425.094400
  10469  10467  10486     1   109.5600471 388.275200
  10469  10470  10472     1   109.5600471 388.275200
  10469  10476  10478     1   107.2600461 396.643200
  10470  10469  10473     1   109.5600471 388.275200
  10470  10471  10474     1   110.2200475 386.601600
  10470  10489  10479     1   109.2900470 396.643200
  10471  10470  10472     1   109.5600471 388.275200
  10471  10475  10485     1   107.2600461 396.643200
  10472  10470  10489     1   109.8800469 414.216000
  10473  10469  10476     1   110.2600474 425.931200
  10474  10471  10475     1   109.4300470 427.604800
  10474  10471  10484     1   109.5800467 425.931200
  10477  10482  10483     1   107.2600461 396.643200
  10480  10477  10482     1   110.2600474 425.931200
  10480  10477  10481     1   108.4600466 328.025600
  10481  10477  10482     1   110.2600474 425.931200
  10486  10467  10487     1   110.2600474 425.931200
  10490  10491  10510     1   109.5600471 388.275200
  10490  10501  10504     1   109.5600471 388.275200
  10490  10501  10505     1   109.5600471 388.275200
  10491  10490  10492     1   109.5600471 388.275200
  10491  10493  10497     1   109.5600471 388.275200
  10491  10511  10512     1   107.2600461 396.643200
  10492  10490  10501     1   109.5600471 388.275200
  10492  10490  10508     1   109.7800468 425.094400
  10493  10491  10510     1   109.5600471 388.275200
  10493  10494  10496     1   109.5600471 388.275200
  10493  10500  10502     1   107.2600461 396.643200
  10494  10493  10497     1   109.5600471 388.275200
  10494  10495  10498     1   110.2200475 386.601600
  10494  10513  10503     1   109.2900470 396.643200
  10495  10494  10496     1   109.5600471 388.275200
  10495  10499  10509     1   107.2600461 396.643200
  10496  10494  10513     1   109.8800469 414.216000
  10497  10493  10500     1   110.2600474 425.931200
  10498  10495  10499     1   109.4300470 427.604800
  10498  10495  10508     1   109.5800467 425.931200
  10501  10506  10507     1   107.2600461 396.643200
  10504  10501  10506     1   110.2600474 425.931200
  10504  10501  10505     1   108.4600466 328.025600
  10505  10501  10506     1   110.2600474 425.931200
  10510  10491  10511     1   110.2600474 425.931200
  10514  10516  10517     1   108.8800464 416.726400
  10514  10516  10519     1   108.8800464 416.726400
  10515  10514  10516     1   117.6800502 383.254400
  10516  10518  10520     1   109.5600471 388.275200
  10516  10518  10521     1   109.5600471 388.275200
  10517  10516  10518     1   109.5600471 388.275200
  10517  10516  10519     1   108.4600466 328.025600
  10518  10516  10519     1   109.5600471 388.275200
  10520  10518  10522     1   109.8800469 414.216000
  10520  10518  10521     1   108.4600466 328.025600
  10521  10518  10522     1   109.8800469 414.216000
  10522  10523  10532     1   109.8800469 414.216000
  10522  10523  10533     1   109.8800469 414.216000
  10522  10524  10525     1   109.8800469 414.216000
  10522  10524  10527     1   109.8800469 414.216000
  10523  10534  10535     1   109.8000471 387.438400
  10523  10534  10536     1   109.8000471 387.438400
  10524  10526  10528     1   109.8000471 387.438400
  10524  10526  10529     1   109.8000471 387.438400
  10525  10524  10526     1   109.5600471 388.275200
  10525  10524  10527     1   108.4600466 328.025600
  10526  10524  10527     1   109.5600471 388.275200
  10528  10526  10530     1   108.7700466 392.459200
  10528  10526  10529     1   107.5800459 329.699200
  10529  10526  10530     1   108.7700466 392.459200
  10530  10562  10552     1   119.3800509 410.868800
  10532  10523  10534     1   109.5600471 388.275200
  10532  10523  10533     1   108.4600466 328.025600
  10533  10523  10534     1   109.5600471 388.275200
  10535  10534  10537     1   108.7700466 392.459200
  10535  10534  10536     1   107.5800459 329.699200
  10536  10534  10537     1   108.7700466 392.459200
  10537  10586  10576     1   119.3800509 410.868800
  10539  10540  10559     1   109.5600471 388.275200
  10539  10550  10553     1   109.5600471 388.275200
  10539  10550  10554     1   109.5600471 388.275200
  10540  10542  10546     1   109.5600471 388.275200
  10540  10560  10561     1   107.2600461 396.643200
  10540  10539  10541     1   109.5600471 388.275200
  10541  10539  10550     1   109.5600471 388.275200
  10541  10539  10557     1   109.7800468 425.094400
  10542  10543  10545     1   109.5600471 388.275200
  10542  10549  10551     1   107.2600461 396.643200
  10542  10540  10559     1   109.5600471 388.275200
  10543  10544  10547     1   110.2200475 386.601600
  10543  10562  10552     1   109.2900470 396.643200
  10543  10542  10546     1   109.5600471 388.275200
  10544  10548  10558     1   107.2600461 396.643200
  10544  10543  10545     1   109.5600471 388.275200
  10545  10543  10562     1   109.8800469 414.216000
  10546  10542  10549     1   110.2600474 425.931200
  10547  10544  10548     1   109.4300470 427.604800
  10547  10544  10557     1   109.5800467 425.931200
  10550  10555  10556     1   107.2600461 396.643200
  10553  10550  10555     1   110.2600474 425.931200
  10553  10550  10554     1   108.4600466 328.025600
  10554  10550  10555     1   110.2600474 425.931200
  10559  10540  10560     1   110.2600474 425.931200
  10563  10564  10583     1   109.5600471 388.275200
  10563  10574  10577     1   109.5600471 388.275200
  10563  10574  10578     1   109.5600471 388.275200
  10564  10566  10570     1   109.5600471 388.275200
  10564  10584  10585     1   107.2600461 396.643200
  10564  10563  10565     1   109.5600471 388.275200
  10565  10563  10574     1   109.5600471 388.275200
  10565  10563  10581     1   109.7800468 425.094400
  10566  10567  10569     1   109.5600471 388.275200
  10566  10573  10575     1   107.2600461 396.643200
  10566  10564  10583     1   109.5600471 388.275200
  10567  10568  10571     1   110.2200475 386.601600
  10567  10586  10576     1   109.2900470 396.643200
  10567  10566  10570     1   109.5600471 388.275200
  10568  10572  10582     1   107.2600461 396.643200
  10568  10567  10569     1   109.5600471 388.275200
  10569  10567  10586     1   109.8800469 414.216000
  10570  10566  10573     1   110.2600474 425.931200
  10571  10568  10572     1   109.4300470 427.604800
  10571  10568  10581     1   109.5800467 425.931200
  10574  10579  10580     1   107.2600461 396.643200
  10577  10574  10579     1   110.2600474 425.931200
  10577  10574  10578     1   108.4600466 328.025600
  10578  10574  10579     1   110.2600474 425.931200
  10583  10564  10584     1   110.2600474 425.931200
  10587  10589  10590     1   108.8800464 416.726400
  10587  10589  10592     1   108.8800464 416.726400
  10588  10587  10589     1   117.6800502 383.254400
  10589  10591  10593     1   109.5600471 388.275200
  10589  10591  10594     1   109.5600471 388.275200
  10590  10589  10591     1   109.5600471 388.275200
  10590  10589  10592     1   108.4600466 328.025600
  10591  10589  10592     1   109.5600471 388.275200
  10593  10591  10595     1   109.8800469 414.216000
  10593  10591  10594     1   108.4600466 328.025600
  10594  10591  10595     1   109.8800469 414.216000
  10595  10596  10605     1   109.8800469 414.216000
  10595  10596  10606     1   109.8800469 414.216000
  10595  10597  10598     1   109.8800469 414.216000
  10595  10597  10600     1   109.8800469 414.216000
  10596  10607  10608     1   109.8000471 387.438400
  10596  10607  10609     1   109.8000471 387.438400
  10597  10599  10601     1   109.8000471 387.438400
  10597  10599  10602     1   109.8000471 387.438400
  10598  10597  10599     1   109.5600471 388.275200
  10598  10597  10600     1   108.4600466 328.025600
  10599  10597  10600     1   109.5600471 388.275200
  10601  10599  10603     1   108.7700466 392.459200
  10601  10599  10602     1   107.5800459 329.699200
  10602  10599  10603     1   108.7700466 392.459200
  10603  10635  10625     1   119.3800509 410.868800
  10605  10596  10607     1   109.5600471 388.275200
  10605  10596  10606     1   108.4600466 328.025600
  10606  10596  10607     1   109.5600471 388.275200
  10608  10607  10610     1   108.7700466 392.459200
  10608  10607  10609     1   107.5800459 329.699200
  10609  10607  10610     1   108.7700466 392.459200
  10610  10659  10649     1   119.3800509 410.868800
  10612  10613  10632     1   109.5600471 388.275200
  10612  10623  10626     1   109.5600471 388.275200
  10612  10623  10627     1   109.5600471 388.275200
  10613  10612  10614     1   109.5600471 388.275200
  10613  10615  10619     1   109.5600471 388.275200
  10613  10633  10634     1   107.2600461 396.643200
  10614  10612  10623     1   109.5600471 388.275200
  10614  10612  10630     1   109.7800468 425.094400
  10615  10613  10632     1   109.5600471 388.275200
  10615  10616  10618     1   109.5600471 388.275200
  10615  10622  10624     1   107.2600461 396.643200
  10616  10615  10619     1   109.5600471 388.275200
  10616  10617  10620     1   110.2200475 386.601600
  10616  10635  10625     1   109.2900470 396.643200
  10617  10616  10618     1   109.5600471 388.275200
  10617  10621  10631     1   107.2600461 396.643200
  10618  10616  10635     1   109.8800469 414.216000
  10619  10615  10622     1   110.2600474 425.931200
  10620  10617  10621     1   109.4300470 427.604800
  10620  10617  10630     1   109.5800467 425.931200
  10623  10628  10629     1   107.2600461 396.643200
  10626  10623  10628     1   110.2600474 425.931200
  10626  10623  10627     1   108.4600466 328.025600
  10627  10623  10628     1   110.2600474 425.931200
  10632  10613  10633     1   110.2600474 425.931200
  10636  10637  10656     1   109.5600471 388.275200
  10636  10647  10650     1   109.5600471 388.275200
  10636  10647  10651     1   109.5600471 388.275200
  10637  10636  10638     1   109.5600471 388.275200
  10637  10639  10643     1   109.5600471 388.275200
  10637  10657  10658     1   107.2600461 396.643200
  10638  10636  10647     1   109.5600471 388.275200
  10638  10636  10654     1   109.7800468 425.094400
  10639  10637  10656     1   109.5600471 388.275200
  10639  10640  10642     1   109.5600471 388.275200
  10639  10646  10648     1   107.2600461 396.643200
  10640  10639  10643     1   109.5600471 388.275200
  10640  10641  10644     1   110.2200475 386.601600
  10640  10659  10649     1   109.2900470 396.643200
  10641  10640  10642     1   109.5600471 388.275200
  10641  10645  10655     1   107.2600461 396.643200
  10642  10640  10659     1   109.8800469 414.216000
  10643  10639  10646     1   110.2600474 425.931200
  10644  10641  10645     1   109.4300470 427.604800
  10644  10641  10654     1   109.5800467 425.931200
  10647  10652  10653     1   107.2600461 396.643200
  10650  10647  10652     1   110.2600474 425.931200
  10650  10647  10651     1   108.4600466 328.025600
  10651  10647  10652     1   110.2600474 425.931200
  10656  10637  10657     1   110.2600474 425.931200
  10660  10662  10663     1   108.8800464 416.726400
  10660  10662  10665     1   108.8800464 416.726400
  10661  10660  10662     1   117.6800502 383.254400
  10662  10664  10666     1   109.5600471 388.275200
  10662  10664  10667     1   109.5600471 388.275200
  10663  10662  10664     1   109.5600471 388.275200
  10663  10662  10665     1   108.4600466 328.025600
  10664  10662  10665     1   109.5600471 388.275200
  10666  10664  10668     1   109.8800469 414.216000
  10666  10664  10667     1   108.4600466 328.025600
  10667  10664  10668     1   109.8800469 414.216000
  10668  10669  10678     1   109.8800469 414.216000
  10668  10669  10679     1   109.8800469 414.216000
  10668  10670  10671     1   109.8800469 414.216000
  10668  10670  10673     1   109.8800469 414.216000
  10669  10680  10681     1   109.8000471 387.438400
  10669  10680  10682     1   109.8000471 387.438400
  10670  10672  10674     1   109.8000471 387.438400
  10670  10672  10675     1   109.8000471 387.438400
  10671  10670  10672     1   109.5600471 388.275200
  10671  10670  10673     1   108.4600466 328.025600
  10672  10670  10673     1   109.5600471 388.275200
  10674  10672  10676     1   108.7700466 392.459200
  10674  10672  10675     1   107.5800459 329.699200
  10675  10672  10676     1   108.7700466 392.459200
  10676  10708  10698     1   119.3800509 410.868800
  10678  10669  10680     1   109.5600471 388.275200
  10678  10669  10679     1   108.4600466 328.025600
  10679  10669  10680     1   109.5600471 388.275200
  10681  10680  10683     1   108.7700466 392.459200
  10681  10680  10682     1   107.5800459 329.699200
  10682  10680  10683     1   108.7700466 392.459200
  10683  10732  10722     1   119.3800509 410.868800
  10685  10686  10705     1   109.5600471 388.275200
  10685  10696  10699     1   109.5600471 388.275200
  10685  10696  10700     1   109.5600471 388.275200
  10686  10688  10692     1   109.5600471 388.275200
  10686  10706  10707     1   107.2600461 396.643200
  10686  10685  10687     1   109.5600471 388.275200
  10687  10685  10696     1   109.5600471 388.275200
  10687  10685  10703     1   109.7800468 425.094400
  10688  10689  10691     1   109.5600471 388.275200
  10688  10695  10697     1   107.2600461 396.643200
  10688  10686  10705     1   109.5600471 388.275200
  10689  10690  10693     1   110.2200475 386.601600
  10689  10708  10698     1   109.2900470 396.643200
  10689  10688  10692     1   109.5600471 388.275200
  10690  10694  10704     1   107.2600461 396.643200
  10690  10689  10691     1   109.5600471 388.275200
  10691  10689  10708     1   109.8800469 414.216000
  10692  10688  10695     1   110.2600474 425.931200
  10693  10690  10694     1   109.4300470 427.604800
  10693  10690  10703     1   109.5800467 425.931200
  10696  10701  10702     1   107.2600461 396.643200
  10699  10696  10701     1   110.2600474 425.931200
  10699  10696  10700     1   108.4600466 328.025600
  10700  10696  10701     1   110.2600474 425.931200
  10705  10686  10706     1   110.2600474 425.931200
  10709  10710  10729     1   109.5600471 388.275200
  10709  10720  10723     1   109.5600471 388.275200
  10709  10720  10724     1   109.5600471 388.275200
  10710  10712  10716     1   109.5600471 388.275200
  10710  10730  10731     1   107.2600461 396.643200
  10710  10709  10711     1   109.5600471 388.275200
  10711  10709  10720     1   109.5600471 388.275200
  10711  10709  10727     1   109.7800468 425.094400
  10712  10713  10715     1   109.5600471 388.275200
  10712  10719  10721     1   107.2600461 396.643200
  10712  10710  10729     1   109.5600471 388.275200
  10713  10714  10717     1   110.2200475 386.601600
  10713  10732  10722     1   109.2900470 396.643200
  10713  10712  10716     1   109.5600471 388.275200
  10714  10718  10728     1   107.2600461 396.643200
  10714  10713  10715     1   109.5600471 388.275200
  10715  10713  10732     1   109.8800469 414.216000
  10716  10712  10719     1   110.2600474 425.931200
  10717  10714  10718     1   109.4300470 427.604800
  10717  10714  10727     1   109.5800467 425.931200
  10720  10725  10726     1   107.2600461 396.643200
  10723  10720  10725     1   110.2600474 425.931200
  10723  10720  10724     1   108.4600466 328.025600
  10724  10720  10725     1   110.2600474 425.931200
  10729  10710  10730     1   110.2600474 425.931200
  10733  10735  10736     1   108.8800464 416.726400
  10733  10735  10738     1   108.8800464 416.726400
  10734  10733  10735     1   117.6800502 383.254400
  10735  10737  10739     1   109.5600471 388.275200
  10735  10737  10740     1   109.5600471 388.275200
  10736  10735  10737     1   109.5600471 388.275200
  10736  10735  10738     1   108.4600466 328.025600
  10737  10735  10738     1   109.5600471 388.275200
  10739  10737  10741     1   109.8800469 414.216000
  10739  10737  10740     1   108.4600466 328.025600
  10740  10737  10741     1   109.8800469 414.216000
  10741  10742  10751     1   109.8800469 414.216000
  10741  10742  10752     1   109.8800469 414.216000
  10741  10743  10744     1   109.8800469 414.216000
  10741  10743  10746     1   109.8800469 414.216000
  10742  10753  10754     1   109.8000471 387.438400
  10742  10753  10755     1   109.8000471 387.438400
  10743  10745  10747     1   109.8000471 387.438400
  10743  10745  10748     1   109.8000471 387.438400
  10744  10743  10745     1   109.5600471 388.275200
  10744  10743  10746     1   108.4600466 328.025600
  10745  10743  10746     1   109.5600471 388.275200
  10747  10745  10749     1   108.7700466 392.459200
  10747  10745  10748     1   107.5800459 329.699200
  10748  10745  10749     1   108.7700466 392.459200
  10749  10781  10771     1   119.3800509 410.868800
  10751  10742  10753     1   109.5600471 388.275200
  10751  10742  10752     1   108.4600466 328.025600
  10752  10742  10753     1   109.5600471 388.275200
  10754  10753  10756     1   108.7700466 392.459200
  10754  10753  10755     1   107.5800459 329.699200
  10755  10753  10756     1   108.7700466 392.459200
  10756  10805  10795     1   119.3800509 410.868800
  10758  10759  10778     1   109.5600471 388.275200
  10758  10769  10772     1   109.5600471 388.275200
  10758  10769  10773     1   109.5600471 388.275200
  10759  10758  10760     1   109.5600471 388.275200
  10759  10761  10765     1   109.5600471 388.275200
  10759  10779  10780     1   107.2600461 396.643200
  10760  10758  10769     1   109.5600471 388.275200
  10760  10758  10776     1   109.7800468 425.094400
  10761  10759  10778     1   109.5600471 388.275200
  10761  10762  10764     1   109.5600471 388.275200
  10761  10768  10770     1   107.2600461 396.643200
  10762  10761  10765     1   109.5600471 388.275200
  10762  10763  10766     1   110.2200475 386.601600
  10762  10781  10771     1   109.2900470 396.643200
  10763  10762  10764     1   109.5600471 388.275200
  10763  10767  10777     1   107.2600461 396.643200
  10764  10762  10781     1   109.8800469 414.216000
  10765  10761  10768     1   110.2600474 425.931200
  10766  10763  10767     1   109.4300470 427.604800
  10766  10763  10776     1   109.5800467 425.931200
  10769  10774  10775     1   107.2600461 396.643200
  10772  10769  10774     1   110.2600474 425.931200
  10772  10769  10773     1   108.4600466 328.025600
  10773  10769  10774     1   110.2600474 425.931200
  10778  10759  10779     1   110.2600474 425.931200
  10782  10783  10802     1   109.5600471 388.275200
  10782  10793  10796     1   109.5600471 388.275200
  10782  10793  10797     1   109.5600471 388.275200
  10783  10782  10784     1   109.5600471 388.275200
  10783  10785  10789     1   109.5600471 388.275200
  10783  10803  10804     1   107.2600461 396.643200
  10784  10782  10793     1   109.5600471 388.275200
  10784  10782  10800     1   109.7800468 425.094400
  10785  10783  10802     1   109.5600471 388.275200
  10785  10786  10788     1   109.5600471 388.275200
  10785  10792  10794     1   107.2600461 396.643200
  10786  10785  10789     1   109.5600471 388.275200
  10786  10787  10790     1   110.2200475 386.601600
  10786  10805  10795     1   109.2900470 396.643200
  10787  10786  10788     1   109.5600471 388.275200
  10787  10791  10801     1   107.2600461 396.643200
  10788  10786  10805     1   109.8800469 414.216000
  10789  10785  10792     1   110.2600474 425.931200
  10790  10787  10791     1   109.4300470 427.604800
  10790  10787  10800     1   109.5800467 425.931200
  10793  10798  10799     1   107.2600461 396.643200
  10796  10793  10798     1   110.2600474 425.931200
  10796  10793  10797     1   108.4600466 328.025600
  10797  10793  10798     1   110.2600474 425.931200
  10802  10783  10803     1   110.2600474 425.931200
  10806  10808  10809     1   108.8800464 416.726400
  10806  10808  10811     1   108.8800464 416.726400
  10807  10806  10808     1   117.6800502 383.254400
  10808  10810  10812     1   109.5600471 388.275200
  10808  10810  10813     1   109.5600471 388.275200
  10809  10808  10810     1   109.5600471 388.275200
  10809  10808  10811     1   108.4600466 328.025600
  10810  10808  10811     1   109.5600471 388.275200
  10812  10810  10814     1   109.8800469 414.216000
  10812  10810  10813     1   108.4600466 328.025600
  10813  10810  10814     1   109.8800469 414.216000
  10814  10815  10824     1   109.8800469 414.216000
  10814  10815  10825     1   109.8800469 414.216000
  10814  10816  10817     1   109.8800469 414.216000
  10814  10816  10819     1   109.8800469 414.216000
  10815  10826  10827     1   109.8000471 387.438400
  10815  10826  10828     1   109.8000471 387.438400
  10816  10818  10820     1   109.8000471 387.438400
  10816  10818  10821     1   109.8000471 387.438400
  10817  10816  10818     1   109.5600471 388.275200
  10817  10816  10819     1   108.4600466 328.025600
  10818  10816  10819     1   109.5600471 388.275200
  10820  10818  10822     1   108.7700466 392.459200
  10820  10818  10821     1   107.5800459 329.699200
  10821  10818  10822     1   108.7700466 392.459200
  10822  10854  10844     1   119.3800509 410.868800
  10824  10815  10826     1   109.5600471 388.275200
  10824  10815  10825     1   108.4600466 328.025600
  10825  10815  10826     1   109.5600471 388.275200
  10827  10826  10829     1   108.7700466 392.459200
  10827  10826  10828     1   107.5800459 329.699200
  10828  10826  10829     1   108.7700466 392.459200
  10829  10878  10868     1   119.3800509 410.868800
  10831  10832  10851     1   109.5600471 388.275200
  10831  10842  10845     1   109.5600471 388.275200
  10831  10842  10846     1   109.5600471 388.275200
  10832  10834  10838     1   109.5600471 388.275200
  10832  10852  10853     1   107.2600461 396.643200
  10832  10831  10833     1   109.5600471 388.275200
  10833  10831  10842     1   109.5600471 388.275200
  10833  10831  10849     1   109.7800468 425.094400
  10834  10835  10837     1   109.5600471 388.275200
  10834  10841  10843     1   107.2600461 396.643200
  10834  10832  10851     1   109.5600471 388.275200
  10835  10836  10839     1   110.2200475 386.601600
  10835  10854  10844     1   109.2900470 396.643200
  10835  10834  10838     1   109.5600471 388.275200
  10836  10840  10850     1   107.2600461 396.643200
  10836  10835  10837     1   109.5600471 388.275200
  10837  10835  10854     1   109.8800469 414.216000
  10838  10834  10841     1   110.2600474 425.931200
  10839  10836  10840     1   109.4300470 427.604800
  10839  10836  10849     1   109.5800467 425.931200
  10842  10847  10848     1   107.2600461 396.643200
  10845  10842  10847     1   110.2600474 425.931200
  10845  10842  10846     1   108.4600466 328.025600
  10846  10842  10847     1   110.2600474 425.931200
  10851  10832  10852     1   110.2600474 425.931200
  10855  10856  10875     1   109.5600471 388.275200
  10855  10866  10869     1   109.5600471 388.275200
  10855  10866  10870     1   109.5600471 388.275200
  10856  10858  10862     1   109.5600471 388.275200
  10856  10876  10877     1   107.2600461 396.643200
  10856  10855  10857     1   109.5600471 388.275200
  10857  10855  10866     1   109.5600471 388.275200
  10857  10855  10873     1   109.7800468 425.094400
  10858  10859  10861     1   109.5600471 388.275200
  10858  10865  10867     1   107.2600461 396.643200
  10858  10856  10875     1   109.5600471 388.275200
  10859  10860  10863     1   110.2200475 386.601600
  10859  10878  10868     1   109.2900470 396.643200
  10859  10858  10862     1   109.5600471 388.275200
  10860  10864  10874     1   107.2600461 396.643200
  10860  10859  10861     1   109.5600471 388.275200
  10861  10859  10878     1   109.8800469 414.216000
  10862  10858  10865     1   110.2600474 425.931200
  10863  10860  10864     1   109.4300470 427.604800
  10863  10860  10873     1   109.5800467 425.931200
  10866  10871  10872     1   107.2600461 396.643200
  10869  10866  10871     1   110.2600474 425.931200
  10869  10866  10870     1   108.4600466 328.025600
  10870  10866  10871     1   110.2600474 425.931200
  10875  10856  10876     1   110.2600474 425.931200
  10879  10881  10882     1   108.8800464 416.726400
  10879  10881  10884     1   108.8800464 416.726400
  10880  10879  10881     1   117.6800502 383.254400
  10881  10883  10885     1   109.5600471 388.275200
  10881  10883  10886     1   109.5600471 388.275200
  10882  10881  10883     1   109.5600471 388.275200
  10882  10881  10884     1   108.4600466 328.025600
  10883  10881  10884     1   109.5600471 388.275200
  10885  10883  10887     1   109.8800469 414.216000
  10885  10883  10886     1   108.4600466 328.025600
  10886  10883  10887     1   109.8800469 414.216000
  10887  10888  10897     1   109.8800469 414.216000
  10887  10888  10898     1   109.8800469 414.216000
  10887  10889  10890     1   109.8800469 414.216000
  10887  10889  10892     1   109.8800469 414.216000
  10888  10899  10900     1   109.8000471 387.438400
  10888  10899  10901     1   109.8000471 387.438400
  10889  10891  10893     1   109.8000471 387.438400
  10889  10891  10894     1   109.8000471 387.438400
  10890  10889  10891     1   109.5600471 388.275200
  10890  10889  10892     1   108.4600466 328.025600
  10891  10889  10892     1   109.5600471 388.275200
  10893  10891  10895     1   108.7700466 392.459200
  10893  10891  10894     1   107.5800459 329.699200
  10894  10891  10895     1   108.7700466 392.459200
  10895  10927  10917     1   119.3800509 410.868800
  10897  10888  10899     1   109.5600471 388.275200
  10897  10888  10898     1   108.4600466 328.025600
  10898  10888  10899     1   109.5600471 388.275200
  10900  10899  10902     1   108.7700466 392.459200
  10900  10899  10901     1   107.5800459 329.699200
  10901  10899  10902     1   108.7700466 392.459200
  10902  10951  10941     1   119.3800509 410.868800
  10904  10905  10924     1   109.5600471 388.275200
  10904  10915  10918     1   109.5600471 388.275200
  10904  10915  10919     1   109.5600471 388.275200
  10905  10904  10906     1   109.5600471 388.275200
  10905  10907  10911     1   109.5600471 388.275200
  10905  10925  10926     1   107.2600461 396.643200
  10906  10904  10915     1   109.5600471 388.275200
  10906  10904  10922     1   109.7800468 425.094400
  10907  10905  10924     1   109.5600471 388.275200
  10907  10908  10910     1   109.5600471 388.275200
  10907  10914  10916     1   107.2600461 396.643200
  10908  10907  10911     1   109.5600471 388.275200
  10908  10909  10912     1   110.2200475 386.601600
  10908  10927  10917     1   109.2900470 396.643200
  10909  10908  10910     1   109.5600471 388.275200
  10909  10913  10923     1   107.2600461 396.643200
  10910  10908  10927     1   109.8800469 414.216000
  10911  10907  10914     1   110.2600474 425.931200
  10912  10909  10913     1   109.4300470 427.604800
  10912  10909  10922     1   109.5800467 425.931200
  10915  10920  10921     1   107.2600461 396.643200
  10918  10915  10920     1   110.2600474 425.931200
  10918  10915  10919     1   108.4600466 328.025600
  10919  10915  10920     1   110.2600474 425.931200
  10924  10905  10925     1   110.2600474 425.931200
  10928  10929  10948     1   109.5600471 388.275200
  10928  10939  10942     1   109.5600471 388.275200
  10928  10939  10943     1   109.5600471 388.275200
  10929  10928  10930     1   109.5600471 388.275200
  10929  10931  10935     1   109.5600471 388.275200
  10929  10949  10950     1   107.2600461 396.643200
  10930  10928  10939     1   109.5600471 388.275200
  10930  10928  10946     1   109.7800468 425.094400
  10931  10929  10948     1   109.5600471 388.275200
  10931  10932  10934     1   109.5600471 388.275200
  10931  10938  10940     1   107.2600461 396.643200
  10932  10931  10935     1   109.5600471 388.275200
  10932  10933  10936     1   110.2200475 386.601600
  10932  10951  10941     1   109.2900470 396.643200
  10933  10932  10934     1   109.5600471 388.275200
  10933  10937  10947     1   107.2600461 396.643200
  10934  10932  10951     1   109.8800469 414.216000
  10935  10931  10938     1   110.2600474 425.931200
  10936  10933  10937     1   109.4300470 427.604800
  10936  10933  10946     1   109.5800467 425.931200
  10939  10944  10945     1   107.2600461 396.643200
  10942  10939  10944     1   110.2600474 425.931200
  10942  10939  10943     1   108.4600466 328.025600
  10943  10939  10944     1   110.2600474 425.931200
  10948  10929  10949     1   110.2600474 425.931200
  10952  10954  10955     1   108.8800464 416.726400
  10952  10954  10957     1   108.8800464 416.726400
  10953  10952  10954     1   117.6800502 383.254400
  10954  10956  10958     1   109.5600471 388.275200
  10954  10956  10959     1   109.5600471 388.275200
  10955  10954  10956     1   109.5600471 388.275200
  10955  10954  10957     1   108.4600466 328.025600
  10956  10954  10957     1   109.5600471 388.275200
  10958  10956  10960     1   109.8800469 414.216000
  10958  10956  10959     1   108.4600466 328.025600
  10959  10956  10960     1   109.8800469 414.216000
  10960  10961  10970     1   109.8800469 414.216000
  10960  10961  10971     1   109.8800469 414.216000
  10960  10962  10963     1   109.8800469 414.216000
  10960  10962  10965     1   109.8800469 414.216000
  10961  10972  10973     1   109.8000471 387.438400
  10961  10972  10974     1   109.8000471 387.438400
  10962  10964  10966     1   109.8000471 387.438400
  10962  10964  10967     1   109.8000471 387.438400
  10963  10962  10964     1   109.5600471 388.275200
  10963  10962  10965     1   108.4600466 328.025600
  10964  10962  10965     1   109.5600471 388.275200
  10966  10964  10968     1   108.7700466 392.459200
  10966  10964  10967     1   107.5800459 329.699200
  10967  10964  10968     1   108.7700466 392.459200
  10968  11000  10990     1   119.3800509 410.868800
  10970  10961  10972     1   109.5600471 388.275200
  10970  10961  10971     1   108.4600466 328.025600
  10971  10961  10972     1   109.5600471 388.275200
  10973  10972  10975     1   108.7700466 392.459200
  10973  10972  10974     1   107.5800459 329.699200
  10974  10972  10975     1   108.7700466 392.459200
  10975  11024  11014     1   119.3800509 410.868800
  10977  10978  10997     1   109.5600471 388.275200
  10977  10988  10991     1   109.5600471 388.275200
  10977  10988  10992     1   109.5600471 388.275200
  10978  10980  10984     1   109.5600471 388.275200
  10978  10998  10999     1   107.2600461 396.643200
  10978  10977  10979     1   109.5600471 388.275200
  10979  10977  10988     1   109.5600471 388.275200
  10979  10977  10995     1   109.7800468 425.094400
  10980  10981  10983     1   109.5600471 388.275200
  10980  10987  10989     1   107.2600461 396.643200
  10980  10978  10997     1   109.5600471 388.275200
  10981  10982  10985     1   110.2200475 386.601600
  10981  11000  10990     1   109.2900470 396.643200
  10981  10980  10984     1   109.5600471 388.275200
  10982  10986  10996     1   107.2600461 396.643200
  10982  10981  10983     1   109.5600471 388.275200
  10983  10981  11000     1   109.8800469 414.216000
  10984  10980  10987     1   110.2600474 425.931200
  10985  10982  10986     1   109.4300470 427.604800
  10985  10982  10995     1   109.5800467 425.931200
  10988  10993  10994     1   107.2600461 396.643200
  10991  10988  10993     1   110.2600474 425.931200
  10991  10988  10992     1   108.4600466 328.025600
  10992  10988  10993     1   110.2600474 425.931200
  10997  10978  10998     1   110.2600474 425.931200
  11001  11002  11021     1   109.5600471 388.275200
  11001  11012  11015     1   109.5600471 388.275200
  11001  11012  11016     1   109.5600471 388.275200
  11002  11004  11008     1   109.5600471 388.275200
  11002  11022  11023     1   107.2600461 396.643200
  11002  11001  11003     1   109.5600471 388.275200
  11003  11001  11012     1   109.5600471 388.275200
  11003  11001  11019     1   109.7800468 425.094400
  11004  11005  11007     1   109.5600471 388.275200
  11004  11011  11013     1   107.2600461 396.643200
  11004  11002  11021     1   109.5600471 388.275200
  11005  11006  11009     1   110.2200475 386.601600
  11005  11024  11014     1   109.2900470 396.643200
  11005  11004  11008     1   109.5600471 388.275200
  11006  11010  11020     1   107.2600461 396.643200
  11006  11005  11007     1   109.5600471 388.275200
  11007  11005  11024     1   109.8800469 414.216000
  11008  11004  11011     1   110.2600474 425.931200
  11009  11006  11010     1   109.4300470 427.604800
  11009  11006  11019     1   109.5800467 425.931200
  11012  11017  11018     1   107.2600461 396.643200
  11015  11012  11017     1   110.2600474 425.931200
  11015  11012  11016     1   108.4600466 328.025600
  11016  11012  11017     1   110.2600474 425.931200
  11021  11002  11022     1   110.2600474 425.931200
  11025  11027  11028     1   108.8800464 416.726400
  11025  11027  11030     1   108.8800464 416.726400
  11026  11025  11027     1   117.6800502 383.254400
  11027  11029  11031     1   109.5600471 388.275200
  11027  11029  11032     1   109.5600471 388.275200
  11028  11027  11029     1   109.5600471 388.275200
  11028  11027  11030     1   108.4600466 328.025600
  11029  11027  11030     1   109.5600471 388.275200
  11031  11029  11033     1   109.8800469 414.216000
  11031  11029  11032     1   108.4600466 328.025600
  11032  11029  11033     1   109.8800469 414.216000
  11033  11034  11043     1   109.8800469 414.216000
  11033  11034  11044     1   109.8800469 414.216000
  11033  11035  11036     1   109.8800469 414.216000
  11033  11035  11038     1   109.8800469 414.216000
  11034  11045  11046     1   109.8000471 387.438400
  11034  11045  11047     1   109.8000471 387.438400
  11035  11037  11039     1   109.8000471 387.438400
  11035  11037  11040     1   109.8000471 387.438400
  11036  11035  11037     1   109.5600471 388.275200
  11036  11035  11038     1   108.4600466 328.025600
  11037  11035  11038     1   109.5600471 388.275200
  11039  11037  11041     1   108.7700466 392.459200
  11039  11037  11040     1   107.5800459 329.699200
  11040  11037  11041     1   108.7700466 392.459200
  11041  11073  11063     1   119.3800509 410.868800
  11043  11034  11045     1   109.5600471 388.275200
  11043  11034  11044     1   108.4600466 328.025600
  11044  11034  11045     1   109.5600471 388.275200
  11046  11045  11048     1   108.7700466 392.459200
  11046  11045  11047     1   107.5800459 329.699200
  11047  11045  11048     1   108.7700466 392.459200
  11048  11097  11087     1   119.3800509 410.868800
  11050  11051  11070     1   109.5600471 388.275200
  11050  11061  11064     1   109.5600471 388.275200
  11050  11061  11065     1   109.5600471 388.275200
  11051  11050  11052     1   109.5600471 388.275200
  11051  11053  11057     1   109.5600471 388.275200
  11051  11071  11072     1   107.2600461 396.643200
  11052  11050  11061     1   109.5600471 388.275200
  11052  11050  11068     1   109.7800468 425.094400
  11053  11051  11070     1   109.5600471 388.275200
  11053  11054  11056     1   109.5600471 388.275200
  11053  11060  11062     1   107.2600461 396.643200
  11054  11053  11057     1   109.5600471 388.275200
  11054  11055  11058     1   110.2200475 386.601600
  11054  11073  11063     1   109.2900470 396.643200
  11055  11054  11056     1   109.5600471 388.275200
  11055  11059  11069     1   107.2600461 396.643200
  11056  11054  11073     1   109.8800469 414.216000
  11057  11053  11060     1   110.2600474 425.931200
  11058  11055  11059     1   109.4300470 427.604800
  11058  11055  11068     1   109.5800467 425.931200
  11061  11066  11067     1   107.2600461 396.643200
  11064  11061  11066     1   110.2600474 425.931200
  11064  11061  11065     1   108.4600466 328.025600
  11065  11061  11066     1   110.2600474 425.931200
  11070  11051  11071     1   110.2600474 425.931200
  11074  11075  11094     1   109.5600471 388.275200
  11074  11085  11088     1   109.5600471 388.275200
  11074  11085  11089     1   109.5600471 388.275200
  11075  11074  11076     1   109.5600471 388.275200
  11075  11077  11081     1   109.5600471 388.275200
  11075  11095  11096     1   107.2600461 396.643200
  11076  11074  11085     1   109.5600471 388.275200
  11076  11074  11092     1   109.7800468 425.094400
  11077  11075  11094     1   109.5600471 388.275200
  11077  11078  11080     1   109.5600471 388.275200
  11077  11084  11086     1   107.2600461 396.643200
  11078  11077  11081     1   109.5600471 388.275200
  11078  11079  11082     1   110.2200475 386.601600
  11078  11097  11087     1   109.2900470 396.643200
  11079  11078  11080     1   109.5600471 388.275200
  11079  11083  11093     1   107.2600461 396.643200
  11080  11078  11097     1   109.8800469 414.216000
  11081  11077  11084     1   110.2600474 425.931200
  11082  11079  11083     1   109.4300470 427.604800
  11082  11079  11092     1   109.5800467 425.931200
  11085  11090  11091     1   107.2600461 396.643200
  11088  11085  11090     1   110.2600474 425.931200
  11088  11085  11089     1   108.4600466 328.025600
  11089  11085  11090     1   110.2600474 425.931200
  11094  11075  11095     1   110.2600474 425.931200
  11098  11100  11101     1   108.8800464 416.726400
  11098  11100  11103     1   108.8800464 416.726400
  11099  11098  11100     1   117.6800502 383.254400
  11100  11102  11104     1   109.5600471 388.275200
  11100  11102  11105     1   109.5600471 388.275200
  11101  11100  11102     1   109.5600471 388.275200
  11101  11100  11103     1   108.4600466 328.025600
  11102  11100  11103     1   109.5600471 388.275200
  11104  11102  11106     1   109.8800469 414.216000
  11104  11102  11105     1   108.4600466 328.025600
  11105  11102  11106     1   109.8800469 414.216000
  11106  11107  11116     1   109.8800469 414.216000
  11106  11107  11117     1   109.8800469 414.216000
  11106  11108  11109     1   109.8800469 414.216000
  11106  11108  11111     1   109.8800469 414.216000
  11107  11118  11119     1   109.8000471 387.438400
  11107  11118  11120     1   109.8000471 387.438400
  11108  11110  11112     1   109.8000471 387.438400
  11108  11110  11113     1   109.8000471 387.438400
  11109  11108  11110     1   109.5600471 388.275200
  11109  11108  11111     1   108.4600466 328.025600
  11110  11108  11111     1   109.5600471 388.275200
  11112  11110  11114     1   108.7700466 392.459200
  11112  11110  11113     1   107.5800459 329.699200
  11113  11110  11114     1   108.7700466 392.459200
  11114  11146  11136     1   119.3800509 410.868800
  11116  11107  11118     1   109.5600471 388.275200
  11116  11107  11117     1   108.4600466 328.025600
  11117  11107  11118     1   109.5600471 388.275200
  11119  11118  11121     1   108.7700466 392.459200
  11119  11118  11120     1   107.5800459 329.699200
  11120  11118  11121     1   108.7700466 392.459200
  11121  11170  11160     1   119.3800509 410.868800
  11123  11124  11143     1   109.5600471 388.275200
  11123  11134  11137     1   109.5600471 388.275200
  11123  11134  11138     1   109.5600471 388.275200
  11124  11126  11130     1   109.5600471 388.275200
  11124  11144  11145     1   107.2600461 396.643200
  11124  11123  11125     1   109.5600471 388.275200
  11125  11123  11134     1   109.5600471 388.275200
  11125  11123  11141     1   109.7800468 425.094400
  11126  11127  11129     1   109.5600471 388.275200
  11126  11133  11135     1   107.2600461 396.643200
  11126  11124  11143     1   109.5600471 388.275200
  11127  11128  11131     1   110.2200475 386.601600
  11127  11146  11136     1   109.2900470 396.643200
  11127  11126  11130     1   109.5600471 388.275200
  11128  11132  11142     1   107.2600461 396.643200
  11128  11127  11129     1   109.5600471 388.275200
  11129  11127  11146     1   109.8800469 414.216000
  11130  11126  11133     1   110.2600474 425.931200
  11131  11128  11132     1   109.4300470 427.604800
  11131  11128  11141     1   109.5800467 425.931200
  11134  11139  11140     1   107.2600461 396.643200
  11137  11134  11139     1   110.2600474 425.931200
  11137  11134  11138     1   108.4600466 328.025600
  11138  11134  11139     1   110.2600474 425.931200
  11143  11124  11144     1   110.2600474 425.931200
  11147  11148  11167     1   109.5600471 388.275200
  11147  11158  11161     1   109.5600471 388.275200
  11147  11158  11162     1   109.5600471 388.275200
  11148  11150  11154     1   109.5600471 388.275200
  11148  11168  11169     1   107.2600461 396.643200
  11148  11147  11149     1   109.5600471 388.275200
  11149  11147  11158     1   109.5600471 388.275200
  11149  11147  11165     1   109.7800468 425.094400
  11150  11151  11153     1   109.5600471 388.275200
  11150  11157  11159     1   107.2600461 396.643200
  11150  11148  11167     1   109.5600471 388.275200
  11151  11152  11155     1   110.2200475 386.601600
  11151  11170  11160     1   109.2900470 396.643200
  11151  11150  11154     1   109.5600471 388.275200
  11152  11156  11166     1   107.2600461 396.643200
  11152  11151  11153     1   109.5600471 388.275200
  11153  11151  11170     1   109.8800469 414.216000
  11154  11150  11157     1   110.2600474 425.931200
  11155  11152  11156     1   109.4300470 427.604800
  11155  11152  11165     1   109.5800467 425.931200
  11158  11163  11164     1   107.2600461 396.643200
  11161  11158  11163     1   110.2600474 425.931200
  11161  11158  11162     1   108.4600466 328.025600
  11162  11158  11163     1   110.2600474 425.931200
  11167  11148  11168     1   110.2600474 425.931200
  11171  11173  11174     1   108.8800464 416.726400
  11171  11173  11176     1   108.8800464 416.726400
  11172  11171  11173     1   117.6800502 383.254400
  11173  11175  11177     1   109.5600471 388.275200
  11173  11175  11178     1   109.5600471 388.275200
  11174  11173  11175     1   109.5600471 388.275200
  11174  11173  11176     1   108.4600466 328.025600
  11175  11173  11176     1   109.5600471 388.275200
  11177  11175  11179     1   109.8800469 414.216000
  11177  11175  11178     1   108.4600466 328.025600
  11178  11175  11179     1   109.8800469 414.216000
  11179  11180  11189     1   109.8800469 414.216000
  11179  11180  11190     1   109.8800469 414.216000
  11179  11181  11182     1   109.8800469 414.216000
  11179  11181  11184     1   109.8800469 414.216000
  11180  11191  11192     1   109.8000471 387.438400
  11180  11191  11193     1   109.8000471 387.438400
  11181  11183  11185     1   109.8000471 387.438400
  11181  11183  11186     1   109.8000471 387.438400
  11182  11181  11183     1   109.5600471 388.275200
  11182  11181  11184     1   108.4600466 328.025600
  11183  11181  11184     1   109.5600471 388.275200
  11185  11183  11187     1   108.7700466 392.459200
  11185  11183  11186     1   107.5800459 329.699200
  11186  11183  11187     1   108.7700466 392.459200
  11187  11219  11209     1   119.3800509 410.868800
  11189  11180  11191     1   109.5600471 388.275200
  11189  11180  11190     1   108.4600466 328.025600
  11190  11180  11191     1   109.5600471 388.275200
  11192  11191  11194     1   108.7700466 392.459200
  11192  11191  11193     1   107.5800459 329.699200
  11193  11191  11194     1   108.7700466 392.459200
  11194  11243  11233     1   119.3800509 410.868800
  11196  11197  11216     1   109.5600471 388.275200
  11196  11207  11210     1   109.5600471 388.275200
  11196  11207  11211     1   109.5600471 388.275200
  11197  11196  11198     1   109.5600471 388.275200
  11197  11199  11203     1   109.5600471 388.275200
  11197  11217  11218     1   107.2600461 396.643200
  11198  11196  11207     1   109.5600471 388.275200
  11198  11196  11214     1   109.7800468 425.094400
  11199  11197  11216     1   109.5600471 388.275200
  11199  11200  11202     1   109.5600471 388.275200
  11199  11206  11208     1   107.2600461 396.643200
  11200  11199  11203     1   109.5600471 388.275200
  11200  11201  11204     1   110.2200475 386.601600
  11200  11219  11209     1   109.2900470 396.643200
  11201  11200  11202     1   109.5600471 388.275200
  11201  11205  11215     1   107.2600461 396.643200
  11202  11200  11219     1   109.8800469 414.216000
  11203  11199  11206     1   110.2600474 425.931200
  11204  11201  11205     1   109.4300470 427.604800
  11204  11201  11214     1   109.5800467 425.931200
  11207  11212  11213     1   107.2600461 396.643200
  11210  11207  11212     1   110.2600474 425.931200
  11210  11207  11211     1   108.4600466 328.025600
  11211  11207  11212     1   110.2600474 425.931200
  11216  11197  11217     1   110.2600474 425.931200
  11220  11221  11240     1   109.5600471 388.275200
  11220  11231  11234     1   109.5600471 388.275200
  11220  11231  11235     1   109.5600471 388.275200
  11221  11220  11222     1   109.5600471 388.275200
  11221  11223  11227     1   109.5600471 388.275200
  11221  11241  11242     1   107.2600461 396.643200
  11222  11220  11231     1   109.5600471 388.275200
  11222  11220  11238     1   109.7800468 425.094400
  11223  11221  11240     1   109.5600471 388.275200
  11223  11224  11226     1   109.5600471 388.275200
  11223  11230  11232     1   107.2600461 396.643200
  11224  11223  11227     1   109.5600471 388.275200
  11224  11225  11228     1   110.2200475 386.601600
  11224  11243  11233     1   109.2900470 396.643200
  11225  11224  11226     1   109.5600471 388.275200
  11225  11229  11239     1   107.2600461 396.643200
  11226  11224  11243     1   109.8800469 414.216000
  11227  11223  11230     1   110.2600474 425.931200
  11228  11225  11229     1   109.4300470 427.604800
  11228  11225  11238     1   109.5800467 425.931200
  11231  11236  11237     1   107.2600461 396.643200
  11234  11231  11236     1   110.2600474 425.931200
  11234  11231  11235     1   108.4600466 328.025600
  11235  11231  11236     1   110.2600474 425.931200
  11240  11221  11241     1   110.2600474 425.931200
  11244  11246  11247     1   108.8800464 416.726400
  11244  11246  11249     1   108.8800464 416.726400
  11245  11244  11246     1   117.6800502 383.254400
  11246  11248  11250     1   109.5600471 388.275200
  11246  11248  11251     1   109.5600471 388.275200
  11247  11246  11248     1   109.5600471 388.275200
  11247  11246  11249     1   108.4600466 328.025600
  11248  11246  11249     1   109.5600471 388.275200
  11250  11248  11252     1   109.8800469 414.216000
  11250  11248  11251     1   108.4600466 328.025600
  11251  11248  11252     1   109.8800469 414.216000
  11252  11253  11262     1   109.8800469 414.216000
  11252  11253  11263     1   109.8800469 414.216000
  11252  11254  11255     1   109.8800469 414.216000
  11252  11254  11257     1   109.8800469 414.216000
  11253  11264  11265     1   109.8000471 387.438400
  11253  11264  11266     1   109.8000471 387.438400
  11254  11256  11258     1   109.8000471 387.438400
  11254  11256  11259     1   109.8000471 387.438400
  11255  11254  11256     1   109.5600471 388.275200
  11255  11254  11257     1   108.4600466 328.025600
  11256  11254  11257     1   109.5600471 388.275200
  11258  11256  11260     1   108.7700466 392.459200
  11258  11256  11259     1   107.5800459 329.699200
  11259  11256  11260     1   108.7700466 392.459200
  11260  11292  11282     1   119.3800509 410.868800
  11262  11253  11264     1   109.5600471 388.275200
  11262  11253  11263     1   108.4600466 328.025600
  11263  11253  11264     1   109.5600471 388.275200
  11265  11264  11267     1   108.7700466 392.459200
  11265  11264  11266     1   107.5800459 329.699200
  11266  11264  11267     1   108.7700466 392.459200
  11267  11316  11306     1   119.3800509 410.868800
  11269  11270  11289     1   109.5600471 388.275200
  11269  11280  11283     1   109.5600471 388.275200
  11269  11280  11284     1   109.5600471 388.275200
  11270  11272  11276     1   109.5600471 388.275200
  11270  11290  11291     1   107.2600461 396.643200
  11270  11269  11271     1   109.5600471 388.275200
  11271  11269  11280     1   109.5600471 388.275200
  11271  11269  11287     1   109.7800468 425.094400
  11272  11273  11275     1   109.5600471 388.275200
  11272  11279  11281     1   107.2600461 396.643200
  11272  11270  11289     1   109.5600471 388.275200
  11273  11274  11277     1   110.2200475 386.601600
  11273  11292  11282     1   109.2900470 396.643200
  11273  11272  11276     1   109.5600471 388.275200
  11274  11278  11288     1   107.2600461 396.643200
  11274  11273  11275     1   109.5600471 388.275200
  11275  11273  11292     1   109.8800469 414.216000
  11276  11272  11279     1   110.2600474 425.931200
  11277  11274  11278     1   109.4300470 427.604800
  11277  11274  11287     1   109.5800467 425.931200
  11280  11285  11286     1   107.2600461 396.643200
  11283  11280  11285     1   110.2600474 425.931200
  11283  11280  11284     1   108.4600466 328.025600
  11284  11280  11285     1   110.2600474 425.931200
  11289  11270  11290     1   110.2600474 425.931200
  11293  11294  11313     1   109.5600471 388.275200
  11293  11304  11307     1   109.5600471 388.275200
  11293  11304  11308     1   109.5600471 388.275200
  11294  11296  11300     1   109.5600471 388.275200
  11294  11314  11315     1   107.2600461 396.643200
  11294  11293  11295     1   109.5600471 388.275200
  11295  11293  11304     1   109.5600471 388.275200
  11295  11293  11311     1   109.7800468 425.094400
  11296  11297  11299     1   109.5600471 388.275200
  11296  11303  11305     1   107.2600461 396.643200
  11296  11294  11313     1   109.5600471 388.275200
  11297  11298  11301     1   110.2200475 386.601600
  11297  11316  11306     1   109.2900470 396.643200
  11297  11296  11300     1   109.5600471 388.275200
  11298  11302  11312     1   107.2600461 396.643200
  11298  11297  11299     1   109.5600471 388.275200
  11299  11297  11316     1   109.8800469 414.216000
  11300  11296  11303     1   110.2600474 425.931200
  11301  11298  11302     1   109.4300470 427.604800
  11301  11298  11311     1   109.5800467 425.931200
  11304  11309  11310     1   107.2600461 396.643200
  11307  11304  11309     1   110.2600474 425.931200
  11307  11304  11308     1   108.4600466 328.025600
  11308  11304  11309     1   110.2600474 425.931200
  11313  11294  11314     1   110.2600474 425.931200
  11317  11319  11320     1   108.8800464 416.726400
  11317  11319  11322     1   108.8800464 416.726400
  11318  11317  11319     1   117.6800502 383.254400
  11319  11321  11323     1   109.5600471 388.275200
  11319  11321  11324     1   109.5600471 388.275200
  11320  11319  11321     1   109.5600471 388.275200
  11320  11319  11322     1   108.4600466 328.025600
  11321  11319  11322     1   109.5600471 388.275200
  11323  11321  11325     1   109.8800469 414.216000
  11323  11321  11324     1   108.4600466 328.025600
  11324  11321  11325     1   109.8800469 414.216000
  11325  11326  11335     1   109.8800469 414.216000
  11325  11326  11336     1   109.8800469 414.216000
  11325  11327  11328     1   109.8800469 414.216000
  11325  11327  11330     1   109.8800469 414.216000
  11326  11337  11338     1   109.8000471 387.438400
  11326  11337  11339     1   109.8000471 387.438400
  11327  11329  11331     1   109.8000471 387.438400
  11327  11329  11332     1   109.8000471 387.438400
  11328  11327  11329     1   109.5600471 388.275200
  11328  11327  11330     1   108.4600466 328.025600
  11329  11327  11330     1   109.5600471 388.275200
  11331  11329  11333     1   108.7700466 392.459200
  11331  11329  11332     1   107.5800459 329.699200
  11332  11329  11333     1   108.7700466 392.459200
  11333  11365  11355     1   119.3800509 410.868800
  11335  11326  11337     1   109.5600471 388.275200
  11335  11326  11336     1   108.4600466 328.025600
  11336  11326  11337     1   109.5600471 388.275200
  11338  11337  11340     1   108.7700466 392.459200
  11338  11337  11339     1   107.5800459 329.699200
  11339  11337  11340     1   108.7700466 392.459200
  11340  11389  11379     1   119.3800509 410.868800
  11342  11343  11362     1   109.5600471 388.275200
  11342  11353  11356     1   109.5600471 388.275200
  11342  11353  11357     1   109.5600471 388.275200
  11343  11342  11344     1   109.5600471 388.275200
  11343  11345  11349     1   109.5600471 388.275200
  11343  11363  11364     1   107.2600461 396.643200
  11344  11342  11353     1   109.5600471 388.275200
  11344  11342  11360     1   109.7800468 425.094400
  11345  11343  11362     1   109.5600471 388.275200
  11345  11346  11348     1   109.5600471 388.275200
  11345  11352  11354     1   107.2600461 396.643200
  11346  11345  11349     1   109.5600471 388.275200
  11346  11347  11350     1   110.2200475 386.601600
  11346  11365  11355     1   109.2900470 396.643200
  11347  11346  11348     1   109.5600471 388.275200
  11347  11351  11361     1   107.2600461 396.643200
  11348  11346  11365     1   109.8800469 414.216000
  11349  11345  11352     1   110.2600474 425.931200
  11350  11347  11351     1   109.4300470 427.604800
  11350  11347  11360     1   109.5800467 425.931200
  11353  11358  11359     1   107.2600461 396.643200
  11356  11353  11358     1   110.2600474 425.931200
  11356  11353  11357     1   108.4600466 328.025600
  11357  11353  11358     1   110.2600474 425.931200
  11362  11343  11363     1   110.2600474 425.931200
  11366  11367  11386     1   109.5600471 388.275200
  11366  11377  11380     1   109.5600471 388.275200
  11366  11377  11381     1   109.5600471 388.275200
  11367  11366  11368     1   109.5600471 388.275200
  11367  11369  11373     1   109.5600471 388.275200
  11367  11387  11388     1   107.2600461 396.643200
  11368  11366  11377     1   109.5600471 388.275200
  11368  11366  11384     1   109.7800468 425.094400
  11369  11367  11386     1   109.5600471 388.275200
  11369  11370  11372     1   109.5600471 388.275200
  11369  11376  11378     1   107.2600461 396.643200
  11370  11369  11373     1   109.5600471 388.275200
  11370  11371  11374     1   110.2200475 386.601600
  11370  11389  11379     1   109.2900470 396.643200
  11371  11370  11372     1   109.5600471 388.275200
  11371  11375  11385     1   107.2600461 396.643200
  11372  11370  11389     1   109.8800469 414.216000
  11373  11369  11376     1   110.2600474 425.931200
  11374  11371  11375     1   109.4300470 427.604800
  11374  11371  11384     1   109.5800467 425.931200
  11377  11382  11383     1   107.2600461 396.643200
  11380  11377  11382     1   110.2600474 425.931200
  11380  11377  11381     1   108.4600466 328.025600
  11381  11377  11382     1   110.2600474 425.931200
  11386  11367  11387     1   110.2600474 425.931200
  11390  11392  11393     1   108.8800464 416.726400
  11390  11392  11395     1   108.8800464 416.726400
  11391  11390  11392     1   117.6800502 383.254400
  11392  11394  11396     1   109.5600471 388.275200
  11392  11394  11397     1   109.5600471 388.275200
  11393  11392  11394     1   109.5600471 388.275200
  11393  11392  11395     1   108.4600466 328.025600
  11394  11392  11395     1   109.5600471 388.275200
  11396  11394  11398     1   109.8800469 414.216000
  11396  11394  11397     1   108.4600466 328.025600
  11397  11394  11398     1   109.8800469 414.216000
  11398  11399  11408     1   109.8800469 414.216000
  11398  11399  11409     1   109.8800469 414.216000
  11398  11400  11401     1   109.8800469 414.216000
  11398  11400  11403     1   109.8800469 414.216000
  11399  11410  11411     1   109.8000471 387.438400
  11399  11410  11412     1   109.8000471 387.438400
  11400  11402  11404     1   109.8000471 387.438400
  11400  11402  11405     1   109.8000471 387.438400
  11401  11400  11402     1   109.5600471 388.275200
  11401  11400  11403     1   108.4600466 328.025600
  11402  11400  11403     1   109.5600471 388.275200
  11404  11402  11406     1   108.7700466 392.459200
  11404  11402  11405     1   107.5800459 329.699200
  11405  11402  11406     1   108.7700466 392.459200
  11406  11438  11428     1   119.3800509 410.868800
  11408  11399  11410     1   109.5600471 388.275200
  11408  11399  11409     1   108.4600466 328.025600
  11409  11399  11410     1   109.5600471 388.275200
  11411  11410  11413     1   108.7700466 392.459200
  11411  11410  11412     1   107.5800459 329.699200
  11412  11410  11413     1   108.7700466 392.459200
  11413  11462  11452     1   119.3800509 410.868800
  11415  11416  11435     1   109.5600471 388.275200
  11415  11426  11429     1   109.5600471 388.275200
  11415  11426  11430     1   109.5600471 388.275200
  11416  11418  11422     1   109.5600471 388.275200
  11416  11436  11437     1   107.2600461 396.643200
  11416  11415  11417     1   109.5600471 388.275200
  11417  11415  11426     1   109.5600471 388.275200
  11417  11415  11433     1   109.7800468 425.094400
  11418  11419  11421     1   109.5600471 388.275200
  11418  11425  11427     1   107.2600461 396.643200
  11418  11416  11435     1   109.5600471 388.275200
  11419  11420  11423     1   110.2200475 386.601600
  11419  11438  11428     1   109.2900470 396.643200
  11419  11418  11422     1   109.5600471 388.275200
  11420  11424  11434     1   107.2600461 396.643200
  11420  11419  11421     1   109.5600471 388.275200
  11421  11419  11438     1   109.8800469 414.216000
  11422  11418  11425     1   110.2600474 425.931200
  11423  11420  11424     1   109.4300470 427.604800
  11423  11420  11433     1   109.5800467 425.931200
  11426  11431  11432     1   107.2600461 396.643200
  11429  11426  11431     1   110.2600474 425.931200
  11429  11426  11430     1   108.4600466 328.025600
  11430  11426  11431     1   110.2600474 425.931200
  11435  11416  11436     1   110.2600474 425.931200
  11439  11440  11459     1   109.5600471 388.275200
  11439  11450  11453     1   109.5600471 388.275200
  11439  11450  11454     1   109.5600471 388.275200
  11440  11442  11446     1   109.5600471 388.275200
  11440  11460  11461     1   107.2600461 396.643200
  11440  11439  11441     1   109.5600471 388.275200
  11441  11439  11450     1   109.5600471 388.275200
  11441  11439  11457     1   109.7800468 425.094400
  11442  11443  11445     1   109.5600471 388.275200
  11442  11449  11451     1   107.2600461 396.643200
  11442  11440  11459     1   109.5600471 388.275200
  11443  11444  11447     1   110.2200475 386.601600
  11443  11462  11452     1   109.2900470 396.643200
  11443  11442  11446     1   109.5600471 388.275200
  11444  11448  11458     1   107.2600461 396.643200
  11444  11443  11445     1   109.5600471 388.275200
  11445  11443  11462     1   109.8800469 414.216000
  11446  11442  11449     1   110.2600474 425.931200
  11447  11444  11448     1   109.4300470 427.604800
  11447  11444  11457     1   109.5800467 425.931200
  11450  11455  11456     1   107.2600461 396.643200
  11453  11450  11455     1   110.2600474 425.931200
  11453  11450  11454     1   108.4600466 328.025600
  11454  11450  11455     1   110.2600474 425.931200
  11459  11440  11460     1   110.2600474 425.931200
  11463  11465  11466     1   108.8800464 416.726400
  11463  11465  11468     1   108.8800464 416.726400
  11464  11463  11465     1   117.6800502 383.254400
  11465  11467  11469     1   109.5600471 388.275200
  11465  11467  11470     1   109.5600471 388.275200
  11466  11465  11467     1   109.5600471 388.275200
  11466  11465  11468     1   108.4600466 328.025600
  11467  11465  11468     1   109.5600471 388.275200
  11469  11467  11471     1   109.8800469 414.216000
  11469  11467  11470     1   108.4600466 328.025600
  11470  11467  11471     1   109.8800469 414.216000
  11471  11472  11481     1   109.8800469 414.216000
  11471  11472  11482     1   109.8800469 414.216000
  11471  11473  11474     1   109.8800469 414.216000
  11471  11473  11476     1   109.8800469 414.216000
  11472  11483  11484     1   109.8000471 387.438400
  11472  11483  11485     1   109.8000471 387.438400
  11473  11475  11477     1   109.8000471 387.438400
  11473  11475  11478     1   109.8000471 387.438400
  11474  11473  11475     1   109.5600471 388.275200
  11474  11473  11476     1   108.4600466 328.025600
  11475  11473  11476     1   109.5600471 388.275200
  11477  11475  11479     1   108.7700466 392.459200
  11477  11475  11478     1   107.5800459 329.699200
  11478  11475  11479     1   108.7700466 392.459200
  11479  11511  11501     1   119.3800509 410.868800
  11481  11472  11483     1   109.5600471 388.275200
  11481  11472  11482     1   108.4600466 328.025600
  11482  11472  11483     1   109.5600471 388.275200
  11484  11483  11486     1   108.7700466 392.459200
  11484  11483  11485     1   107.5800459 329.699200
  11485  11483  11486     1   108.7700466 392.459200
  11486  11535  11525     1   119.3800509 410.868800
  11488  11489  11508     1   109.5600471 388.275200
  11488  11499  11502     1   109.5600471 388.275200
  11488  11499  11503     1   109.5600471 388.275200
  11489  11488  11490     1   109.5600471 388.275200
  11489  11491  11495     1   109.5600471 388.275200
  11489  11509  11510     1   107.2600461 396.643200
  11490  11488  11499     1   109.5600471 388.275200
  11490  11488  11506     1   109.7800468 425.094400
  11491  11489  11508     1   109.5600471 388.275200
  11491  11492  11494     1   109.5600471 388.275200
  11491  11498  11500     1   107.2600461 396.643200
  11492  11491  11495     1   109.5600471 388.275200
  11492  11493  11496     1   110.2200475 386.601600
  11492  11511  11501     1   109.2900470 396.643200
  11493  11492  11494     1   109.5600471 388.275200
  11493  11497  11507     1   107.2600461 396.643200
  11494  11492  11511     1   109.8800469 414.216000
  11495  11491  11498     1   110.2600474 425.931200
  11496  11493  11497     1   109.4300470 427.604800
  11496  11493  11506     1   109.5800467 425.931200
  11499  11504  11505     1   107.2600461 396.643200
  11502  11499  11504     1   110.2600474 425.931200
  11502  11499  11503     1   108.4600466 328.025600
  11503  11499  11504     1   110.2600474 425.931200
  11508  11489  11509     1   110.2600474 425.931200
  11512  11513  11532     1   109.5600471 388.275200
  11512  11523  11526     1   109.5600471 388.275200
  11512  11523  11527     1   109.5600471 388.275200
  11513  11512  11514     1   109.5600471 388.275200
  11513  11515  11519     1   109.5600471 388.275200
  11513  11533  11534     1   107.2600461 396.643200
  11514  11512  11523     1   109.5600471 388.275200
  11514  11512  11530     1   109.7800468 425.094400
  11515  11513  11532     1   109.5600471 388.275200
  11515  11516  11518     1   109.5600471 388.275200
  11515  11522  11524     1   107.2600461 396.643200
  11516  11515  11519     1   109.5600471 388.275200
  11516  11517  11520     1   110.2200475 386.601600
  11516  11535  11525     1   109.2900470 396.643200
  11517  11516  11518     1   109.5600471 388.275200
  11517  11521  11531     1   107.2600461 396.643200
  11518  11516  11535     1   109.8800469 414.216000
  11519  11515  11522     1   110.2600474 425.931200
  11520  11517  11521     1   109.4300470 427.604800
  11520  11517  11530     1   109.5800467 425.931200
  11523  11528  11529     1   107.2600461 396.643200
  11526  11523  11528     1   110.2600474 425.931200
  11526  11523  11527     1   108.4600466 328.025600
  11527  11523  11528     1   110.2600474 425.931200
  11532  11513  11533     1   110.2600474 425.931200
  11536  11538  11539     1   108.8800464 416.726400
  11536  11538  11541     1   108.8800464 416.726400
  11537  11536  11538     1   117.6800502 383.254400
  11538  11540  11542     1   109.5600471 388.275200
  11538  11540  11543     1   109.5600471 388.275200
  11539  11538  11540     1   109.5600471 388.275200
  11539  11538  11541     1   108.4600466 328.025600
  11540  11538  11541     1   109.5600471 388.275200
  11542  11540  11544     1   109.8800469 414.216000
  11542  11540  11543     1   108.4600466 328.025600
  11543  11540  11544     1   109.8800469 414.216000
  11544  11545  11554     1   109.8800469 414.216000
  11544  11545  11555     1   109.8800469 414.216000
  11544  11546  11547     1   109.8800469 414.216000
  11544  11546  11549     1   109.8800469 414.216000
  11545  11556  11557     1   109.8000471 387.438400
  11545  11556  11558     1   109.8000471 387.438400
  11546  11548  11550     1   109.8000471 387.438400
  11546  11548  11551     1   109.8000471 387.438400
  11547  11546  11548     1   109.5600471 388.275200
  11547  11546  11549     1   108.4600466 328.025600
  11548  11546  11549     1   109.5600471 388.275200
  11550  11548  11552     1   108.7700466 392.459200
  11550  11548  11551     1   107.5800459 329.699200
  11551  11548  11552     1   108.7700466 392.459200
  11552  11584  11574     1   119.3800509 410.868800
  11554  11545  11556     1   109.5600471 388.275200
  11554  11545  11555     1   108.4600466 328.025600
  11555  11545  11556     1   109.5600471 388.275200
  11557  11556  11559     1   108.7700466 392.459200
  11557  11556  11558     1   107.5800459 329.699200
  11558  11556  11559     1   108.7700466 392.459200
  11559  11608  11598     1   119.3800509 410.868800
  11561  11562  11581     1   109.5600471 388.275200
  11561  11572  11575     1   109.5600471 388.275200
  11561  11572  11576     1   109.5600471 388.275200
  11562  11564  11568     1   109.5600471 388.275200
  11562  11582  11583     1   107.2600461 396.643200
  11562  11561  11563     1   109.5600471 388.275200
  11563  11561  11572     1   109.5600471 388.275200
  11563  11561  11579     1   109.7800468 425.094400
  11564  11565  11567     1   109.5600471 388.275200
  11564  11571  11573     1   107.2600461 396.643200
  11564  11562  11581     1   109.5600471 388.275200
  11565  11566  11569     1   110.2200475 386.601600
  11565  11584  11574     1   109.2900470 396.643200
  11565  11564  11568     1   109.5600471 388.275200
  11566  11570  11580     1   107.2600461 396.643200
  11566  11565  11567     1   109.5600471 388.275200
  11567  11565  11584     1   109.8800469 414.216000
  11568  11564  11571     1   110.2600474 425.931200
  11569  11566  11570     1   109.4300470 427.604800
  11569  11566  11579     1   109.5800467 425.931200
  11572  11577  11578     1   107.2600461 396.643200
  11575  11572  11577     1   110.2600474 425.931200
  11575  11572  11576     1   108.4600466 328.025600
  11576  11572  11577     1   110.2600474 425.931200
  11581  11562  11582     1   110.2600474 425.931200
  11585  11586  11605     1   109.5600471 388.275200
  11585  11596  11599     1   109.5600471 388.275200
  11585  11596  11600     1   109.5600471 388.275200
  11586  11588  11592     1   109.5600471 388.275200
  11586  11606  11607     1   107.2600461 396.643200
  11586  11585  11587     1   109.5600471 388.275200
  11587  11585  11596     1   109.5600471 388.275200
  11587  11585  11603     1   109.7800468 425.094400
  11588  11589  11591     1   109.5600471 388.275200
  11588  11595  11597     1   107.2600461 396.643200
  11588  11586  11605     1   109.5600471 388.275200
  11589  11590  11593     1   110.2200475 386.601600
  11589  11608  11598     1   109.2900470 396.643200
  11589  11588  11592     1   109.5600471 388.275200
  11590  11594  11604     1   107.2600461 396.643200
  11590  11589  11591     1   109.5600471 388.275200
  11591  11589  11608     1   109.8800469 414.216000
  11592  11588  11595     1   110.2600474 425.931200
  11593  11590  11594     1   109.4300470 427.604800
  11593  11590  11603     1   109.5800467 425.931200
  11596  11601  11602     1   107.2600461 396.643200
  11599  11596  11601     1   110.2600474 425.931200
  11599  11596  11600     1   108.4600466 328.025600
  11600  11596  11601     1   110.2600474 425.931200
  11605  11586  11606     1   110.2600474 425.931200
  11609  11611  11612     1   108.8800464 416.726400
  11609  11611  11614     1   108.8800464 416.726400
  11610  11609  11611     1   117.6800502 383.254400
  11611  11613  11615     1   109.5600471 388.275200
  11611  11613  11616     1   109.5600471 388.275200
  11612  11611  11613     1   109.5600471 388.275200
  11612  11611  11614     1   108.4600466 328.025600
  11613  11611  11614     1   109.5600471 388.275200
  11615  11613  11617     1   109.8800469 414.216000
  11615  11613  11616     1   108.4600466 328.025600
  11616  11613  11617     1   109.8800469 414.216000
  11617  11618  11627     1   109.8800469 414.216000
  11617  11618  11628     1   109.8800469 414.216000
  11617  11619  11620     1   109.8800469 414.216000
  11617  11619  11622     1   109.8800469 414.216000
  11618  11629  11630     1   109.8000471 387.438400
  11618  11629  11631     1   109.8000471 387.438400
  11619  11621  11623     1   109.8000471 387.438400
  11619  11621  11624     1   109.8000471 387.438400
  11620  11619  11621     1   109.5600471 388.275200
  11620  11619  11622     1   108.4600466 328.025600
  11621  11619  11622     1   109.5600471 388.275200
  11623  11621  11625     1   108.7700466 392.459200
  11623  11621  11624     1   107.5800459 329.699200
  11624  11621  11625     1   108.7700466 392.459200
  11625  11657  11647     1   119.3800509 410.868800
  11627  11618  11629     1   109.5600471 388.275200
  11627  11618  11628     1   108.4600466 328.025600
  11628  11618  11629     1   109.5600471 388.275200
  11630  11629  11632     1   108.7700466 392.459200
  11630  11629  11631     1   107.5800459 329.699200
  11631  11629  11632     1   108.7700466 392.459200
  11632  11681  11671     1   119.3800509 410.868800
  11634  11635  11654     1   109.5600471 388.275200
  11634  11645  11648     1   109.5600471 388.275200
  11634  11645  11649     1   109.5600471 388.275200
  11635  11634  11636     1   109.5600471 388.275200
  11635  11637  11641     1   109.5600471 388.275200
  11635  11655  11656     1   107.2600461 396.643200
  11636  11634  11645     1   109.5600471 388.275200
  11636  11634  11652     1   109.7800468 425.094400
  11637  11635  11654     1   109.5600471 388.275200
  11637  11638  11640     1   109.5600471 388.275200
  11637  11644  11646     1   107.2600461 396.643200
  11638  11637  11641     1   109.5600471 388.275200
  11638  11639  11642     1   110.2200475 386.601600
  11638  11657  11647     1   109.2900470 396.643200
  11639  11638  11640     1   109.5600471 388.275200
  11639  11643  11653     1   107.2600461 396.643200
  11640  11638  11657     1   109.8800469 414.216000
  11641  11637  11644     1   110.2600474 425.931200
  11642  11639  11643     1   109.4300470 427.604800
  11642  11639  11652     1   109.5800467 425.931200
  11645  11650  11651     1   107.2600461 396.643200
  11648  11645  11650     1   110.2600474 425.931200
  11648  11645  11649     1   108.4600466 328.025600
  11649  11645  11650     1   110.2600474 425.931200
  11654  11635  11655     1   110.2600474 425.931200
  11658  11659  11678     1   109.5600471 388.275200
  11658  11669  11672     1   109.5600471 388.275200
  11658  11669  11673     1   109.5600471 388.275200
  11659  11658  11660     1   109.5600471 388.275200
  11659  11661  11665     1   109.5600471 388.275200
  11659  11679  11680     1   107.2600461 396.643200
  11660  11658  11669     1   109.5600471 388.275200
  11660  11658  11676     1   109.7800468 425.094400
  11661  11659  11678     1   109.5600471 388.275200
  11661  11662  11664     1   109.5600471 388.275200
  11661  11668  11670     1   107.2600461 396.643200
  11662  11661  11665     1   109.5600471 388.275200
  11662  11663  11666     1   110.2200475 386.601600
  11662  11681  11671     1   109.2900470 396.643200
  11663  11662  11664     1   109.5600471 388.275200
  11663  11667  11677     1   107.2600461 396.643200
  11664  11662  11681     1   109.8800469 414.216000
  11665  11661  11668     1   110.2600474 425.931200
  11666  11663  11667     1   109.4300470 427.604800
  11666  11663  11676     1   109.5800467 425.931200
  11669  11674  11675     1   107.2600461 396.643200
  11672  11669  11674     1   110.2600474 425.931200
  11672  11669  11673     1   108.4600466 328.025600
  11673  11669  11674     1   110.2600474 425.931200
  11678  11659  11679     1   110.2600474 425.931200
  11682  11684  11685     1   108.8800464 416.726400
  11682  11684  11687     1   108.8800464 416.726400
  11683  11682  11684     1   117.6800502 383.254400
  11684  11686  11688     1   109.5600471 388.275200
  11684  11686  11689     1   109.5600471 388.275200
  11685  11684  11686     1   109.5600471 388.275200
  11685  11684  11687     1   108.4600466 328.025600
  11686  11684  11687     1   109.5600471 388.275200
  11688  11686  11690     1   109.8800469 414.216000
  11688  11686  11689     1   108.4600466 328.025600
  11689  11686  11690     1   109.8800469 414.216000
  11690  11691  11700     1   109.8800469 414.216000
  11690  11691  11701     1   109.8800469 414.216000
  11690  11692  11693     1   109.8800469 414.216000
  11690  11692  11695     1   109.8800469 414.216000
  11691  11702  11703     1   109.8000471 387.438400
  11691  11702  11704     1   109.8000471 387.438400
  11692  11694  11696     1   109.8000471 387.438400
  11692  11694  11697     1   109.8000471 387.438400
  11693  11692  11694     1   109.5600471 388.275200
  11693  11692  11695     1   108.4600466 328.025600
  11694  11692  11695     1   109.5600471 388.275200
  11696  11694  11698     1   108.7700466 392.459200
  11696  11694  11697     1   107.5800459 329.699200
  11697  11694  11698     1   108.7700466 392.459200
  11698  11730  11720     1   119.3800509 410.868800
  11700  11691  11702     1   109.5600471 388.275200
  11700  11691  11701     1   108.4600466 328.025600
  11701  11691  11702     1   109.5600471 388.275200
  11703  11702  11705     1   108.7700466 392.459200
  11703  11702  11704     1   107.5800459 329.699200
  11704  11702  11705     1   108.7700466 392.459200
  11705  11754  11744     1   119.3800509 410.868800
  11707  11708  11727     1   109.5600471 388.275200
  11707  11718  11721     1   109.5600471 388.275200
  11707  11718  11722     1   109.5600471 388.275200
  11708  11710  11714     1   109.5600471 388.275200
  11708  11728  11729     1   107.2600461 396.643200
  11708  11707  11709     1   109.5600471 388.275200
  11709  11707  11718     1   109.5600471 388.275200
  11709  11707  11725     1   109.7800468 425.094400
  11710  11711  11713     1   109.5600471 388.275200
  11710  11717  11719     1   107.2600461 396.643200
  11710  11708  11727     1   109.5600471 388.275200
  11711  11712  11715     1   110.2200475 386.601600
  11711  11730  11720     1   109.2900470 396.643200
  11711  11710  11714     1   109.5600471 388.275200
  11712  11716  11726     1   107.2600461 396.643200
  11712  11711  11713     1   109.5600471 388.275200
  11713  11711  11730     1   109.8800469 414.216000
  11714  11710  11717     1   110.2600474 425.931200
  11715  11712  11716     1   109.4300470 427.604800
  11715  11712  11725     1   109.5800467 425.931200
  11718  11723  11724     1   107.2600461 396.643200
  11721  11718  11723     1   110.2600474 425.931200
  11721  11718  11722     1   108.4600466 328.025600
  11722  11718  11723     1   110.2600474 425.931200
  11727  11708  11728     1   110.2600474 425.931200
  11731  11732  11751     1   109.5600471 388.275200
  11731  11742  11745     1   109.5600471 388.275200
  11731  11742  11746     1   109.5600471 388.275200
  11732  11734  11738     1   109.5600471 388.275200
  11732  11752  11753     1   107.2600461 396.643200
  11732  11731  11733     1   109.5600471 388.275200
  11733  11731  11742     1   109.5600471 388.275200
  11733  11731  11749     1   109.7800468 425.094400
  11734  11735  11737     1   109.5600471 388.275200
  11734  11741  11743     1   107.2600461 396.643200
  11734  11732  11751     1   109.5600471 388.275200
  11735  11736  11739     1   110.2200475 386.601600
  11735  11754  11744     1   109.2900470 396.643200
  11735  11734  11738     1   109.5600471 388.275200
  11736  11740  11750     1   107.2600461 396.643200
  11736  11735  11737     1   109.5600471 388.275200
  11737  11735  11754     1   109.8800469 414.216000
  11738  11734  11741     1   110.2600474 425.931200
  11739  11736  11740     1   109.4300470 427.604800
  11739  11736  11749     1   109.5800467 425.931200
  11742  11747  11748     1   107.2600461 396.643200
  11745  11742  11747     1   110.2600474 425.931200
  11745  11742  11746     1   108.4600466 328.025600
  11746  11742  11747     1   110.2600474 425.931200
  11751  11732  11752     1   110.2600474 425.931200
  11755  11757  11758     1   108.8800464 416.726400
  11755  11757  11760     1   108.8800464 416.726400
  11756  11755  11757     1   117.6800502 383.254400
  11757  11759  11761     1   109.5600471 388.275200
  11757  11759  11762     1   109.5600471 388.275200
  11758  11757  11759     1   109.5600471 388.275200
  11758  11757  11760     1   108.4600466 328.025600
  11759  11757  11760     1   109.5600471 388.275200
  11761  11759  11763     1   109.8800469 414.216000
  11761  11759  11762     1   108.4600466 328.025600
  11762  11759  11763     1   109.8800469 414.216000
  11763  11764  11773     1   109.8800469 414.216000
  11763  11764  11774     1   109.8800469 414.216000
  11763  11765  11766     1   109.8800469 414.216000
  11763  11765  11768     1   109.8800469 414.216000
  11764  11775  11776     1   109.8000471 387.438400
  11764  11775  11777     1   109.8000471 387.438400
  11765  11767  11769     1   109.8000471 387.438400
  11765  11767  11770     1   109.8000471 387.438400
  11766  11765  11767     1   109.5600471 388.275200
  11766  11765  11768     1   108.4600466 328.025600
  11767  11765  11768     1   109.5600471 388.275200
  11769  11767  11771     1   108.7700466 392.459200
  11769  11767  11770     1   107.5800459 329.699200
  11770  11767  11771     1   108.7700466 392.459200
  11771  11803  11793     1   119.3800509 410.868800
  11773  11764  11775     1   109.5600471 388.275200
  11773  11764  11774     1   108.4600466 328.025600
  11774  11764  11775     1   109.5600471 388.275200
  11776  11775  11778     1   108.7700466 392.459200
  11776  11775  11777     1   107.5800459 329.699200
  11777  11775  11778     1   108.7700466 392.459200
  11778  11827  11817     1   119.3800509 410.868800
  11780  11781  11800     1   109.5600471 388.275200
  11780  11791  11794     1   109.5600471 388.275200
  11780  11791  11795     1   109.5600471 388.275200
  11781  11780  11782     1   109.5600471 388.275200
  11781  11783  11787     1   109.5600471 388.275200
  11781  11801  11802     1   107.2600461 396.643200
  11782  11780  11791     1   109.5600471 388.275200
  11782  11780  11798     1   109.7800468 425.094400
  11783  11781  11800     1   109.5600471 388.275200
  11783  11784  11786     1   109.5600471 388.275200
  11783  11790  11792     1   107.2600461 396.643200
  11784  11783  11787     1   109.5600471 388.275200
  11784  11785  11788     1   110.2200475 386.601600
  11784  11803  11793     1   109.2900470 396.643200
  11785  11784  11786     1   109.5600471 388.275200
  11785  11789  11799     1   107.2600461 396.643200
  11786  11784  11803     1   109.8800469 414.216000
  11787  11783  11790     1   110.2600474 425.931200
  11788  11785  11789     1   109.4300470 427.604800
  11788  11785  11798     1   109.5800467 425.931200
  11791  11796  11797     1   107.2600461 396.643200
  11794  11791  11796     1   110.2600474 425.931200
  11794  11791  11795     1   108.4600466 328.025600
  11795  11791  11796     1   110.2600474 425.931200
  11800  11781  11801     1   110.2600474 425.931200
  11804  11805  11824     1   109.5600471 388.275200
  11804  11815  11818     1   109.5600471 388.275200
  11804  11815  11819     1   109.5600471 388.275200
  11805  11804  11806     1   109.5600471 388.275200
  11805  11807  11811     1   109.5600471 388.275200
  11805  11825  11826     1   107.2600461 396.643200
  11806  11804  11815     1   109.5600471 388.275200
  11806  11804  11822     1   109.7800468 425.094400
  11807  11805  11824     1   109.5600471 388.275200
  11807  11808  11810     1   109.5600471 388.275200
  11807  11814  11816     1   107.2600461 396.643200
  11808  11807  11811     1   109.5600471 388.275200
  11808  11809  11812     1   110.2200475 386.601600
  11808  11827  11817     1   109.2900470 396.643200
  11809  11808  11810     1   109.5600471 388.275200
  11809  11813  11823     1   107.2600461 396.643200
  11810  11808  11827     1   109.8800469 414.216000
  11811  11807  11814     1   110.2600474 425.931200
  11812  11809  11813     1   109.4300470 427.604800
  11812  11809  11822     1   109.5800467 425.931200
  11815  11820  11821     1   107.2600461 396.643200
  11818  11815  11820     1   110.2600474 425.931200
  11818  11815  11819     1   108.4600466 328.025600
  11819  11815  11820     1   110.2600474 425.931200
  11824  11805  11825     1   110.2600474 425.931200
  11828  11830  11831     1   108.8800464 416.726400
  11828  11830  11833     1   108.8800464 416.726400
  11829  11828  11830     1   117.6800502 383.254400
  11830  11832  11834     1   109.5600471 388.275200
  11830  11832  11835     1   109.5600471 388.275200
  11831  11830  11832     1   109.5600471 388.275200
  11831  11830  11833     1   108.4600466 328.025600
  11832  11830  11833     1   109.5600471 388.275200
  11834  11832  11836     1   109.8800469 414.216000
  11834  11832  11835     1   108.4600466 328.025600
  11835  11832  11836     1   109.8800469 414.216000
  11836  11837  11846     1   109.8800469 414.216000
  11836  11837  11847     1   109.8800469 414.216000
  11836  11838  11839     1   109.8800469 414.216000
  11836  11838  11841     1   109.8800469 414.216000
  11837  11848  11849     1   109.8000471 387.438400
  11837  11848  11850     1   109.8000471 387.438400
  11838  11840  11842     1   109.8000471 387.438400
  11838  11840  11843     1   109.8000471 387.438400
  11839  11838  11840     1   109.5600471 388.275200
  11839  11838  11841     1   108.4600466 328.025600
  11840  11838  11841     1   109.5600471 388.275200
  11842  11840  11844     1   108.7700466 392.459200
  11842  11840  11843     1   107.5800459 329.699200
  11843  11840  11844     1   108.7700466 392.459200
  11844  11876  11866     1   119.3800509 410.868800
  11846  11837  11848     1   109.5600471 388.275200
  11846  11837  11847     1   108.4600466 328.025600
  11847  11837  11848     1   109.5600471 388.275200
  11849  11848  11851     1   108.7700466 392.459200
  11849  11848  11850     1   107.5800459 329.699200
  11850  11848  11851     1   108.7700466 392.459200
  11851  11900  11890     1   119.3800509 410.868800
  11853  11854  11873     1   109.5600471 388.275200
  11853  11864  11867     1   109.5600471 388.275200
  11853  11864  11868     1   109.5600471 388.275200
  11854  11856  11860     1   109.5600471 388.275200
  11854  11874  11875     1   107.2600461 396.643200
  11854  11853  11855     1   109.5600471 388.275200
  11855  11853  11864     1   109.5600471 388.275200
  11855  11853  11871     1   109.7800468 425.094400
  11856  11857  11859     1   109.5600471 388.275200
  11856  11863  11865     1   107.2600461 396.643200
  11856  11854  11873     1   109.5600471 388.275200
  11857  11858  11861     1   110.2200475 386.601600
  11857  11876  11866     1   109.2900470 396.643200
  11857  11856  11860     1   109.5600471 388.275200
  11858  11862  11872     1   107.2600461 396.643200
  11858  11857  11859     1   109.5600471 388.275200
  11859  11857  11876     1   109.8800469 414.216000
  11860  11856  11863     1   110.2600474 425.931200
  11861  11858  11862     1   109.4300470 427.604800
  11861  11858  11871     1   109.5800467 425.931200
  11864  11869  11870     1   107.2600461 396.643200
  11867  11864  11869     1   110.2600474 425.931200
  11867  11864  11868     1   108.4600466 328.025600
  11868  11864  11869     1   110.2600474 425.931200
  11873  11854  11874     1   110.2600474 425.931200
  11877  11878  11897     1   109.5600471 388.275200
  11877  11888  11891     1   109.5600471 388.275200
  11877  11888  11892     1   109.5600471 388.275200
  11878  11880  11884     1   109.5600471 388.275200
  11878  11898  11899     1   107.2600461 396.643200
  11878  11877  11879     1   109.5600471 388.275200
  11879  11877  11888     1   109.5600471 388.275200
  11879  11877  11895     1   109.7800468 425.094400
  11880  11881  11883     1   109.5600471 388.275200
  11880  11887  11889     1   107.2600461 396.643200
  11880  11878  11897     1   109.5600471 388.275200
  11881  11882  11885     1   110.2200475 386.601600
  11881  11900  11890     1   109.2900470 396.643200
  11881  11880  11884     1   109.5600471 388.275200
  11882  11886  11896     1   107.2600461 396.643200
  11882  11881  11883     1   109.5600471 388.275200
  11883  11881  11900     1   109.8800469 414.216000
  11884  11880  11887     1   110.2600474 425.931200
  11885  11882  11886     1   109.4300470 427.604800
  11885  11882  11895     1   109.5800467 425.931200
  11888  11893  11894     1   107.2600461 396.643200
  11891  11888  11893     1   110.2600474 425.931200
  11891  11888  11892     1   108.4600466 328.025600
  11892  11888  11893     1   110.2600474 425.931200
  11897  11878  11898     1   110.2600474 425.931200
  11901  11903  11904     1   108.8800464 416.726400
  11901  11903  11906     1   108.8800464 416.726400
  11902  11901  11903     1   117.6800502 383.254400
  11903  11905  11907     1   109.5600471 388.275200
  11903  11905  11908     1   109.5600471 388.275200
  11904  11903  11905     1   109.5600471 388.275200
  11904  11903  11906     1   108.4600466 328.025600
  11905  11903  11906     1   109.5600471 388.275200
  11907  11905  11909     1   109.8800469 414.216000
  11907  11905  11908     1   108.4600466 328.025600
  11908  11905  11909     1   109.8800469 414.216000
  11909  11910  11919     1   109.8800469 414.216000
  11909  11910  11920     1   109.8800469 414.216000
  11909  11911  11912     1   109.8800469 414.216000
  11909  11911  11914     1   109.8800469 414.216000
  11910  11921  11922     1   109.8000471 387.438400
  11910  11921  11923     1   109.8000471 387.438400
  11911  11913  11915     1   109.8000471 387.438400
  11911  11913  11916     1   109.8000471 387.438400
  11912  11911  11913     1   109.5600471 388.275200
  11912  11911  11914     1   108.4600466 328.025600
  11913  11911  11914     1   109.5600471 388.275200
  11915  11913  11917     1   108.7700466 392.459200
  11915  11913  11916     1   107.5800459 329.699200
  11916  11913  11917     1   108.7700466 392.459200
  11917  11949  11939     1   119.3800509 410.868800
  11919  11910  11921     1   109.5600471 388.275200
  11919  11910  11920     1   108.4600466 328.025600
  11920  11910  11921     1   109.5600471 388.275200
  11922  11921  11924     1   108.7700466 392.459200
  11922  11921  11923     1   107.5800459 329.699200
  11923  11921  11924     1   108.7700466 392.459200
  11924  11973  11963     1   119.3800509 410.868800
  11926  11927  11946     1   109.5600471 388.275200
  11926  11937  11940     1   109.5600471 388.275200
  11926  11937  11941     1   109.5600471 388.275200
  11927  11926  11928     1   109.5600471 388.275200
  11927  11929  11933     1   109.5600471 388.275200
  11927  11947  11948     1   107.2600461 396.643200
  11928  11926  11937     1   109.5600471 388.275200
  11928  11926  11944     1   109.7800468 425.094400
  11929  11927  11946     1   109.5600471 388.275200
  11929  11930  11932     1   109.5600471 388.275200
  11929  11936  11938     1   107.2600461 396.643200
  11930  11929  11933     1   109.5600471 388.275200
  11930  11931  11934     1   110.2200475 386.601600
  11930  11949  11939     1   109.2900470 396.643200
  11931  11930  11932     1   109.5600471 388.275200
  11931  11935  11945     1   107.2600461 396.643200
  11932  11930  11949     1   109.8800469 414.216000
  11933  11929  11936     1   110.2600474 425.931200
  11934  11931  11935     1   109.4300470 427.604800
  11934  11931  11944     1   109.5800467 425.931200
  11937  11942  11943     1   107.2600461 396.643200
  11940  11937  11942     1   110.2600474 425.931200
  11940  11937  11941     1   108.4600466 328.025600
  11941  11937  11942     1   110.2600474 425.931200
  11946  11927  11947     1   110.2600474 425.931200
  11950  11951  11970     1   109.5600471 388.275200
  11950  11961  11964     1   109.5600471 388.275200
  11950  11961  11965     1   109.5600471 388.275200
  11951  11950  11952     1   109.5600471 388.275200
  11951  11953  11957     1   109.5600471 388.275200
  11951  11971  11972     1   107.2600461 396.643200
  11952  11950  11961     1   109.5600471 388.275200
  11952  11950  11968     1   109.7800468 425.094400
  11953  11951  11970     1   109.5600471 388.275200
  11953  11954  11956     1   109.5600471 388.275200
  11953  11960  11962     1   107.2600461 396.643200
  11954  11953  11957     1   109.5600471 388.275200
  11954  11955  11958     1   110.2200475 386.601600
  11954  11973  11963     1   109.2900470 396.643200
  11955  11954  11956     1   109.5600471 388.275200
  11955  11959  11969     1   107.2600461 396.643200
  11956  11954  11973     1   109.8800469 414.216000
  11957  11953  11960     1   110.2600474 425.931200
  11958  11955  11959     1   109.4300470 427.604800
  11958  11955  11968     1   109.5800467 425.931200
  11961  11966  11967     1   107.2600461 396.643200
  11964  11961  11966     1   110.2600474 425.931200
  11964  11961  11965     1   108.4600466 328.025600
  11965  11961  11966     1   110.2600474 425.931200
  11970  11951  11971     1   110.2600474 425.931200
  11974  11976  11977     1   108.8800464 416.726400
  11974  11976  11979     1   108.8800464 416.726400
  11975  11974  11976     1   117.6800502 383.254400
  11976  11978  11980     1   109.5600471 388.275200
  11976  11978  11981     1   109.5600471 388.275200
  11977  11976  11978     1   109.5600471 388.275200
  11977  11976  11979     1   108.4600466 328.025600
  11978  11976  11979     1   109.5600471 388.275200
  11980  11978  11982     1   109.8800469 414.216000
  11980  11978  11981     1   108.4600466 328.025600
  11981  11978  11982     1   109.8800469 414.216000
  11982  11983  11992     1   109.8800469 414.216000
  11982  11983  11993     1   109.8800469 414.216000
  11982  11984  11985     1   109.8800469 414.216000
  11982  11984  11987     1   109.8800469 414.216000
  11983  11994  11995     1   109.8000471 387.438400
  11983  11994  11996     1   109.8000471 387.438400
  11984  11986  11988     1   109.8000471 387.438400
  11984  11986  11989     1   109.8000471 387.438400
  11985  11984  11986     1   109.5600471 388.275200
  11985  11984  11987     1   108.4600466 328.025600
  11986  11984  11987     1   109.5600471 388.275200
  11988  11986  11990     1   108.7700466 392.459200
  11988  11986  11989     1   107.5800459 329.699200
  11989  11986  11990     1   108.7700466 392.459200
  11990  12022  12012     1   119.3800509 410.868800
  11992  11983  11994     1   109.5600471 388.275200
  11992  11983  11993     1   108.4600466 328.025600
  11993  11983  11994     1   109.5600471 388.275200
  11995  11994  11997     1   108.7700466 392.459200
  11995  11994  11996     1   107.5800459 329.699200
  11996  11994  11997     1   108.7700466 392.459200
  11997  12046  12036     1   119.3800509 410.868800
  11999  12000  12019     1   109.5600471 388.275200
  11999  12010  12013     1   109.5600471 388.275200
  11999  12010  12014     1   109.5600471 388.275200
  12000  12002  12006     1   109.5600471 388.275200
  12000  12020  12021     1   107.2600461 396.643200
  12000  11999  12001     1   109.5600471 388.275200
  12001  11999  12010     1   109.5600471 388.275200
  12001  11999  12017     1   109.7800468 425.094400
  12002  12003  12005     1   109.5600471 388.275200
  12002  12009  12011     1   107.2600461 396.643200
  12002  12000  12019     1   109.5600471 388.275200
  12003  12004  12007     1   110.2200475 386.601600
  12003  12022  12012     1   109.2900470 396.643200
  12003  12002  12006     1   109.5600471 388.275200
  12004  12008  12018     1   107.2600461 396.643200
  12004  12003  12005     1   109.5600471 388.275200
  12005  12003  12022     1   109.8800469 414.216000
  12006  12002  12009     1   110.2600474 425.931200
  12007  12004  12008     1   109.4300470 427.604800
  12007  12004  12017     1   109.5800467 425.931200
  12010  12015  12016     1   107.2600461 396.643200
  12013  12010  12015     1   110.2600474 425.931200
  12013  12010  12014     1   108.4600466 328.025600
  12014  12010  12015     1   110.2600474 425.931200
  12019  12000  12020     1   110.2600474 425.931200
  12023  12024  12043     1   109.5600471 388.275200
  12023  12034  12037     1   109.5600471 388.275200
  12023  12034  12038     1   109.5600471 388.275200
  12024  12026  12030     1   109.5600471 388.275200
  12024  12044  12045     1   107.2600461 396.643200
  12024  12023  12025     1   109.5600471 388.275200
  12025  12023  12034     1   109.5600471 388.275200
  12025  12023  12041     1   109.7800468 425.094400
  12026  12027  12029     1   109.5600471 388.275200
  12026  12033  12035     1   107.2600461 396.643200
  12026  12024  12043     1   109.5600471 388.275200
  12027  12028  12031     1   110.2200475 386.601600
  12027  12046  12036     1   109.2900470 396.643200
  12027  12026  12030     1   109.5600471 388.275200
  12028  12032  12042     1   107.2600461 396.643200
  12028  12027  12029     1   109.5600471 388.275200
  12029  12027  12046     1   109.8800469 414.216000
  12030  12026  12033     1   110.2600474 425.931200
  12031  12028  12032     1   109.4300470 427.604800
  12031  12028  12041     1   109.5800467 425.931200
  12034  12039  12040     1   107.2600461 396.643200
  12037  12034  12039     1   110.2600474 425.931200
  12037  12034  12038     1   108.4600466 328.025600
  12038  12034  12039     1   110.2600474 425.931200
  12043  12024  12044     1   110.2600474 425.931200
  12047  12049  12050     1   108.8800464 416.726400
  12047  12049  12052     1   108.8800464 416.726400
  12048  12047  12049     1   117.6800502 383.254400
  12049  12051  12053     1   109.5600471 388.275200
  12049  12051  12054     1   109.5600471 388.275200
  12050  12049  12051     1   109.5600471 388.275200
  12050  12049  12052     1   108.4600466 328.025600
  12051  12049  12052     1   109.5600471 388.275200
  12053  12051  12055     1   109.8800469 414.216000
  12053  12051  12054     1   108.4600466 328.025600
  12054  12051  12055     1   109.8800469 414.216000
  12055  12056  12065     1   109.8800469 414.216000
  12055  12056  12066     1   109.8800469 414.216000
  12055  12057  12058     1   109.8800469 414.216000
  12055  12057  12060     1   109.8800469 414.216000
  12056  12067  12068     1   109.8000471 387.438400
  12056  12067  12069     1   109.8000471 387.438400
  12057  12059  12061     1   109.8000471 387.438400
  12057  12059  12062     1   109.8000471 387.438400
  12058  12057  12059     1   109.5600471 388.275200
  12058  12057  12060     1   108.4600466 328.025600
  12059  12057  12060     1   109.5600471 388.275200
  12061  12059  12063     1   108.7700466 392.459200
  12061  12059  12062     1   107.5800459 329.699200
  12062  12059  12063     1   108.7700466 392.459200
  12063  12095  12085     1   119.3800509 410.868800
  12065  12056  12067     1   109.5600471 388.275200
  12065  12056  12066     1   108.4600466 328.025600
  12066  12056  12067     1   109.5600471 388.275200
  12068  12067  12070     1   108.7700466 392.459200
  12068  12067  12069     1   107.5800459 329.699200
  12069  12067  12070     1   108.7700466 392.459200
  12070  12119  12109     1   119.3800509 410.868800
  12072  12073  12092     1   109.5600471 388.275200
  12072  12083  12086     1   109.5600471 388.275200
  12072  12083  12087     1   109.5600471 388.275200
  12073  12072  12074     1   109.5600471 388.275200
  12073  12075  12079     1   109.5600471 388.275200
  12073  12093  12094     1   107.2600461 396.643200
  12074  12072  12083     1   109.5600471 388.275200
  12074  12072  12090     1   109.7800468 425.094400
  12075  12073  12092     1   109.5600471 388.275200
  12075  12076  12078     1   109.5600471 388.275200
  12075  12082  12084     1   107.2600461 396.643200
  12076  12075  12079     1   109.5600471 388.275200
  12076  12077  12080     1   110.2200475 386.601600
  12076  12095  12085     1   109.2900470 396.643200
  12077  12076  12078     1   109.5600471 388.275200
  12077  12081  12091     1   107.2600461 396.643200
  12078  12076  12095     1   109.8800469 414.216000
  12079  12075  12082     1   110.2600474 425.931200
  12080  12077  12081     1   109.4300470 427.604800
  12080  12077  12090     1   109.5800467 425.931200
  12083  12088  12089     1   107.2600461 396.643200
  12086  12083  12088     1   110.2600474 425.931200
  12086  12083  12087     1   108.4600466 328.025600
  12087  12083  12088     1   110.2600474 425.931200
  12092  12073  12093     1   110.2600474 425.931200
  12096  12097  12116     1   109.5600471 388.275200
  12096  12107  12110     1   109.5600471 388.275200
  12096  12107  12111     1   109.5600471 388.275200
  12097  12096  12098     1   109.5600471 388.275200
  12097  12099  12103     1   109.5600471 388.275200
  12097  12117  12118     1   107.2600461 396.643200
  12098  12096  12107     1   109.5600471 388.275200
  12098  12096  12114     1   109.7800468 425.094400
  12099  12097  12116     1   109.5600471 388.275200
  12099  12100  12102     1   109.5600471 388.275200
  12099  12106  12108     1   107.2600461 396.643200
  12100  12099  12103     1   109.5600471 388.275200
  12100  12101  12104     1   110.2200475 386.601600
  12100  12119  12109     1   109.2900470 396.643200
  12101  12100  12102     1   109.5600471 388.275200
  12101  12105  12115     1   107.2600461 396.643200
  12102  12100  12119     1   109.8800469 414.216000
  12103  12099  12106     1   110.2600474 425.931200
  12104  12101  12105     1   109.4300470 427.604800
  12104  12101  12114     1   109.5800467 425.931200
  12107  12112  12113     1   107.2600461 396.643200
  12110  12107  12112     1   110.2600474 425.931200
  12110  12107  12111     1   108.4600466 328.025600
  12111  12107  12112     1   110.2600474 425.931200
  12116  12097  12117     1   110.2600474 425.931200
  12120  12122  12123     1   108.8800464 416.726400
  12120  12122  12125     1   108.8800464 416.726400
  12121  12120  12122     1   117.6800502 383.254400
  12122  12124  12126     1   109.5600471 388.275200
  12122  12124  12127     1   109.5600471 388.275200
  12123  12122  12124     1   109.5600471 388.275200
  12123  12122  12125     1   108.4600466 328.025600
  12124  12122  12125     1   109.5600471 388.275200
  12126  12124  12128     1   109.8800469 414.216000
  12126  12124  12127     1   108.4600466 328.025600
  12127  12124  12128     1   109.8800469 414.216000
  12128  12129  12138     1   109.8800469 414.216000
  12128  12129  12139     1   109.8800469 414.216000
  12128  12130  12131     1   109.8800469 414.216000
  12128  12130  12133     1   109.8800469 414.216000
  12129  12140  12141     1   109.8000471 387.438400
  12129  12140  12142     1   109.8000471 387.438400
  12130  12132  12134     1   109.8000471 387.438400
  12130  12132  12135     1   109.8000471 387.438400
  12131  12130  12132     1   109.5600471 388.275200
  12131  12130  12133     1   108.4600466 328.025600
  12132  12130  12133     1   109.5600471 388.275200
  12134  12132  12136     1   108.7700466 392.459200
  12134  12132  12135     1   107.5800459 329.699200
  12135  12132  12136     1   108.7700466 392.459200
  12136  12168  12158     1   119.3800509 410.868800
  12138  12129  12140     1   109.5600471 388.275200
  12138  12129  12139     1   108.4600466 328.025600
  12139  12129  12140     1   109.5600471 388.275200
  12141  12140  12143     1   108.7700466 392.459200
  12141  12140  12142     1   107.5800459 329.699200
  12142  12140  12143     1   108.7700466 392.459200
  12143  12192  12182     1   119.3800509 410.868800
  12145  12146  12165     1   109.5600471 388.275200
  12145  12156  12159     1   109.5600471 388.275200
  12145  12156  12160     1   109.5600471 388.275200
  12146  12148  12152     1   109.5600471 388.275200
  12146  12166  12167     1   107.2600461 396.643200
  12146  12145  12147     1   109.5600471 388.275200
  12147  12145  12156     1   109.5600471 388.275200
  12147  12145  12163     1   109.7800468 425.094400
  12148  12149  12151     1   109.5600471 388.275200
  12148  12155  12157     1   107.2600461 396.643200
  12148  12146  12165     1   109.5600471 388.275200
  12149  12150  12153     1   110.2200475 386.601600
  12149  12168  12158     1   109.2900470 396.643200
  12149  12148  12152     1   109.5600471 388.275200
  12150  12154  12164     1   107.2600461 396.643200
  12150  12149  12151     1   109.5600471 388.275200
  12151  12149  12168     1   109.8800469 414.216000
  12152  12148  12155     1   110.2600474 425.931200
  12153  12150  12154     1   109.4300470 427.604800
  12153  12150  12163     1   109.5800467 425.931200
  12156  12161  12162     1   107.2600461 396.643200
  12159  12156  12161     1   110.2600474 425.931200
  12159  12156  12160     1   108.4600466 328.025600
  12160  12156  12161     1   110.2600474 425.931200
  12165  12146  12166     1   110.2600474 425.931200
  12169  12170  12189     1   109.5600471 388.275200
  12169  12180  12183     1   109.5600471 388.275200
  12169  12180  12184     1   109.5600471 388.275200
  12170  12172  12176     1   109.5600471 388.275200
  12170  12190  12191     1   107.2600461 396.643200
  12170  12169  12171     1   109.5600471 388.275200
  12171  12169  12180     1   109.5600471 388.275200
  12171  12169  12187     1   109.7800468 425.094400
  12172  12173  12175     1   109.5600471 388.275200
  12172  12179  12181     1   107.2600461 396.643200
  12172  12170  12189     1   109.5600471 388.275200
  12173  12174  12177     1   110.2200475 386.601600
  12173  12192  12182     1   109.2900470 396.643200
  12173  12172  12176     1   109.5600471 388.275200
  12174  12178  12188     1   107.2600461 396.643200
  12174  12173  12175     1   109.5600471 388.275200
  12175  12173  12192     1   109.8800469 414.216000
  12176  12172  12179     1   110.2600474 425.931200
  12177  12174  12178     1   109.4300470 427.604800
  12177  12174  12187     1   109.5800467 425.931200
  12180  12185  12186     1   107.2600461 396.643200
  12183  12180  12185     1   110.2600474 425.931200
  12183  12180  12184     1   108.4600466 328.025600
  12184  12180  12185     1   110.2600474 425.931200
  12189  12170  12190     1   110.2600474 425.931200
  12193  12195  12196     1   108.8800464 416.726400
  12193  12195  12198     1   108.8800464 416.726400
  12194  12193  12195     1   117.6800502 383.254400
  12195  12197  12199     1   109.5600471 388.275200
  12195  12197  12200     1   109.5600471 388.275200
  12196  12195  12197     1   109.5600471 388.275200
  12196  12195  12198     1   108.4600466 328.025600
  12197  12195  12198     1   109.5600471 388.275200
  12199  12197  12201     1   109.8800469 414.216000
  12199  12197  12200     1   108.4600466 328.025600
  12200  12197  12201     1   109.8800469 414.216000
  12201  12202  12211     1   109.8800469 414.216000
  12201  12202  12212     1   109.8800469 414.216000
  12201  12203  12204     1   109.8800469 414.216000
  12201  12203  12206     1   109.8800469 414.216000
  12202  12213  12214     1   109.8000471 387.438400
  12202  12213  12215     1   109.8000471 387.438400
  12203  12205  12207     1   109.8000471 387.438400
  12203  12205  12208     1   109.8000471 387.438400
  12204  12203  12205     1   109.5600471 388.275200
  12204  12203  12206     1   108.4600466 328.025600
  12205  12203  12206     1   109.5600471 388.275200
  12207  12205  12209     1   108.7700466 392.459200
  12207  12205  12208     1   107.5800459 329.699200
  12208  12205  12209     1   108.7700466 392.459200
  12209  12241  12231     1   119.3800509 410.868800
  12211  12202  12213     1   109.5600471 388.275200
  12211  12202  12212     1   108.4600466 328.025600
  12212  12202  12213     1   109.5600471 388.275200
  12214  12213  12216     1   108.7700466 392.459200
  12214  12213  12215     1   107.5800459 329.699200
  12215  12213  12216     1   108.7700466 392.459200
  12216  12265  12255     1   119.3800509 410.868800
  12218  12219  12238     1   109.5600471 388.275200
  12218  12229  12232     1   109.5600471 388.275200
  12218  12229  12233     1   109.5600471 388.275200
  12219  12218  12220     1   109.5600471 388.275200
  12219  12221  12225     1   109.5600471 388.275200
  12219  12239  12240     1   107.2600461 396.643200
  12220  12218  12229     1   109.5600471 388.275200
  12220  12218  12236     1   109.7800468 425.094400
  12221  12219  12238     1   109.5600471 388.275200
  12221  12222  12224     1   109.5600471 388.275200
  12221  12228  12230     1   107.2600461 396.643200
  12222  12221  12225     1   109.5600471 388.275200
  12222  12223  12226     1   110.2200475 386.601600
  12222  12241  12231     1   109.2900470 396.643200
  12223  12222  12224     1   109.5600471 388.275200
  12223  12227  12237     1   107.2600461 396.643200
  12224  12222  12241     1   109.8800469 414.216000
  12225  12221  12228     1   110.2600474 425.931200
  12226  12223  12227     1   109.4300470 427.604800
  12226  12223  12236     1   109.5800467 425.931200
  12229  12234  12235     1   107.2600461 396.643200
  12232  12229  12234     1   110.2600474 425.931200
  12232  12229  12233     1   108.4600466 328.025600
  12233  12229  12234     1   110.2600474 425.931200
  12238  12219  12239     1   110.2600474 425.931200
  12242  12243  12262     1   109.5600471 388.275200
  12242  12253  12256     1   109.5600471 388.275200
  12242  12253  12257     1   109.5600471 388.275200
  12243  12242  12244     1   109.5600471 388.275200
  12243  12245  12249     1   109.5600471 388.275200
  12243  12263  12264     1   107.2600461 396.643200
  12244  12242  12253     1   109.5600471 388.275200
  12244  12242  12260     1   109.7800468 425.094400
  12245  12243  12262     1   109.5600471 388.275200
  12245  12246  12248     1   109.5600471 388.275200
  12245  12252  12254     1   107.2600461 396.643200
  12246  12245  12249     1   109.5600471 388.275200
  12246  12247  12250     1   110.2200475 386.601600
  12246  12265  12255     1   109.2900470 396.643200
  12247  12246  12248     1   109.5600471 388.275200
  12247  12251  12261     1   107.2600461 396.643200
  12248  12246  12265     1   109.8800469 414.216000
  12249  12245  12252     1   110.2600474 425.931200
  12250  12247  12251     1   109.4300470 427.604800
  12250  12247  12260     1   109.5800467 425.931200
  12253  12258  12259     1   107.2600461 396.643200
  12256  12253  12258     1   110.2600474 425.931200
  12256  12253  12257     1   108.4600466 328.025600
  12257  12253  12258     1   110.2600474 425.931200
  12262  12243  12263     1   110.2600474 425.931200
  12266  12268  12269     1   108.8800464 416.726400
  12266  12268  12271     1   108.8800464 416.726400
  12267  12266  12268     1   117.6800502 383.254400
  12268  12270  12272     1   109.5600471 388.275200
  12268  12270  12273     1   109.5600471 388.275200
  12269  12268  12270     1   109.5600471 388.275200
  12269  12268  12271     1   108.4600466 328.025600
  12270  12268  12271     1   109.5600471 388.275200
  12272  12270  12274     1   109.8800469 414.216000
  12272  12270  12273     1   108.4600466 328.025600
  12273  12270  12274     1   109.8800469 414.216000
  12274  12275  12284     1   109.8800469 414.216000
  12274  12275  12285     1   109.8800469 414.216000
  12274  12276  12277     1   109.8800469 414.216000
  12274  12276  12279     1   109.8800469 414.216000
  12275  12286  12287     1   109.8000471 387.438400
  12275  12286  12288     1   109.8000471 387.438400
  12276  12278  12280     1   109.8000471 387.438400
  12276  12278  12281     1   109.8000471 387.438400
  12277  12276  12278     1   109.5600471 388.275200
  12277  12276  12279     1   108.4600466 328.025600
  12278  12276  12279     1   109.5600471 388.275200
  12280  12278  12282     1   108.7700466 392.459200
  12280  12278  12281     1   107.5800459 329.699200
  12281  12278  12282     1   108.7700466 392.459200
  12282  12314  12304     1   119.3800509 410.868800
  12284  12275  12286     1   109.5600471 388.275200
  12284  12275  12285     1   108.4600466 328.025600
  12285  12275  12286     1   109.5600471 388.275200
  12287  12286  12289     1   108.7700466 392.459200
  12287  12286  12288     1   107.5800459 329.699200
  12288  12286  12289     1   108.7700466 392.459200
  12289  12338  12328     1   119.3800509 410.868800
  12291  12292  12311     1   109.5600471 388.275200
  12291  12302  12305     1   109.5600471 388.275200
  12291  12302  12306     1   109.5600471 388.275200
  12292  12294  12298     1   109.5600471 388.275200
  12292  12312  12313     1   107.2600461 396.643200
  12292  12291  12293     1   109.5600471 388.275200
  12293  12291  12302     1   109.5600471 388.275200
  12293  12291  12309     1   109.7800468 425.094400
  12294  12295  12297     1   109.5600471 388.275200
  12294  12301  12303     1   107.2600461 396.643200
  12294  12292  12311     1   109.5600471 388.275200
  12295  12296  12299     1   110.2200475 386.601600
  12295  12314  12304     1   109.2900470 396.643200
  12295  12294  12298     1   109.5600471 388.275200
  12296  12300  12310     1   107.2600461 396.643200
  12296  12295  12297     1   109.5600471 388.275200
  12297  12295  12314     1   109.8800469 414.216000
  12298  12294  12301     1   110.2600474 425.931200
  12299  12296  12300     1   109.4300470 427.604800
  12299  12296  12309     1   109.5800467 425.931200
  12302  12307  12308     1   107.2600461 396.643200
  12305  12302  12307     1   110.2600474 425.931200
  12305  12302  12306     1   108.4600466 328.025600
  12306  12302  12307     1   110.2600474 425.931200
  12311  12292  12312     1   110.2600474 425.931200
  12315  12316  12335     1   109.5600471 388.275200
  12315  12326  12329     1   109.5600471 388.275200
  12315  12326  12330     1   109.5600471 388.275200
  12316  12318  12322     1   109.5600471 388.275200
  12316  12336  12337     1   107.2600461 396.643200
  12316  12315  12317     1   109.5600471 388.275200
  12317  12315  12326     1   109.5600471 388.275200
  12317  12315  12333     1   109.7800468 425.094400
  12318  12319  12321     1   109.5600471 388.275200
  12318  12325  12327     1   107.2600461 396.643200
  12318  12316  12335     1   109.5600471 388.275200
  12319  12320  12323     1   110.2200475 386.601600
  12319  12338  12328     1   109.2900470 396.643200
  12319  12318  12322     1   109.5600471 388.275200
  12320  12324  12334     1   107.2600461 396.643200
  12320  12319  12321     1   109.5600471 388.275200
  12321  12319  12338     1   109.8800469 414.216000
  12322  12318  12325     1   110.2600474 425.931200
  12323  12320  12324     1   109.4300470 427.604800
  12323  12320  12333     1   109.5800467 425.931200
  12326  12331  12332     1   107.2600461 396.643200
  12329  12326  12331     1   110.2600474 425.931200
  12329  12326  12330     1   108.4600466 328.025600
  12330  12326  12331     1   110.2600474 425.931200
  12335  12316  12336     1   110.2600474 425.931200
  12339  12341  12342     1   108.8800464 416.726400
  12339  12341  12344     1   108.8800464 416.726400
  12340  12339  12341     1   117.6800502 383.254400
  12341  12343  12345     1   109.5600471 388.275200
  12341  12343  12346     1   109.5600471 388.275200
  12342  12341  12343     1   109.5600471 388.275200
  12342  12341  12344     1   108.4600466 328.025600
  12343  12341  12344     1   109.5600471 388.275200
  12345  12343  12347     1   109.8800469 414.216000
  12345  12343  12346     1   108.4600466 328.025600
  12346  12343  12347     1   109.8800469 414.216000
  12347  12348  12357     1   109.8800469 414.216000
  12347  12348  12358     1   109.8800469 414.216000
  12347  12349  12350     1   109.8800469 414.216000
  12347  12349  12352     1   109.8800469 414.216000
  12348  12359  12360     1   109.8000471 387.438400
  12348  12359  12361     1   109.8000471 387.438400
  12349  12351  12353     1   109.8000471 387.438400
  12349  12351  12354     1   109.8000471 387.438400
  12350  12349  12351     1   109.5600471 388.275200
  12350  12349  12352     1   108.4600466 328.025600
  12351  12349  12352     1   109.5600471 388.275200
  12353  12351  12355     1   108.7700466 392.459200
  12353  12351  12354     1   107.5800459 329.699200
  12354  12351  12355     1   108.7700466 392.459200
  12355  12387  12377     1   119.3800509 410.868800
  12357  12348  12359     1   109.5600471 388.275200
  12357  12348  12358     1   108.4600466 328.025600
  12358  12348  12359     1   109.5600471 388.275200
  12360  12359  12362     1   108.7700466 392.459200
  12360  12359  12361     1   107.5800459 329.699200
  12361  12359  12362     1   108.7700466 392.459200
  12362  12411  12401     1   119.3800509 410.868800
  12364  12365  12384     1   109.5600471 388.275200
  12364  12375  12378     1   109.5600471 388.275200
  12364  12375  12379     1   109.5600471 388.275200
  12365  12364  12366     1   109.5600471 388.275200
  12365  12367  12371     1   109.5600471 388.275200
  12365  12385  12386     1   107.2600461 396.643200
  12366  12364  12375     1   109.5600471 388.275200
  12366  12364  12382     1   109.7800468 425.094400
  12367  12365  12384     1   109.5600471 388.275200
  12367  12368  12370     1   109.5600471 388.275200
  12367  12374  12376     1   107.2600461 396.643200
  12368  12367  12371     1   109.5600471 388.275200
  12368  12369  12372     1   110.2200475 386.601600
  12368  12387  12377     1   109.2900470 396.643200
  12369  12368  12370     1   109.5600471 388.275200
  12369  12373  12383     1   107.2600461 396.643200
  12370  12368  12387     1   109.8800469 414.216000
  12371  12367  12374     1   110.2600474 425.931200
  12372  12369  12373     1   109.4300470 427.604800
  12372  12369  12382     1   109.5800467 425.931200
  12375  12380  12381     1   107.2600461 396.643200
  12378  12375  12380     1   110.2600474 425.931200
  12378  12375  12379     1   108.4600466 328.025600
  12379  12375  12380     1   110.2600474 425.931200
  12384  12365  12385     1   110.2600474 425.931200
  12388  12389  12408     1   109.5600471 388.275200
  12388  12399  12402     1   109.5600471 388.275200
  12388  12399  12403     1   109.5600471 388.275200
  12389  12388  12390     1   109.5600471 388.275200
  12389  12391  12395     1   109.5600471 388.275200
  12389  12409  12410     1   107.2600461 396.643200
  12390  12388  12399     1   109.5600471 388.275200
  12390  12388  12406     1   109.7800468 425.094400
  12391  12389  12408     1   109.5600471 388.275200
  12391  12392  12394     1   109.5600471 388.275200
  12391  12398  12400     1   107.2600461 396.643200
  12392  12391  12395     1   109.5600471 388.275200
  12392  12393  12396     1   110.2200475 386.601600
  12392  12411  12401     1   109.2900470 396.643200
  12393  12392  12394     1   109.5600471 388.275200
  12393  12397  12407     1   107.2600461 396.643200
  12394  12392  12411     1   109.8800469 414.216000
  12395  12391  12398     1   110.2600474 425.931200
  12396  12393  12397     1   109.4300470 427.604800
  12396  12393  12406     1   109.5800467 425.931200
  12399  12404  12405     1   107.2600461 396.643200
  12402  12399  12404     1   110.2600474 425.931200
  12402  12399  12403     1   108.4600466 328.025600
  12403  12399  12404     1   110.2600474 425.931200
  12408  12389  12409     1   110.2600474 425.931200
  12412  12414  12415     1   108.8800464 416.726400
  12412  12414  12417     1   108.8800464 416.726400
  12413  12412  12414     1   117.6800502 383.254400
  12414  12416  12418     1   109.5600471 388.275200
  12414  12416  12419     1   109.5600471 388.275200
  12415  12414  12416     1   109.5600471 388.275200
  12415  12414  12417     1   108.4600466 328.025600
  12416  12414  12417     1   109.5600471 388.275200
  12418  12416  12420     1   109.8800469 414.216000
  12418  12416  12419     1   108.4600466 328.025600
  12419  12416  12420     1   109.8800469 414.216000
  12420  12421  12430     1   109.8800469 414.216000
  12420  12421  12431     1   109.8800469 414.216000
  12420  12422  12423     1   109.8800469 414.216000
  12420  12422  12425     1   109.8800469 414.216000
  12421  12432  12433     1   109.8000471 387.438400
  12421  12432  12434     1   109.8000471 387.438400
  12422  12424  12426     1   109.8000471 387.438400
  12422  12424  12427     1   109.8000471 387.438400
  12423  12422  12424     1   109.5600471 388.275200
  12423  12422  12425     1   108.4600466 328.025600
  12424  12422  12425     1   109.5600471 388.275200
  12426  12424  12428     1   108.7700466 392.459200
  12426  12424  12427     1   107.5800459 329.699200
  12427  12424  12428     1   108.7700466 392.459200
  12428  12460  12450     1   119.3800509 410.868800
  12430  12421  12432     1   109.5600471 388.275200
  12430  12421  12431     1   108.4600466 328.025600
  12431  12421  12432     1   109.5600471 388.275200
  12433  12432  12435     1   108.7700466 392.459200
  12433  12432  12434     1   107.5800459 329.699200
  12434  12432  12435     1   108.7700466 392.459200
  12435  12484  12474     1   119.3800509 410.868800
  12437  12438  12457     1   109.5600471 388.275200
  12437  12448  12451     1   109.5600471 388.275200
  12437  12448  12452     1   109.5600471 388.275200
  12438  12440  12444     1   109.5600471 388.275200
  12438  12458  12459     1   107.2600461 396.643200
  12438  12437  12439     1   109.5600471 388.275200
  12439  12437  12448     1   109.5600471 388.275200
  12439  12437  12455     1   109.7800468 425.094400
  12440  12441  12443     1   109.5600471 388.275200
  12440  12447  12449     1   107.2600461 396.643200
  12440  12438  12457     1   109.5600471 388.275200
  12441  12442  12445     1   110.2200475 386.601600
  12441  12460  12450     1   109.2900470 396.643200
  12441  12440  12444     1   109.5600471 388.275200
  12442  12446  12456     1   107.2600461 396.643200
  12442  12441  12443     1   109.5600471 388.275200
  12443  12441  12460     1   109.8800469 414.216000
  12444  12440  12447     1   110.2600474 425.931200
  12445  12442  12446     1   109.4300470 427.604800
  12445  12442  12455     1   109.5800467 425.931200
  12448  12453  12454     1   107.2600461 396.643200
  12451  12448  12453     1   110.2600474 425.931200
  12451  12448  12452     1   108.4600466 328.025600
  12452  12448  12453     1   110.2600474 425.931200
  12457  12438  12458     1   110.2600474 425.931200
  12461  12462  12481     1   109.5600471 388.275200
  12461  12472  12475     1   109.5600471 388.275200
  12461  12472  12476     1   109.5600471 388.275200
  12462  12464  12468     1   109.5600471 388.275200
  12462  12482  12483     1   107.2600461 396.643200
  12462  12461  12463     1   109.5600471 388.275200
  12463  12461  12472     1   109.5600471 388.275200
  12463  12461  12479     1   109.7800468 425.094400
  12464  12465  12467     1   109.5600471 388.275200
  12464  12471  12473     1   107.2600461 396.643200
  12464  12462  12481     1   109.5600471 388.275200
  12465  12466  12469     1   110.2200475 386.601600
  12465  12484  12474     1   109.2900470 396.643200
  12465  12464  12468     1   109.5600471 388.275200
  12466  12470  12480     1   107.2600461 396.643200
  12466  12465  12467     1   109.5600471 388.275200
  12467  12465  12484     1   109.8800469 414.216000
  12468  12464  12471     1   110.2600474 425.931200
  12469  12466  12470     1   109.4300470 427.604800
  12469  12466  12479     1   109.5800467 425.931200
  12472  12477  12478     1   107.2600461 396.643200
  12475  12472  12477     1   110.2600474 425.931200
  12475  12472  12476     1   108.4600466 328.025600
  12476  12472  12477     1   110.2600474 425.931200
  12481  12462  12482     1   110.2600474 425.931200

[ dihedrals ]
;    ai     aj     ak     al funct         c0         c1         c2         c3         c4         c5
      1      4      7     15     1  180.0000771  2.0083200  2
      1      4      7     15     1  0.0000000  1.2552000  3
      1      4      7     18     1  180.0000771  2.0083200  2
      1      4      7     18     1  0.0000000  1.2552000  3
      1      8      9     30     1  180.0000771  2.0083200  2
      1      8      9     30     1  0.0000000  1.2552000  3
      1      8     12     27     1  180.0000771  2.0083200  2
      1      8     12     27     1  0.0000000  1.2552000  3
      4      1      8      9     1  180.0000771  2.0083200  2
      4      1      8      9     1  0.0000000  1.2552000  3
      4      1      8     12     1  180.0000771  2.0083200  2
      4      1      8     12     1  0.0000000  1.2552000  3
      4      7     15     21     1  180.0000771  2.0083200  2
      4      7     15     21     1  0.0000000  1.2552000  3
      4      7     18     24     1  180.0000771  2.0083200  2
      4      7     18     24     1  0.0000000  1.2552000  3
      8      1      4      7     1  0.0000000  0.6508444  3
      7     15     21     35     1  0.0000000  0.6508444  3
      7     18     24     36     1  0.0000000  0.6508444  3
      8      9     30     34     1  0.0000000  0.6508444  3
      8     12     27     33     1  0.0000000  0.6508444  3
      9      8     12     27     1  180.0000771  2.0083200  2
      9      8     12     27     1  0.0000000  1.2552000  3
      9     30     34     40     1  180.0000771  0.0000000  2
      9     30     34     89     1  0.0000000  0.2928800  2
      9     30     34     89     1  0.0000000  0.4184000  4
     12      8      9     30     1  180.0000771  2.0083200  2
     12      8      9     30     1  0.0000000  1.2552000  3
     12     27     33     37     1  180.0000771  0.0000000  2
     12     27     33     64     1  0.0000000  0.2928800  2
     12     27     33     64     1  0.0000000  0.4184000  4
     15      7     18     24     1  180.0000771  2.0083200  2
     15      7     18     24     1  0.0000000  1.2552000  3
     15     21     35     38     1  180.0000771  0.0000000  2
     15     21     35    114     1  0.0000000  0.2928800  2
     15     21     35    114     1  0.0000000  0.4184000  4
     18      7     15     21     1  180.0000771  2.0083200  2
     18      7     15     21     1  0.0000000  1.2552000  3
     18     24     36     39     1  180.0000771  0.0000000  2
     18     24     36    139     1  0.0000000  0.2928800  2
     18     24     36    139     1  0.0000000  0.4184000  4
     21     35    114     94     1  180.0000771  6.2760000  1
     21     35    114     94     1  0.0000000  0.0000000  2
     24     36    139    119     1  180.0000771  6.2760000  1
     24     36    139    119     1  0.0000000  0.0000000  2
     27     33     64     44     1  180.0000771  6.2760000  1
     27     33     64     44     1  0.0000000  0.0000000  2
     30     34     89     69     1  180.0000771  6.2760000  1
     30     34     89     69     1  0.0000000  0.0000000  2
     33     64     44     41     1  0.0000000  2.2175200  1
     33     64     44     41     1  0.0000000  0.0000000  2
     33     64     44     41     1  180.0000771  0.6276000  3
     33     64     44     41     1  180.0000771  2.0920000  4
     34     89     69     66     1  0.0000000  2.2175200  1
     34     89     69     66     1  0.0000000  0.0000000  2
     34     89     69     66     1  180.0000771  0.6276000  3
     34     89     69     66     1  180.0000771  2.0920000  4
     35    114     94     91     1  0.0000000  2.2175200  1
     35    114     94     91     1  0.0000000  0.0000000  2
     35    114     94     91     1  180.0000771  0.6276000  3
     35    114     94     91     1  180.0000771  2.0920000  4
     36    139    119    116     1  0.0000000  2.2175200  1
     36    139    119    116     1  0.0000000  0.0000000  2
     36    139    119    116     1  180.0000771  0.6276000  3
     36    139    119    116     1  180.0000771  2.0920000  4
     37     33     64     44     1  180.0000771  10.4600000  2
     38     35    114     94     1  180.0000771  10.4600000  2
     39     36    139    119     1  180.0000771  10.4600000  2
     40     34     89     69     1  180.0000771  10.4600000  2
     41     47     48     57     1  180.0000771  2.0083200  2
     41     47     48     57     1  0.0000000  1.2552000  3
     41     47     51     54     1  180.0000771  2.0083200  2
     41     47     51     54     1  0.0000000  1.2552000  3
     44     41     47     48     1  180.0000771  2.0083200  2
     44     41     47     48     1  0.0000000  1.2552000  3
     44     41     47     51     1  180.0000771  2.0083200  2
     44     41     47     51     1  0.0000000  1.2552000  3
     47     41     44     64     1  0.0000000  0.6508444  3
     47     48     57     61     1  0.0000000  0.6508444  3
     47     51     54     60     1  0.0000000  0.6508444  3
     48     47     51     54     1  180.0000771  2.0083200  2
     48     47     51     54     1  0.0000000  1.2552000  3
     48     57     61     63     1  180.0000771  0.0000000  2
     48     57     61    189     1  0.0000000  0.2928800  2
     48     57     61    189     1  0.0000000  0.4184000  4
     51     47     48     57     1  180.0000771  2.0083200  2
     51     47     48     57     1  0.0000000  1.2552000  3
     51     54     60     62     1  180.0000771  0.0000000  2
     51     54     60    164     1  0.0000000  0.2928800  2
     51     54     60    164     1  0.0000000  0.4184000  4
     54     60    164    144     1  180.0000771  6.2760000  1
     54     60    164    144     1  0.0000000  0.0000000  2
     57     61    189    169     1  180.0000771  6.2760000  1
     57     61    189    169     1  0.0000000  0.0000000  2
     60    164    144    141     1  0.0000000  2.2175200  1
     60    164    144    141     1  0.0000000  0.0000000  2
     60    164    144    141     1  180.0000771  0.6276000  3
     60    164    144    141     1  180.0000771  2.0920000  4
     61    189    169    166     1  0.0000000  2.2175200  1
     61    189    169    166     1  0.0000000  0.0000000  2
     61    189    169    166     1  180.0000771  0.6276000  3
     61    189    169    166     1  180.0000771  2.0920000  4
     62     60    164    144     1  180.0000771  10.4600000  2
     63     61    189    169     1  180.0000771  10.4600000  2
     66     72     73     82     1  180.0000771  2.0083200  2
     66     72     73     82     1  0.0000000  1.2552000  3
     66     72     76     79     1  180.0000771  2.0083200  2
     66     72     76     79     1  0.0000000  1.2552000  3
     69     66     72     73     1  180.0000771  2.0083200  2
     69     66     72     73     1  0.0000000  1.2552000  3
     69     66     72     76     1  180.0000771  2.0083200  2
     69     66     72     76     1  0.0000000  1.2552000  3
     72     66     69     89     1  0.0000000  0.6508444  3
     72     73     82     86     1  0.0000000  0.6508444  3
     72     76     79     85     1  0.0000000  0.6508444  3
     73     72     76     79     1  180.0000771  2.0083200  2
     73     72     76     79     1  0.0000000  1.2552000  3
     73     82     86     88     1  180.0000771  0.0000000  2
     73     82     86    239     1  0.0000000  0.2928800  2
     73     82     86    239     1  0.0000000  0.4184000  4
     76     72     73     82     1  180.0000771  2.0083200  2
     76     72     73     82     1  0.0000000  1.2552000  3
     76     79     85     87     1  180.0000771  0.0000000  2
     76     79     85    214     1  0.0000000  0.2928800  2
     76     79     85    214     1  0.0000000  0.4184000  4
     79     85    214    194     1  180.0000771  6.2760000  1
     79     85    214    194     1  0.0000000  0.0000000  2
     82     86    239    219     1  180.0000771  6.2760000  1
     82     86    239    219     1  0.0000000  0.0000000  2
     85    214    194    191     1  0.0000000  2.2175200  1
     85    214    194    191     1  0.0000000  0.0000000  2
     85    214    194    191     1  180.0000771  0.6276000  3
     85    214    194    191     1  180.0000771  2.0920000  4
     86    239    219    216     1  0.0000000  2.2175200  1
     86    239    219    216     1  0.0000000  0.0000000  2
     86    239    219    216     1  180.0000771  0.6276000  3
     86    239    219    216     1  180.0000771  2.0920000  4
     87     85    214    194     1  180.0000771  10.4600000  2
     88     86    239    219     1  180.0000771  10.4600000  2
     91     97     98    107     1  180.0000771  2.0083200  2
     91     97     98    107     1  0.0000000  1.2552000  3
     91     97    101    104     1  180.0000771  2.0083200  2
     91     97    101    104     1  0.0000000  1.2552000  3
     94     91     97     98     1  180.0000771  2.0083200  2
     94     91     97     98     1  0.0000000  1.2552000  3
     94     91     97    101     1  180.0000771  2.0083200  2
     94     91     97    101     1  0.0000000  1.2552000  3
     97     91     94    114     1  0.0000000  0.6508444  3
     97     98    107    111     1  0.0000000  0.6508444  3
     97    101    104    110     1  0.0000000  0.6508444  3
     98     97    101    104     1  180.0000771  2.0083200  2
     98     97    101    104     1  0.0000000  1.2552000  3
     98    107    111    113     1  180.0000771  0.0000000  2
     98    107    111    289     1  0.0000000  0.2928800  2
     98    107    111    289     1  0.0000000  0.4184000  4
    101     97     98    107     1  180.0000771  2.0083200  2
    101     97     98    107     1  0.0000000  1.2552000  3
    101    104    110    112     1  180.0000771  0.0000000  2
    101    104    110    264     1  0.0000000  0.2928800  2
    101    104    110    264     1  0.0000000  0.4184000  4
    104    110    264    244     1  180.0000771  6.2760000  1
    104    110    264    244     1  0.0000000  0.0000000  2
    107    111    289    269     1  180.0000771  6.2760000  1
    107    111    289    269     1  0.0000000  0.0000000  2
    110    264    244    241     1  0.0000000  2.2175200  1
    110    264    244    241     1  0.0000000  0.0000000  2
    110    264    244    241     1  180.0000771  0.6276000  3
    110    264    244    241     1  180.0000771  2.0920000  4
    111    289    269    266     1  0.0000000  2.2175200  1
    111    289    269    266     1  0.0000000  0.0000000  2
    111    289    269    266     1  180.0000771  0.6276000  3
    111    289    269    266     1  180.0000771  2.0920000  4
    112    110    264    244     1  180.0000771  10.4600000  2
    113    111    289    269     1  180.0000771  10.4600000  2
    116    122    123    132     1  180.0000771  2.0083200  2
    116    122    123    132     1  0.0000000  1.2552000  3
    116    122    126    129     1  180.0000771  2.0083200  2
    116    122    126    129     1  0.0000000  1.2552000  3
    119    116    122    123     1  180.0000771  2.0083200  2
    119    116    122    123     1  0.0000000  1.2552000  3
    119    116    122    126     1  180.0000771  2.0083200  2
    119    116    122    126     1  0.0000000  1.2552000  3
    122    116    119    139     1  0.0000000  0.6508444  3
    122    123    132    136     1  0.0000000  0.6508444  3
    122    126    129    135     1  0.0000000  0.6508444  3
    123    122    126    129     1  180.0000771  2.0083200  2
    123    122    126    129     1  0.0000000  1.2552000  3
    123    132    136    138     1  180.0000771  0.0000000  2
    123    132    136    339     1  0.0000000  0.2928800  2
    123    132    136    339     1  0.0000000  0.4184000  4
    126    122    123    132     1  180.0000771  2.0083200  2
    126    122    123    132     1  0.0000000  1.2552000  3
    126    129    135    137     1  180.0000771  0.0000000  2
    126    129    135    314     1  0.0000000  0.2928800  2
    126    129    135    314     1  0.0000000  0.4184000  4
    129    135    314    294     1  180.0000771  6.2760000  1
    129    135    314    294     1  0.0000000  0.0000000  2
    132    136    339    319     1  180.0000771  6.2760000  1
    132    136    339    319     1  0.0000000  0.0000000  2
    135    314    294    291     1  0.0000000  2.2175200  1
    135    314    294    291     1  0.0000000  0.0000000  2
    135    314    294    291     1  180.0000771  0.6276000  3
    135    314    294    291     1  180.0000771  2.0920000  4
    136    339    319    316     1  0.0000000  2.2175200  1
    136    339    319    316     1  0.0000000  0.0000000  2
    136    339    319    316     1  180.0000771  0.6276000  3
    136    339    319    316     1  180.0000771  2.0920000  4
    137    135    314    294     1  180.0000771  10.4600000  2
    138    136    339    319     1  180.0000771  10.4600000  2
    141    147    148    157     1  180.0000771  2.0083200  2
    141    147    148    157     1  0.0000000  1.2552000  3
    141    147    151    154     1  180.0000771  2.0083200  2
    141    147    151    154     1  0.0000000  1.2552000  3
    144    141    147    148     1  180.0000771  2.0083200  2
    144    141    147    148     1  0.0000000  1.2552000  3
    144    141    147    151     1  180.0000771  2.0083200  2
    144    141    147    151     1  0.0000000  1.2552000  3
    147    141    144    164     1  0.0000000  0.6508444  3
    147    148    157    161     1  0.0000000  0.6508444  3
    147    151    154    160     1  0.0000000  0.6508444  3
    148    147    151    154     1  180.0000771  2.0083200  2
    148    147    151    154     1  0.0000000  1.2552000  3
    148    157    161    163     1  180.0000771  0.0000000  2
    148    157    161    389     1  0.0000000  0.2928800  2
    148    157    161    389     1  0.0000000  0.4184000  4
    151    147    148    157     1  180.0000771  2.0083200  2
    151    147    148    157     1  0.0000000  1.2552000  3
    151    154    160    162     1  180.0000771  0.0000000  2
    151    154    160    364     1  0.0000000  0.2928800  2
    151    154    160    364     1  0.0000000  0.4184000  4
    154    160    364    344     1  180.0000771  6.2760000  1
    154    160    364    344     1  0.0000000  0.0000000  2
    157    161    389    369     1  180.0000771  6.2760000  1
    157    161    389    369     1  0.0000000  0.0000000  2
    160    364    344    341     1  0.0000000  2.2175200  1
    160    364    344    341     1  0.0000000  0.0000000  2
    160    364    344    341     1  180.0000771  0.6276000  3
    160    364    344    341     1  180.0000771  2.0920000  4
    161    389    369    366     1  0.0000000  2.2175200  1
    161    389    369    366     1  0.0000000  0.0000000  2
    161    389    369    366     1  180.0000771  0.6276000  3
    161    389    369    366     1  180.0000771  2.0920000  4
    162    160    364    344     1  180.0000771  10.4600000  2
    163    161    389    369     1  180.0000771  10.4600000  2
    166    172    173    182     1  180.0000771  2.0083200  2
    166    172    173    182     1  0.0000000  1.2552000  3
    166    172    176    179     1  180.0000771  2.0083200  2
    166    172    176    179     1  0.0000000  1.2552000  3
    169    166    172    173     1  180.0000771  2.0083200  2
    169    166    172    173     1  0.0000000  1.2552000  3
    169    166    172    176     1  180.0000771  2.0083200  2
    169    166    172    176     1  0.0000000  1.2552000  3
    172    166    169    189     1  0.0000000  0.6508444  3
    172    173    182    186     1  0.0000000  0.6508444  3
    172    176    179    185     1  0.0000000  0.6508444  3
    173    172    176    179     1  180.0000771  2.0083200  2
    173    172    176    179     1  0.0000000  1.2552000  3
    173    182    186    188     1  180.0000771  0.0000000  2
    173    182    186    439     1  0.0000000  0.2928800  2
    173    182    186    439     1  0.0000000  0.4184000  4
    176    172    173    182     1  180.0000771  2.0083200  2
    176    172    173    182     1  0.0000000  1.2552000  3
    176    179    185    187     1  180.0000771  0.0000000  2
    176    179    185    414     1  0.0000000  0.2928800  2
    176    179    185    414     1  0.0000000  0.4184000  4
    179    185    414    394     1  180.0000771  6.2760000  1
    179    185    414    394     1  0.0000000  0.0000000  2
    182    186    439    419     1  180.0000771  6.2760000  1
    182    186    439    419     1  0.0000000  0.0000000  2
    185    414    394    391     1  0.0000000  2.2175200  1
    185    414    394    391     1  0.0000000  0.0000000  2
    185    414    394    391     1  180.0000771  0.6276000  3
    185    414    394    391     1  180.0000771  2.0920000  4
    186    439    419    416     1  0.0000000  2.2175200  1
    186    439    419    416     1  0.0000000  0.0000000  2
    186    439    419    416     1  180.0000771  0.6276000  3
    186    439    419    416     1  180.0000771  2.0920000  4
    187    185    414    394     1  180.0000771  10.4600000  2
    188    186    439    419     1  180.0000771  10.4600000  2
    191    197    198    207     1  180.0000771  2.0083200  2
    191    197    198    207     1  0.0000000  1.2552000  3
    191    197    201    204     1  180.0000771  2.0083200  2
    191    197    201    204     1  0.0000000  1.2552000  3
    194    191    197    198     1  180.0000771  2.0083200  2
    194    191    197    198     1  0.0000000  1.2552000  3
    194    191    197    201     1  180.0000771  2.0083200  2
    194    191    197    201     1  0.0000000  1.2552000  3
    197    191    194    214     1  0.0000000  0.6508444  3
    197    198    207    211     1  0.0000000  0.6508444  3
    197    201    204    210     1  0.0000000  0.6508444  3
    198    197    201    204     1  180.0000771  2.0083200  2
    198    197    201    204     1  0.0000000  1.2552000  3
    198    207    211    213     1  180.0000771  0.0000000  2
    198    207    211    489     1  0.0000000  0.2928800  2
    198    207    211    489     1  0.0000000  0.4184000  4
    201    197    198    207     1  180.0000771  2.0083200  2
    201    197    198    207     1  0.0000000  1.2552000  3
    201    204    210    212     1  180.0000771  0.0000000  2
    201    204    210    464     1  0.0000000  0.2928800  2
    201    204    210    464     1  0.0000000  0.4184000  4
    204    210    464    444     1  180.0000771  6.2760000  1
    204    210    464    444     1  0.0000000  0.0000000  2
    207    211    489    469     1  180.0000771  6.2760000  1
    207    211    489    469     1  0.0000000  0.0000000  2
    210    464    444    441     1  0.0000000  2.2175200  1
    210    464    444    441     1  0.0000000  0.0000000  2
    210    464    444    441     1  180.0000771  0.6276000  3
    210    464    444    441     1  180.0000771  2.0920000  4
    211    489    469    466     1  0.0000000  2.2175200  1
    211    489    469    466     1  0.0000000  0.0000000  2
    211    489    469    466     1  180.0000771  0.6276000  3
    211    489    469    466     1  180.0000771  2.0920000  4
    212    210    464    444     1  180.0000771  10.4600000  2
    213    211    489    469     1  180.0000771  10.4600000  2
    216    222    223    232     1  180.0000771  2.0083200  2
    216    222    223    232     1  0.0000000  1.2552000  3
    216    222    226    229     1  180.0000771  2.0083200  2
    216    222    226    229     1  0.0000000  1.2552000  3
    219    216    222    223     1  180.0000771  2.0083200  2
    219    216    222    223     1  0.0000000  1.2552000  3
    219    216    222    226     1  180.0000771  2.0083200  2
    219    216    222    226     1  0.0000000  1.2552000  3
    222    216    219    239     1  0.0000000  0.6508444  3
    222    223    232    236     1  0.0000000  0.6508444  3
    222    226    229    235     1  0.0000000  0.6508444  3
    223    222    226    229     1  180.0000771  2.0083200  2
    223    222    226    229     1  0.0000000  1.2552000  3
    223    232    236    238     1  180.0000771  0.0000000  2
    223    232    236    539     1  0.0000000  0.2928800  2
    223    232    236    539     1  0.0000000  0.4184000  4
    226    222    223    232     1  180.0000771  2.0083200  2
    226    222    223    232     1  0.0000000  1.2552000  3
    226    229    235    237     1  180.0000771  0.0000000  2
    226    229    235    514     1  0.0000000  0.2928800  2
    226    229    235    514     1  0.0000000  0.4184000  4
    229    235    514    494     1  180.0000771  6.2760000  1
    229    235    514    494     1  0.0000000  0.0000000  2
    232    236    539    519     1  180.0000771  6.2760000  1
    232    236    539    519     1  0.0000000  0.0000000  2
    235    514    494    491     1  0.0000000  2.2175200  1
    235    514    494    491     1  0.0000000  0.0000000  2
    235    514    494    491     1  180.0000771  0.6276000  3
    235    514    494    491     1  180.0000771  2.0920000  4
    236    539    519    516     1  0.0000000  2.2175200  1
    236    539    519    516     1  0.0000000  0.0000000  2
    236    539    519    516     1  180.0000771  0.6276000  3
    236    539    519    516     1  180.0000771  2.0920000  4
    237    235    514    494     1  180.0000771  10.4600000  2
    238    236    539    519     1  180.0000771  10.4600000  2
    241    247    248    257     1  180.0000771  2.0083200  2
    241    247    248    257     1  0.0000000  1.2552000  3
    241    247    251    254     1  180.0000771  2.0083200  2
    241    247    251    254     1  0.0000000  1.2552000  3
    244    241    247    248     1  180.0000771  2.0083200  2
    244    241    247    248     1  0.0000000  1.2552000  3
    244    241    247    251     1  180.0000771  2.0083200  2
    244    241    247    251     1  0.0000000  1.2552000  3
    247    241    244    264     1  0.0000000  0.6508444  3
    247    248    257    261     1  0.0000000  0.6508444  3
    247    251    254    260     1  0.0000000  0.6508444  3
    248    247    251    254     1  180.0000771  2.0083200  2
    248    247    251    254     1  0.0000000  1.2552000  3
    248    257    261    263     1  180.0000771  0.0000000  2
    248    257    261    589     1  0.0000000  0.2928800  2
    248    257    261    589     1  0.0000000  0.4184000  4
    251    247    248    257     1  180.0000771  2.0083200  2
    251    247    248    257     1  0.0000000  1.2552000  3
    251    254    260    262     1  180.0000771  0.0000000  2
    251    254    260    564     1  0.0000000  0.2928800  2
    251    254    260    564     1  0.0000000  0.4184000  4
    254    260    564    544     1  180.0000771  6.2760000  1
    254    260    564    544     1  0.0000000  0.0000000  2
    257    261    589    569     1  180.0000771  6.2760000  1
    257    261    589    569     1  0.0000000  0.0000000  2
    260    564    544    541     1  0.0000000  2.2175200  1
    260    564    544    541     1  0.0000000  0.0000000  2
    260    564    544    541     1  180.0000771  0.6276000  3
    260    564    544    541     1  180.0000771  2.0920000  4
    261    589    569    566     1  0.0000000  2.2175200  1
    261    589    569    566     1  0.0000000  0.0000000  2
    261    589    569    566     1  180.0000771  0.6276000  3
    261    589    569    566     1  180.0000771  2.0920000  4
    262    260    564    544     1  180.0000771  10.4600000  2
    263    261    589    569     1  180.0000771  10.4600000  2
    266    272    273    282     1  180.0000771  2.0083200  2
    266    272    273    282     1  0.0000000  1.2552000  3
    266    272    276    279     1  180.0000771  2.0083200  2
    266    272    276    279     1  0.0000000  1.2552000  3
    269    266    272    273     1  180.0000771  2.0083200  2
    269    266    272    273     1  0.0000000  1.2552000  3
    269    266    272    276     1  180.0000771  2.0083200  2
    269    266    272    276     1  0.0000000  1.2552000  3
    272    266    269    289     1  0.0000000  0.6508444  3
    272    273    282    286     1  0.0000000  0.6508444  3
    272    276    279    285     1  0.0000000  0.6508444  3
    273    272    276    279     1  180.0000771  2.0083200  2
    273    272    276    279     1  0.0000000  1.2552000  3
    273    282    286    288     1  180.0000771  0.0000000  2
    273    282    286    639     1  0.0000000  0.2928800  2
    273    282    286    639     1  0.0000000  0.4184000  4
    276    272    273    282     1  180.0000771  2.0083200  2
    276    272    273    282     1  0.0000000  1.2552000  3
    276    279    285    287     1  180.0000771  0.0000000  2
    276    279    285    614     1  0.0000000  0.2928800  2
    276    279    285    614     1  0.0000000  0.4184000  4
    279    285    614    594     1  180.0000771  6.2760000  1
    279    285    614    594     1  0.0000000  0.0000000  2
    282    286    639    619     1  180.0000771  6.2760000  1
    282    286    639    619     1  0.0000000  0.0000000  2
    285    614    594    591     1  0.0000000  2.2175200  1
    285    614    594    591     1  0.0000000  0.0000000  2
    285    614    594    591     1  180.0000771  0.6276000  3
    285    614    594    591     1  180.0000771  2.0920000  4
    286    639    619    616     1  0.0000000  2.2175200  1
    286    639    619    616     1  0.0000000  0.0000000  2
    286    639    619    616     1  180.0000771  0.6276000  3
    286    639    619    616     1  180.0000771  2.0920000  4
    287    285    614    594     1  180.0000771  10.4600000  2
    288    286    639    619     1  180.0000771  10.4600000  2
    291    297    298    307     1  180.0000771  2.0083200  2
    291    297    298    307     1  0.0000000  1.2552000  3
    291    297    301    304     1  180.0000771  2.0083200  2
    291    297    301    304     1  0.0000000  1.2552000  3
    294    291    297    298     1  180.0000771  2.0083200  2
    294    291    297    298     1  0.0000000  1.2552000  3
    294    291    297    301     1  180.0000771  2.0083200  2
    294    291    297    301     1  0.0000000  1.2552000  3
    297    291    294    314     1  0.0000000  0.6508444  3
    297    298    307    311     1  0.0000000  0.6508444  3
    297    301    304    310     1  0.0000000  0.6508444  3
    298    297    301    304     1  180.0000771  2.0083200  2
    298    297    301    304     1  0.0000000  1.2552000  3
    298    307    311    313     1  180.0000771  0.0000000  2
    298    307    311    689     1  0.0000000  0.2928800  2
    298    307    311    689     1  0.0000000  0.4184000  4
    301    297    298    307     1  180.0000771  2.0083200  2
    301    297    298    307     1  0.0000000  1.2552000  3
    301    304    310    312     1  180.0000771  0.0000000  2
    301    304    310    664     1  0.0000000  0.2928800  2
    301    304    310    664     1  0.0000000  0.4184000  4
    304    310    664    644     1  180.0000771  6.2760000  1
    304    310    664    644     1  0.0000000  0.0000000  2
    307    311    689    669     1  180.0000771  6.2760000  1
    307    311    689    669     1  0.0000000  0.0000000  2
    310    664    644    641     1  0.0000000  2.2175200  1
    310    664    644    641     1  0.0000000  0.0000000  2
    310    664    644    641     1  180.0000771  0.6276000  3
    310    664    644    641     1  180.0000771  2.0920000  4
    311    689    669    666     1  0.0000000  2.2175200  1
    311    689    669    666     1  0.0000000  0.0000000  2
    311    689    669    666     1  180.0000771  0.6276000  3
    311    689    669    666     1  180.0000771  2.0920000  4
    312    310    664    644     1  180.0000771  10.4600000  2
    313    311    689    669     1  180.0000771  10.4600000  2
    316    322    323    332     1  180.0000771  2.0083200  2
    316    322    323    332     1  0.0000000  1.2552000  3
    316    322    326    329     1  180.0000771  2.0083200  2
    316    322    326    329     1  0.0000000  1.2552000  3
    319    316    322    323     1  180.0000771  2.0083200  2
    319    316    322    323     1  0.0000000  1.2552000  3
    319    316    322    326     1  180.0000771  2.0083200  2
    319    316    322    326     1  0.0000000  1.2552000  3
    322    316    319    339     1  0.0000000  0.6508444  3
    322    323    332    336     1  0.0000000  0.6508444  3
    322    326    329    335     1  0.0000000  0.6508444  3
    323    322    326    329     1  180.0000771  2.0083200  2
    323    322    326    329     1  0.0000000  1.2552000  3
    323    332    336    338     1  180.0000771  0.0000000  2
    323    332    336    739     1  0.0000000  0.2928800  2
    323    332    336    739     1  0.0000000  0.4184000  4
    326    322    323    332     1  180.0000771  2.0083200  2
    326    322    323    332     1  0.0000000  1.2552000  3
    326    329    335    337     1  180.0000771  0.0000000  2
    326    329    335    714     1  0.0000000  0.2928800  2
    326    329    335    714     1  0.0000000  0.4184000  4
    329    335    714    694     1  180.0000771  6.2760000  1
    329    335    714    694     1  0.0000000  0.0000000  2
    332    336    739    719     1  180.0000771  6.2760000  1
    332    336    739    719     1  0.0000000  0.0000000  2
    335    714    694    691     1  0.0000000  2.2175200  1
    335    714    694    691     1  0.0000000  0.0000000  2
    335    714    694    691     1  180.0000771  0.6276000  3
    335    714    694    691     1  180.0000771  2.0920000  4
    336    739    719    716     1  0.0000000  2.2175200  1
    336    739    719    716     1  0.0000000  0.0000000  2
    336    739    719    716     1  180.0000771  0.6276000  3
    336    739    719    716     1  180.0000771  2.0920000  4
    337    335    714    694     1  180.0000771  10.4600000  2
    338    336    739    719     1  180.0000771  10.4600000  2
    341    347    348    357     1  180.0000771  2.0083200  2
    341    347    348    357     1  0.0000000  1.2552000  3
    341    347    351    354     1  180.0000771  2.0083200  2
    341    347    351    354     1  0.0000000  1.2552000  3
    344    341    347    348     1  180.0000771  2.0083200  2
    344    341    347    348     1  0.0000000  1.2552000  3
    344    341    347    351     1  180.0000771  2.0083200  2
    344    341    347    351     1  0.0000000  1.2552000  3
    347    341    344    364     1  0.0000000  0.6508444  3
    347    348    357    361     1  0.0000000  0.6508444  3
    347    351    354    360     1  0.0000000  0.6508444  3
    348    347    351    354     1  180.0000771  2.0083200  2
    348    347    351    354     1  0.0000000  1.2552000  3
    348    357    361    363     1  180.0000771  0.0000000  2
    348    357    361    789     1  0.0000000  0.2928800  2
    348    357    361    789     1  0.0000000  0.4184000  4
    351    347    348    357     1  180.0000771  2.0083200  2
    351    347    348    357     1  0.0000000  1.2552000  3
    351    354    360    362     1  180.0000771  0.0000000  2
    351    354    360    764     1  0.0000000  0.2928800  2
    351    354    360    764     1  0.0000000  0.4184000  4
    354    360    764    744     1  180.0000771  6.2760000  1
    354    360    764    744     1  0.0000000  0.0000000  2
    357    361    789    769     1  180.0000771  6.2760000  1
    357    361    789    769     1  0.0000000  0.0000000  2
    360    764    744    741     1  0.0000000  2.2175200  1
    360    764    744    741     1  0.0000000  0.0000000  2
    360    764    744    741     1  180.0000771  0.6276000  3
    360    764    744    741     1  180.0000771  2.0920000  4
    361    789    769    766     1  0.0000000  2.2175200  1
    361    789    769    766     1  0.0000000  0.0000000  2
    361    789    769    766     1  180.0000771  0.6276000  3
    361    789    769    766     1  180.0000771  2.0920000  4
    362    360    764    744     1  180.0000771  10.4600000  2
    363    361    789    769     1  180.0000771  10.4600000  2
    366    372    373    382     1  180.0000771  2.0083200  2
    366    372    373    382     1  0.0000000  1.2552000  3
    366    372    376    379     1  180.0000771  2.0083200  2
    366    372    376    379     1  0.0000000  1.2552000  3
    369    366    372    373     1  180.0000771  2.0083200  2
    369    366    372    373     1  0.0000000  1.2552000  3
    369    366    372    376     1  180.0000771  2.0083200  2
    369    366    372    376     1  0.0000000  1.2552000  3
    372    366    369    389     1  0.0000000  0.6508444  3
    372    373    382    386     1  0.0000000  0.6508444  3
    372    376    379    385     1  0.0000000  0.6508444  3
    373    372    376    379     1  180.0000771  2.0083200  2
    373    372    376    379     1  0.0000000  1.2552000  3
    373    382    386    388     1  180.0000771  0.0000000  2
    373    382    386    839     1  0.0000000  0.2928800  2
    373    382    386    839     1  0.0000000  0.4184000  4
    376    372    373    382     1  180.0000771  2.0083200  2
    376    372    373    382     1  0.0000000  1.2552000  3
    376    379    385    387     1  180.0000771  0.0000000  2
    376    379    385    814     1  0.0000000  0.2928800  2
    376    379    385    814     1  0.0000000  0.4184000  4
    379    385    814    794     1  180.0000771  6.2760000  1
    379    385    814    794     1  0.0000000  0.0000000  2
    382    386    839    819     1  180.0000771  6.2760000  1
    382    386    839    819     1  0.0000000  0.0000000  2
    385    814    794    791     1  0.0000000  2.2175200  1
    385    814    794    791     1  0.0000000  0.0000000  2
    385    814    794    791     1  180.0000771  0.6276000  3
    385    814    794    791     1  180.0000771  2.0920000  4
    386    839    819    816     1  0.0000000  2.2175200  1
    386    839    819    816     1  0.0000000  0.0000000  2
    386    839    819    816     1  180.0000771  0.6276000  3
    386    839    819    816     1  180.0000771  2.0920000  4
    387    385    814    794     1  180.0000771  10.4600000  2
    388    386    839    819     1  180.0000771  10.4600000  2
    391    397    398    407     1  180.0000771  2.0083200  2
    391    397    398    407     1  0.0000000  1.2552000  3
    391    397    401    404     1  180.0000771  2.0083200  2
    391    397    401    404     1  0.0000000  1.2552000  3
    394    391    397    398     1  180.0000771  2.0083200  2
    394    391    397    398     1  0.0000000  1.2552000  3
    394    391    397    401     1  180.0000771  2.0083200  2
    394    391    397    401     1  0.0000000  1.2552000  3
    397    391    394    414     1  0.0000000  0.6508444  3
    397    398    407    411     1  0.0000000  0.6508444  3
    397    401    404    410     1  0.0000000  0.6508444  3
    398    397    401    404     1  180.0000771  2.0083200  2
    398    397    401    404     1  0.0000000  1.2552000  3
    398    407    411    413     1  180.0000771  0.0000000  2
    398    407    411    889     1  0.0000000  0.2928800  2
    398    407    411    889     1  0.0000000  0.4184000  4
    401    397    398    407     1  180.0000771  2.0083200  2
    401    397    398    407     1  0.0000000  1.2552000  3
    401    404    410    412     1  180.0000771  0.0000000  2
    401    404    410    864     1  0.0000000  0.2928800  2
    401    404    410    864     1  0.0000000  0.4184000  4
    404    410    864    844     1  180.0000771  6.2760000  1
    404    410    864    844     1  0.0000000  0.0000000  2
    407    411    889    869     1  180.0000771  6.2760000  1
    407    411    889    869     1  0.0000000  0.0000000  2
    410    864    844    841     1  0.0000000  2.2175200  1
    410    864    844    841     1  0.0000000  0.0000000  2
    410    864    844    841     1  180.0000771  0.6276000  3
    410    864    844    841     1  180.0000771  2.0920000  4
    411    889    869    866     1  0.0000000  2.2175200  1
    411    889    869    866     1  0.0000000  0.0000000  2
    411    889    869    866     1  180.0000771  0.6276000  3
    411    889    869    866     1  180.0000771  2.0920000  4
    412    410    864    844     1  180.0000771  10.4600000  2
    413    411    889    869     1  180.0000771  10.4600000  2
    416    422    423    432     1  180.0000771  2.0083200  2
    416    422    423    432     1  0.0000000  1.2552000  3
    416    422    426    429     1  180.0000771  2.0083200  2
    416    422    426    429     1  0.0000000  1.2552000  3
    419    416    422    423     1  180.0000771  2.0083200  2
    419    416    422    423     1  0.0000000  1.2552000  3
    419    416    422    426     1  180.0000771  2.0083200  2
    419    416    422    426     1  0.0000000  1.2552000  3
    422    416    419    439     1  0.0000000  0.6508444  3
    422    423    432    436     1  0.0000000  0.6508444  3
    422    426    429    435     1  0.0000000  0.6508444  3
    423    422    426    429     1  180.0000771  2.0083200  2
    423    422    426    429     1  0.0000000  1.2552000  3
    423    432    436    438     1  180.0000771  0.0000000  2
    423    432    436    939     1  0.0000000  0.2928800  2
    423    432    436    939     1  0.0000000  0.4184000  4
    426    422    423    432     1  180.0000771  2.0083200  2
    426    422    423    432     1  0.0000000  1.2552000  3
    426    429    435    437     1  180.0000771  0.0000000  2
    426    429    435    914     1  0.0000000  0.2928800  2
    426    429    435    914     1  0.0000000  0.4184000  4
    429    435    914    894     1  180.0000771  6.2760000  1
    429    435    914    894     1  0.0000000  0.0000000  2
    432    436    939    919     1  180.0000771  6.2760000  1
    432    436    939    919     1  0.0000000  0.0000000  2
    435    914    894    891     1  0.0000000  2.2175200  1
    435    914    894    891     1  0.0000000  0.0000000  2
    435    914    894    891     1  180.0000771  0.6276000  3
    435    914    894    891     1  180.0000771  2.0920000  4
    436    939    919    916     1  0.0000000  2.2175200  1
    436    939    919    916     1  0.0000000  0.0000000  2
    436    939    919    916     1  180.0000771  0.6276000  3
    436    939    919    916     1  180.0000771  2.0920000  4
    437    435    914    894     1  180.0000771  10.4600000  2
    438    436    939    919     1  180.0000771  10.4600000  2
    441    447    448    457     1  180.0000771  2.0083200  2
    441    447    448    457     1  0.0000000  1.2552000  3
    441    447    451    454     1  180.0000771  2.0083200  2
    441    447    451    454     1  0.0000000  1.2552000  3
    444    441    447    448     1  180.0000771  2.0083200  2
    444    441    447    448     1  0.0000000  1.2552000  3
    444    441    447    451     1  180.0000771  2.0083200  2
    444    441    447    451     1  0.0000000  1.2552000  3
    447    441    444    464     1  0.0000000  0.6508444  3
    447    448    457    461     1  0.0000000  0.6508444  3
    447    451    454    460     1  0.0000000  0.6508444  3
    448    447    451    454     1  180.0000771  2.0083200  2
    448    447    451    454     1  0.0000000  1.2552000  3
    448    457    461    463     1  180.0000771  0.0000000  2
    448    457    461    989     1  0.0000000  0.2928800  2
    448    457    461    989     1  0.0000000  0.4184000  4
    451    447    448    457     1  180.0000771  2.0083200  2
    451    447    448    457     1  0.0000000  1.2552000  3
    451    454    460    462     1  180.0000771  0.0000000  2
    451    454    460    964     1  0.0000000  0.2928800  2
    451    454    460    964     1  0.0000000  0.4184000  4
    454    460    964    944     1  180.0000771  6.2760000  1
    454    460    964    944     1  0.0000000  0.0000000  2
    457    461    989    969     1  180.0000771  6.2760000  1
    457    461    989    969     1  0.0000000  0.0000000  2
    460    964    944    941     1  0.0000000  2.2175200  1
    460    964    944    941     1  0.0000000  0.0000000  2
    460    964    944    941     1  180.0000771  0.6276000  3
    460    964    944    941     1  180.0000771  2.0920000  4
    461    989    969    966     1  0.0000000  2.2175200  1
    461    989    969    966     1  0.0000000  0.0000000  2
    461    989    969    966     1  180.0000771  0.6276000  3
    461    989    969    966     1  180.0000771  2.0920000  4
    462    460    964    944     1  180.0000771  10.4600000  2
    463    461    989    969     1  180.0000771  10.4600000  2
    466    472    473    482     1  180.0000771  2.0083200  2
    466    472    473    482     1  0.0000000  1.2552000  3
    466    472    476    479     1  180.0000771  2.0083200  2
    466    472    476    479     1  0.0000000  1.2552000  3
    469    466    472    473     1  180.0000771  2.0083200  2
    469    466    472    473     1  0.0000000  1.2552000  3
    469    466    472    476     1  180.0000771  2.0083200  2
    469    466    472    476     1  0.0000000  1.2552000  3
    472    466    469    489     1  0.0000000  0.6508444  3
    472    473    482    486     1  0.0000000  0.6508444  3
    472    476    479    485     1  0.0000000  0.6508444  3
    473    472    476    479     1  180.0000771  2.0083200  2
    473    472    476    479     1  0.0000000  1.2552000  3
    473    482    486    488     1  180.0000771  0.0000000  2
    473    482    486   1039     1  0.0000000  0.2928800  2
    473    482    486   1039     1  0.0000000  0.4184000  4
    476    472    473    482     1  180.0000771  2.0083200  2
    476    472    473    482     1  0.0000000  1.2552000  3
    476    479    485    487     1  180.0000771  0.0000000  2
    476    479    485   1014     1  0.0000000  0.2928800  2
    476    479    485   1014     1  0.0000000  0.4184000  4
    479    485   1014    994     1  180.0000771  6.2760000  1
    479    485   1014    994     1  0.0000000  0.0000000  2
    482    486   1039   1019     1  180.0000771  6.2760000  1
    482    486   1039   1019     1  0.0000000  0.0000000  2
    485   1014    994    991     1  0.0000000  2.2175200  1
    485   1014    994    991     1  0.0000000  0.0000000  2
    485   1014    994    991     1  180.0000771  0.6276000  3
    485   1014    994    991     1  180.0000771  2.0920000  4
    486   1039   1019   1016     1  0.0000000  2.2175200  1
    486   1039   1019   1016     1  0.0000000  0.0000000  2
    486   1039   1019   1016     1  180.0000771  0.6276000  3
    486   1039   1019   1016     1  180.0000771  2.0920000  4
    487    485   1014    994     1  180.0000771  10.4600000  2
    488    486   1039   1019     1  180.0000771  10.4600000  2
    491    497    498    507     1  180.0000771  2.0083200  2
    491    497    498    507     1  0.0000000  1.2552000  3
    491    497    501    504     1  180.0000771  2.0083200  2
    491    497    501    504     1  0.0000000  1.2552000  3
    494    491    497    498     1  180.0000771  2.0083200  2
    494    491    497    498     1  0.0000000  1.2552000  3
    494    491    497    501     1  180.0000771  2.0083200  2
    494    491    497    501     1  0.0000000  1.2552000  3
    497    491    494    514     1  0.0000000  0.6508444  3
    497    498    507    511     1  0.0000000  0.6508444  3
    497    501    504    510     1  0.0000000  0.6508444  3
    498    497    501    504     1  180.0000771  2.0083200  2
    498    497    501    504     1  0.0000000  1.2552000  3
    498    507    511    513     1  180.0000771  0.0000000  2
    498    507    511   1089     1  0.0000000  0.2928800  2
    498    507    511   1089     1  0.0000000  0.4184000  4
    501    497    498    507     1  180.0000771  2.0083200  2
    501    497    498    507     1  0.0000000  1.2552000  3
    501    504    510    512     1  180.0000771  0.0000000  2
    501    504    510   1064     1  0.0000000  0.2928800  2
    501    504    510   1064     1  0.0000000  0.4184000  4
    504    510   1064   1044     1  180.0000771  6.2760000  1
    504    510   1064   1044     1  0.0000000  0.0000000  2
    507    511   1089   1069     1  180.0000771  6.2760000  1
    507    511   1089   1069     1  0.0000000  0.0000000  2
    510   1064   1044   1041     1  0.0000000  2.2175200  1
    510   1064   1044   1041     1  0.0000000  0.0000000  2
    510   1064   1044   1041     1  180.0000771  0.6276000  3
    510   1064   1044   1041     1  180.0000771  2.0920000  4
    511   1089   1069   1066     1  0.0000000  2.2175200  1
    511   1089   1069   1066     1  0.0000000  0.0000000  2
    511   1089   1069   1066     1  180.0000771  0.6276000  3
    511   1089   1069   1066     1  180.0000771  2.0920000  4
    512    510   1064   1044     1  180.0000771  10.4600000  2
    513    511   1089   1069     1  180.0000771  10.4600000  2
    516    522    523    532     1  180.0000771  2.0083200  2
    516    522    523    532     1  0.0000000  1.2552000  3
    516    522    526    529     1  180.0000771  2.0083200  2
    516    522    526    529     1  0.0000000  1.2552000  3
    519    516    522    523     1  180.0000771  2.0083200  2
    519    516    522    523     1  0.0000000  1.2552000  3
    519    516    522    526     1  180.0000771  2.0083200  2
    519    516    522    526     1  0.0000000  1.2552000  3
    522    516    519    539     1  0.0000000  0.6508444  3
    522    523    532    536     1  0.0000000  0.6508444  3
    522    526    529    535     1  0.0000000  0.6508444  3
    523    522    526    529     1  180.0000771  2.0083200  2
    523    522    526    529     1  0.0000000  1.2552000  3
    523    532    536    538     1  180.0000771  0.0000000  2
    523    532    536   1139     1  0.0000000  0.2928800  2
    523    532    536   1139     1  0.0000000  0.4184000  4
    526    522    523    532     1  180.0000771  2.0083200  2
    526    522    523    532     1  0.0000000  1.2552000  3
    526    529    535    537     1  180.0000771  0.0000000  2
    526    529    535   1114     1  0.0000000  0.2928800  2
    526    529    535   1114     1  0.0000000  0.4184000  4
    529    535   1114   1094     1  180.0000771  6.2760000  1
    529    535   1114   1094     1  0.0000000  0.0000000  2
    532    536   1139   1119     1  180.0000771  6.2760000  1
    532    536   1139   1119     1  0.0000000  0.0000000  2
    535   1114   1094   1091     1  0.0000000  2.2175200  1
    535   1114   1094   1091     1  0.0000000  0.0000000  2
    535   1114   1094   1091     1  180.0000771  0.6276000  3
    535   1114   1094   1091     1  180.0000771  2.0920000  4
    536   1139   1119   1116     1  0.0000000  2.2175200  1
    536   1139   1119   1116     1  0.0000000  0.0000000  2
    536   1139   1119   1116     1  180.0000771  0.6276000  3
    536   1139   1119   1116     1  180.0000771  2.0920000  4
    537    535   1114   1094     1  180.0000771  10.4600000  2
    538    536   1139   1119     1  180.0000771  10.4600000  2
    541    547    548    557     1  180.0000771  2.0083200  2
    541    547    548    557     1  0.0000000  1.2552000  3
    541    547    551    554     1  180.0000771  2.0083200  2
    541    547    551    554     1  0.0000000  1.2552000  3
    544    541    547    548     1  180.0000771  2.0083200  2
    544    541    547    548     1  0.0000000  1.2552000  3
    544    541    547    551     1  180.0000771  2.0083200  2
    544    541    547    551     1  0.0000000  1.2552000  3
    547    541    544    564     1  0.0000000  0.6508444  3
    547    548    557    561     1  0.0000000  0.6508444  3
    547    551    554    560     1  0.0000000  0.6508444  3
    548    547    551    554     1  180.0000771  2.0083200  2
    548    547    551    554     1  0.0000000  1.2552000  3
    548    557    561    563     1  180.0000771  0.0000000  2
    548    557    561   1189     1  0.0000000  0.2928800  2
    548    557    561   1189     1  0.0000000  0.4184000  4
    551    547    548    557     1  180.0000771  2.0083200  2
    551    547    548    557     1  0.0000000  1.2552000  3
    551    554    560    562     1  180.0000771  0.0000000  2
    551    554    560   1164     1  0.0000000  0.2928800  2
    551    554    560   1164     1  0.0000000  0.4184000  4
    554    560   1164   1144     1  180.0000771  6.2760000  1
    554    560   1164   1144     1  0.0000000  0.0000000  2
    557    561   1189   1169     1  180.0000771  6.2760000  1
    557    561   1189   1169     1  0.0000000  0.0000000  2
    560   1164   1144   1141     1  0.0000000  2.2175200  1
    560   1164   1144   1141     1  0.0000000  0.0000000  2
    560   1164   1144   1141     1  180.0000771  0.6276000  3
    560   1164   1144   1141     1  180.0000771  2.0920000  4
    561   1189   1169   1166     1  0.0000000  2.2175200  1
    561   1189   1169   1166     1  0.0000000  0.0000000  2
    561   1189   1169   1166     1  180.0000771  0.6276000  3
    561   1189   1169   1166     1  180.0000771  2.0920000  4
    562    560   1164   1144     1  180.0000771  10.4600000  2
    563    561   1189   1169     1  180.0000771  10.4600000  2
    566    572    573    582     1  180.0000771  2.0083200  2
    566    572    573    582     1  0.0000000  1.2552000  3
    566    572    576    579     1  180.0000771  2.0083200  2
    566    572    576    579     1  0.0000000  1.2552000  3
    569    566    572    573     1  180.0000771  2.0083200  2
    569    566    572    573     1  0.0000000  1.2552000  3
    569    566    572    576     1  180.0000771  2.0083200  2
    569    566    572    576     1  0.0000000  1.2552000  3
    572    566    569    589     1  0.0000000  0.6508444  3
    572    573    582    586     1  0.0000000  0.6508444  3
    572    576    579    585     1  0.0000000  0.6508444  3
    573    572    576    579     1  180.0000771  2.0083200  2
    573    572    576    579     1  0.0000000  1.2552000  3
    573    582    586    588     1  180.0000771  0.0000000  2
    573    582    586   1239     1  0.0000000  0.2928800  2
    573    582    586   1239     1  0.0000000  0.4184000  4
    576    572    573    582     1  180.0000771  2.0083200  2
    576    572    573    582     1  0.0000000  1.2552000  3
    576    579    585    587     1  180.0000771  0.0000000  2
    576    579    585   1214     1  0.0000000  0.2928800  2
    576    579    585   1214     1  0.0000000  0.4184000  4
    579    585   1214   1194     1  180.0000771  6.2760000  1
    579    585   1214   1194     1  0.0000000  0.0000000  2
    582    586   1239   1219     1  180.0000771  6.2760000  1
    582    586   1239   1219     1  0.0000000  0.0000000  2
    585   1214   1194   1191     1  0.0000000  2.2175200  1
    585   1214   1194   1191     1  0.0000000  0.0000000  2
    585   1214   1194   1191     1  180.0000771  0.6276000  3
    585   1214   1194   1191     1  180.0000771  2.0920000  4
    586   1239   1219   1216     1  0.0000000  2.2175200  1
    586   1239   1219   1216     1  0.0000000  0.0000000  2
    586   1239   1219   1216     1  180.0000771  0.6276000  3
    586   1239   1219   1216     1  180.0000771  2.0920000  4
    587    585   1214   1194     1  180.0000771  10.4600000  2
    588    586   1239   1219     1  180.0000771  10.4600000  2
    591    597    598    607     1  180.0000771  2.0083200  2
    591    597    598    607     1  0.0000000  1.2552000  3
    591    597    601    604     1  180.0000771  2.0083200  2
    591    597    601    604     1  0.0000000  1.2552000  3
    594    591    597    598     1  180.0000771  2.0083200  2
    594    591    597    598     1  0.0000000  1.2552000  3
    594    591    597    601     1  180.0000771  2.0083200  2
    594    591    597    601     1  0.0000000  1.2552000  3
    597    591    594    614     1  0.0000000  0.6508444  3
    597    598    607    611     1  0.0000000  0.6508444  3
    597    601    604    610     1  0.0000000  0.6508444  3
    598    597    601    604     1  180.0000771  2.0083200  2
    598    597    601    604     1  0.0000000  1.2552000  3
    598    607    611    613     1  180.0000771  0.0000000  2
    598    607    611   1289     1  0.0000000  0.2928800  2
    598    607    611   1289     1  0.0000000  0.4184000  4
    601    597    598    607     1  180.0000771  2.0083200  2
    601    597    598    607     1  0.0000000  1.2552000  3
    601    604    610    612     1  180.0000771  0.0000000  2
    601    604    610   1264     1  0.0000000  0.2928800  2
    601    604    610   1264     1  0.0000000  0.4184000  4
    604    610   1264   1244     1  180.0000771  6.2760000  1
    604    610   1264   1244     1  0.0000000  0.0000000  2
    607    611   1289   1269     1  180.0000771  6.2760000  1
    607    611   1289   1269     1  0.0000000  0.0000000  2
    610   1264   1244   1241     1  0.0000000  2.2175200  1
    610   1264   1244   1241     1  0.0000000  0.0000000  2
    610   1264   1244   1241     1  180.0000771  0.6276000  3
    610   1264   1244   1241     1  180.0000771  2.0920000  4
    611   1289   1269   1266     1  0.0000000  2.2175200  1
    611   1289   1269   1266     1  0.0000000  0.0000000  2
    611   1289   1269   1266     1  180.0000771  0.6276000  3
    611   1289   1269   1266     1  180.0000771  2.0920000  4
    612    610   1264   1244     1  180.0000771  10.4600000  2
    613    611   1289   1269     1  180.0000771  10.4600000  2
    616    622    623    632     1  180.0000771  2.0083200  2
    616    622    623    632     1  0.0000000  1.2552000  3
    616    622    626    629     1  180.0000771  2.0083200  2
    616    622    626    629     1  0.0000000  1.2552000  3
    619    616    622    623     1  180.0000771  2.0083200  2
    619    616    622    623     1  0.0000000  1.2552000  3
    619    616    622    626     1  180.0000771  2.0083200  2
    619    616    622    626     1  0.0000000  1.2552000  3
    622    616    619    639     1  0.0000000  0.6508444  3
    622    623    632    636     1  0.0000000  0.6508444  3
    622    626    629    635     1  0.0000000  0.6508444  3
    623    622    626    629     1  180.0000771  2.0083200  2
    623    622    626    629     1  0.0000000  1.2552000  3
    623    632    636    638     1  180.0000771  0.0000000  2
    623    632    636   1339     1  0.0000000  0.2928800  2
    623    632    636   1339     1  0.0000000  0.4184000  4
    626    622    623    632     1  180.0000771  2.0083200  2
    626    622    623    632     1  0.0000000  1.2552000  3
    626    629    635    637     1  180.0000771  0.0000000  2
    626    629    635   1314     1  0.0000000  0.2928800  2
    626    629    635   1314     1  0.0000000  0.4184000  4
    629    635   1314   1294     1  180.0000771  6.2760000  1
    629    635   1314   1294     1  0.0000000  0.0000000  2
    632    636   1339   1319     1  180.0000771  6.2760000  1
    632    636   1339   1319     1  0.0000000  0.0000000  2
    635   1314   1294   1291     1  0.0000000  2.2175200  1
    635   1314   1294   1291     1  0.0000000  0.0000000  2
    635   1314   1294   1291     1  180.0000771  0.6276000  3
    635   1314   1294   1291     1  180.0000771  2.0920000  4
    636   1339   1319   1316     1  0.0000000  2.2175200  1
    636   1339   1319   1316     1  0.0000000  0.0000000  2
    636   1339   1319   1316     1  180.0000771  0.6276000  3
    636   1339   1319   1316     1  180.0000771  2.0920000  4
    637    635   1314   1294     1  180.0000771  10.4600000  2
    638    636   1339   1319     1  180.0000771  10.4600000  2
    641    647    648    657     1  180.0000771  2.0083200  2
    641    647    648    657     1  0.0000000  1.2552000  3
    641    647    651    654     1  180.0000771  2.0083200  2
    641    647    651    654     1  0.0000000  1.2552000  3
    644    641    647    648     1  180.0000771  2.0083200  2
    644    641    647    648     1  0.0000000  1.2552000  3
    644    641    647    651     1  180.0000771  2.0083200  2
    644    641    647    651     1  0.0000000  1.2552000  3
    647    641    644    664     1  0.0000000  0.6508444  3
    647    648    657    661     1  0.0000000  0.6508444  3
    647    651    654    660     1  0.0000000  0.6508444  3
    648    647    651    654     1  180.0000771  2.0083200  2
    648    647    651    654     1  0.0000000  1.2552000  3
    648    657    661    663     1  180.0000771  0.0000000  2
    648    657    661   1389     1  0.0000000  0.2928800  2
    648    657    661   1389     1  0.0000000  0.4184000  4
    651    647    648    657     1  180.0000771  2.0083200  2
    651    647    648    657     1  0.0000000  1.2552000  3
    651    654    660    662     1  180.0000771  0.0000000  2
    651    654    660   1364     1  0.0000000  0.2928800  2
    651    654    660   1364     1  0.0000000  0.4184000  4
    654    660   1364   1344     1  180.0000771  6.2760000  1
    654    660   1364   1344     1  0.0000000  0.0000000  2
    657    661   1389   1369     1  180.0000771  6.2760000  1
    657    661   1389   1369     1  0.0000000  0.0000000  2
    660   1364   1344   1341     1  0.0000000  2.2175200  1
    660   1364   1344   1341     1  0.0000000  0.0000000  2
    660   1364   1344   1341     1  180.0000771  0.6276000  3
    660   1364   1344   1341     1  180.0000771  2.0920000  4
    661   1389   1369   1366     1  0.0000000  2.2175200  1
    661   1389   1369   1366     1  0.0000000  0.0000000  2
    661   1389   1369   1366     1  180.0000771  0.6276000  3
    661   1389   1369   1366     1  180.0000771  2.0920000  4
    662    660   1364   1344     1  180.0000771  10.4600000  2
    663    661   1389   1369     1  180.0000771  10.4600000  2
    666    672    673    682     1  180.0000771  2.0083200  2
    666    672    673    682     1  0.0000000  1.2552000  3
    666    672    676    679     1  180.0000771  2.0083200  2
    666    672    676    679     1  0.0000000  1.2552000  3
    669    666    672    673     1  180.0000771  2.0083200  2
    669    666    672    673     1  0.0000000  1.2552000  3
    669    666    672    676     1  180.0000771  2.0083200  2
    669    666    672    676     1  0.0000000  1.2552000  3
    672    666    669    689     1  0.0000000  0.6508444  3
    672    673    682    686     1  0.0000000  0.6508444  3
    672    676    679    685     1  0.0000000  0.6508444  3
    673    672    676    679     1  180.0000771  2.0083200  2
    673    672    676    679     1  0.0000000  1.2552000  3
    673    682    686    688     1  180.0000771  0.0000000  2
    673    682    686   1439     1  0.0000000  0.2928800  2
    673    682    686   1439     1  0.0000000  0.4184000  4
    676    672    673    682     1  180.0000771  2.0083200  2
    676    672    673    682     1  0.0000000  1.2552000  3
    676    679    685    687     1  180.0000771  0.0000000  2
    676    679    685   1414     1  0.0000000  0.2928800  2
    676    679    685   1414     1  0.0000000  0.4184000  4
    679    685   1414   1394     1  180.0000771  6.2760000  1
    679    685   1414   1394     1  0.0000000  0.0000000  2
    682    686   1439   1419     1  180.0000771  6.2760000  1
    682    686   1439   1419     1  0.0000000  0.0000000  2
    685   1414   1394   1391     1  0.0000000  2.2175200  1
    685   1414   1394   1391     1  0.0000000  0.0000000  2
    685   1414   1394   1391     1  180.0000771  0.6276000  3
    685   1414   1394   1391     1  180.0000771  2.0920000  4
    686   1439   1419   1416     1  0.0000000  2.2175200  1
    686   1439   1419   1416     1  0.0000000  0.0000000  2
    686   1439   1419   1416     1  180.0000771  0.6276000  3
    686   1439   1419   1416     1  180.0000771  2.0920000  4
    687    685   1414   1394     1  180.0000771  10.4600000  2
    688    686   1439   1419     1  180.0000771  10.4600000  2
    691    697    698    707     1  180.0000771  2.0083200  2
    691    697    698    707     1  0.0000000  1.2552000  3
    691    697    701    704     1  180.0000771  2.0083200  2
    691    697    701    704     1  0.0000000  1.2552000  3
    694    691    697    698     1  180.0000771  2.0083200  2
    694    691    697    698     1  0.0000000  1.2552000  3
    694    691    697    701     1  180.0000771  2.0083200  2
    694    691    697    701     1  0.0000000  1.2552000  3
    697    691    694    714     1  0.0000000  0.6508444  3
    697    698    707    711     1  0.0000000  0.6508444  3
    697    701    704    710     1  0.0000000  0.6508444  3
    698    697    701    704     1  180.0000771  2.0083200  2
    698    697    701    704     1  0.0000000  1.2552000  3
    698    707    711    713     1  180.0000771  0.0000000  2
    698    707    711   1489     1  0.0000000  0.2928800  2
    698    707    711   1489     1  0.0000000  0.4184000  4
    701    697    698    707     1  180.0000771  2.0083200  2
    701    697    698    707     1  0.0000000  1.2552000  3
    701    704    710    712     1  180.0000771  0.0000000  2
    701    704    710   1464     1  0.0000000  0.2928800  2
    701    704    710   1464     1  0.0000000  0.4184000  4
    704    710   1464   1444     1  180.0000771  6.2760000  1
    704    710   1464   1444     1  0.0000000  0.0000000  2
    707    711   1489   1469     1  180.0000771  6.2760000  1
    707    711   1489   1469     1  0.0000000  0.0000000  2
    710   1464   1444   1441     1  0.0000000  2.2175200  1
    710   1464   1444   1441     1  0.0000000  0.0000000  2
    710   1464   1444   1441     1  180.0000771  0.6276000  3
    710   1464   1444   1441     1  180.0000771  2.0920000  4
    711   1489   1469   1466     1  0.0000000  2.2175200  1
    711   1489   1469   1466     1  0.0000000  0.0000000  2
    711   1489   1469   1466     1  180.0000771  0.6276000  3
    711   1489   1469   1466     1  180.0000771  2.0920000  4
    712    710   1464   1444     1  180.0000771  10.4600000  2
    713    711   1489   1469     1  180.0000771  10.4600000  2
    716    722    723    732     1  180.0000771  2.0083200  2
    716    722    723    732     1  0.0000000  1.2552000  3
    716    722    726    729     1  180.0000771  2.0083200  2
    716    722    726    729     1  0.0000000  1.2552000  3
    719    716    722    723     1  180.0000771  2.0083200  2
    719    716    722    723     1  0.0000000  1.2552000  3
    719    716    722    726     1  180.0000771  2.0083200  2
    719    716    722    726     1  0.0000000  1.2552000  3
    722    716    719    739     1  0.0000000  0.6508444  3
    722    723    732    736     1  0.0000000  0.6508444  3
    722    726    729    735     1  0.0000000  0.6508444  3
    723    722    726    729     1  180.0000771  2.0083200  2
    723    722    726    729     1  0.0000000  1.2552000  3
    723    732    736    738     1  180.0000771  0.0000000  2
    723    732    736   1539     1  0.0000000  0.2928800  2
    723    732    736   1539     1  0.0000000  0.4184000  4
    726    722    723    732     1  180.0000771  2.0083200  2
    726    722    723    732     1  0.0000000  1.2552000  3
    726    729    735    737     1  180.0000771  0.0000000  2
    726    729    735   1514     1  0.0000000  0.2928800  2
    726    729    735   1514     1  0.0000000  0.4184000  4
    729    735   1514   1494     1  180.0000771  6.2760000  1
    729    735   1514   1494     1  0.0000000  0.0000000  2
    732    736   1539   1519     1  180.0000771  6.2760000  1
    732    736   1539   1519     1  0.0000000  0.0000000  2
    735   1514   1494   1491     1  0.0000000  2.2175200  1
    735   1514   1494   1491     1  0.0000000  0.0000000  2
    735   1514   1494   1491     1  180.0000771  0.6276000  3
    735   1514   1494   1491     1  180.0000771  2.0920000  4
    736   1539   1519   1516     1  0.0000000  2.2175200  1
    736   1539   1519   1516     1  0.0000000  0.0000000  2
    736   1539   1519   1516     1  180.0000771  0.6276000  3
    736   1539   1519   1516     1  180.0000771  2.0920000  4
    737    735   1514   1494     1  180.0000771  10.4600000  2
    738    736   1539   1519     1  180.0000771  10.4600000  2
    741    747    748    757     1  180.0000771  2.0083200  2
    741    747    748    757     1  0.0000000  1.2552000  3
    741    747    751    754     1  180.0000771  2.0083200  2
    741    747    751    754     1  0.0000000  1.2552000  3
    744    741    747    748     1  180.0000771  2.0083200  2
    744    741    747    748     1  0.0000000  1.2552000  3
    744    741    747    751     1  180.0000771  2.0083200  2
    744    741    747    751     1  0.0000000  1.2552000  3
    747    741    744    764     1  0.0000000  0.6508444  3
    747    748    757    761     1  0.0000000  0.6508444  3
    747    751    754    760     1  0.0000000  0.6508444  3
    748    747    751    754     1  180.0000771  2.0083200  2
    748    747    751    754     1  0.0000000  1.2552000  3
    748    757    761    763     1  180.0000771  0.0000000  2
    748    757    761   1589     1  0.0000000  0.2928800  2
    748    757    761   1589     1  0.0000000  0.4184000  4
    751    747    748    757     1  180.0000771  2.0083200  2
    751    747    748    757     1  0.0000000  1.2552000  3
    751    754    760    762     1  180.0000771  0.0000000  2
    751    754    760   1564     1  0.0000000  0.2928800  2
    751    754    760   1564     1  0.0000000  0.4184000  4
    754    760   1564   1544     1  180.0000771  6.2760000  1
    754    760   1564   1544     1  0.0000000  0.0000000  2
    757    761   1589   1569     1  180.0000771  6.2760000  1
    757    761   1589   1569     1  0.0000000  0.0000000  2
    760   1564   1544   1541     1  0.0000000  2.2175200  1
    760   1564   1544   1541     1  0.0000000  0.0000000  2
    760   1564   1544   1541     1  180.0000771  0.6276000  3
    760   1564   1544   1541     1  180.0000771  2.0920000  4
    761   1589   1569   1566     1  0.0000000  2.2175200  1
    761   1589   1569   1566     1  0.0000000  0.0000000  2
    761   1589   1569   1566     1  180.0000771  0.6276000  3
    761   1589   1569   1566     1  180.0000771  2.0920000  4
    762    760   1564   1544     1  180.0000771  10.4600000  2
    763    761   1589   1569     1  180.0000771  10.4600000  2
    766    772    773    782     1  180.0000771  2.0083200  2
    766    772    773    782     1  0.0000000  1.2552000  3
    766    772    776    779     1  180.0000771  2.0083200  2
    766    772    776    779     1  0.0000000  1.2552000  3
    769    766    772    773     1  180.0000771  2.0083200  2
    769    766    772    773     1  0.0000000  1.2552000  3
    769    766    772    776     1  180.0000771  2.0083200  2
    769    766    772    776     1  0.0000000  1.2552000  3
    772    766    769    789     1  0.0000000  0.6508444  3
    772    773    782    786     1  0.0000000  0.6508444  3
    772    776    779    785     1  0.0000000  0.6508444  3
    773    772    776    779     1  180.0000771  2.0083200  2
    773    772    776    779     1  0.0000000  1.2552000  3
    773    782    786    788     1  180.0000771  0.0000000  2
    773    782    786   1639     1  0.0000000  0.2928800  2
    773    782    786   1639     1  0.0000000  0.4184000  4
    776    772    773    782     1  180.0000771  2.0083200  2
    776    772    773    782     1  0.0000000  1.2552000  3
    776    779    785    787     1  180.0000771  0.0000000  2
    776    779    785   1614     1  0.0000000  0.2928800  2
    776    779    785   1614     1  0.0000000  0.4184000  4
    779    785   1614   1594     1  180.0000771  6.2760000  1
    779    785   1614   1594     1  0.0000000  0.0000000  2
    782    786   1639   1619     1  180.0000771  6.2760000  1
    782    786   1639   1619     1  0.0000000  0.0000000  2
    785   1614   1594   1591     1  0.0000000  2.2175200  1
    785   1614   1594   1591     1  0.0000000  0.0000000  2
    785   1614   1594   1591     1  180.0000771  0.6276000  3
    785   1614   1594   1591     1  180.0000771  2.0920000  4
    786   1639   1619   1616     1  0.0000000  2.2175200  1
    786   1639   1619   1616     1  0.0000000  0.0000000  2
    786   1639   1619   1616     1  180.0000771  0.6276000  3
    786   1639   1619   1616     1  180.0000771  2.0920000  4
    787    785   1614   1594     1  180.0000771  10.4600000  2
    788    786   1639   1619     1  180.0000771  10.4600000  2
    791    797    798    807     1  180.0000771  2.0083200  2
    791    797    798    807     1  0.0000000  1.2552000  3
    791    797    801    804     1  180.0000771  2.0083200  2
    791    797    801    804     1  0.0000000  1.2552000  3
    794    791    797    798     1  180.0000771  2.0083200  2
    794    791    797    798     1  0.0000000  1.2552000  3
    794    791    797    801     1  180.0000771  2.0083200  2
    794    791    797    801     1  0.0000000  1.2552000  3
    797    791    794    814     1  0.0000000  0.6508444  3
    797    798    807    811     1  0.0000000  0.6508444  3
    797    801    804    810     1  0.0000000  0.6508444  3
    798    797    801    804     1  180.0000771  2.0083200  2
    798    797    801    804     1  0.0000000  1.2552000  3
    798    807    811    813     1  180.0000771  0.0000000  2
    798    807    811   1689     1  0.0000000  0.2928800  2
    798    807    811   1689     1  0.0000000  0.4184000  4
    801    797    798    807     1  180.0000771  2.0083200  2
    801    797    798    807     1  0.0000000  1.2552000  3
    801    804    810    812     1  180.0000771  0.0000000  2
    801    804    810   1664     1  0.0000000  0.2928800  2
    801    804    810   1664     1  0.0000000  0.4184000  4
    804    810   1664   1644     1  180.0000771  6.2760000  1
    804    810   1664   1644     1  0.0000000  0.0000000  2
    807    811   1689   1669     1  180.0000771  6.2760000  1
    807    811   1689   1669     1  0.0000000  0.0000000  2
    810   1664   1644   1641     1  0.0000000  2.2175200  1
    810   1664   1644   1641     1  0.0000000  0.0000000  2
    810   1664   1644   1641     1  180.0000771  0.6276000  3
    810   1664   1644   1641     1  180.0000771  2.0920000  4
    811   1689   1669   1666     1  0.0000000  2.2175200  1
    811   1689   1669   1666     1  0.0000000  0.0000000  2
    811   1689   1669   1666     1  180.0000771  0.6276000  3
    811   1689   1669   1666     1  180.0000771  2.0920000  4
    812    810   1664   1644     1  180.0000771  10.4600000  2
    813    811   1689   1669     1  180.0000771  10.4600000  2
    816    822    823    832     1  180.0000771  2.0083200  2
    816    822    823    832     1  0.0000000  1.2552000  3
    816    822    826    829     1  180.0000771  2.0083200  2
    816    822    826    829     1  0.0000000  1.2552000  3
    819    816    822    823     1  180.0000771  2.0083200  2
    819    816    822    823     1  0.0000000  1.2552000  3
    819    816    822    826     1  180.0000771  2.0083200  2
    819    816    822    826     1  0.0000000  1.2552000  3
    822    816    819    839     1  0.0000000  0.6508444  3
    822    823    832    836     1  0.0000000  0.6508444  3
    822    826    829    835     1  0.0000000  0.6508444  3
    823    822    826    829     1  180.0000771  2.0083200  2
    823    822    826    829     1  0.0000000  1.2552000  3
    823    832    836    838     1  180.0000771  0.0000000  2
    823    832    836   1739     1  0.0000000  0.2928800  2
    823    832    836   1739     1  0.0000000  0.4184000  4
    826    822    823    832     1  180.0000771  2.0083200  2
    826    822    823    832     1  0.0000000  1.2552000  3
    826    829    835    837     1  180.0000771  0.0000000  2
    826    829    835   1714     1  0.0000000  0.2928800  2
    826    829    835   1714     1  0.0000000  0.4184000  4
    829    835   1714   1694     1  180.0000771  6.2760000  1
    829    835   1714   1694     1  0.0000000  0.0000000  2
    832    836   1739   1719     1  180.0000771  6.2760000  1
    832    836   1739   1719     1  0.0000000  0.0000000  2
    835   1714   1694   1691     1  0.0000000  2.2175200  1
    835   1714   1694   1691     1  0.0000000  0.0000000  2
    835   1714   1694   1691     1  180.0000771  0.6276000  3
    835   1714   1694   1691     1  180.0000771  2.0920000  4
    836   1739   1719   1716     1  0.0000000  2.2175200  1
    836   1739   1719   1716     1  0.0000000  0.0000000  2
    836   1739   1719   1716     1  180.0000771  0.6276000  3
    836   1739   1719   1716     1  180.0000771  2.0920000  4
    837    835   1714   1694     1  180.0000771  10.4600000  2
    838    836   1739   1719     1  180.0000771  10.4600000  2
    841    847    848    857     1  180.0000771  2.0083200  2
    841    847    848    857     1  0.0000000  1.2552000  3
    841    847    851    854     1  180.0000771  2.0083200  2
    841    847    851    854     1  0.0000000  1.2552000  3
    844    841    847    848     1  180.0000771  2.0083200  2
    844    841    847    848     1  0.0000000  1.2552000  3
    844    841    847    851     1  180.0000771  2.0083200  2
    844    841    847    851     1  0.0000000  1.2552000  3
    847    841    844    864     1  0.0000000  0.6508444  3
    847    848    857    861     1  0.0000000  0.6508444  3
    847    851    854    860     1  0.0000000  0.6508444  3
    848    847    851    854     1  180.0000771  2.0083200  2
    848    847    851    854     1  0.0000000  1.2552000  3
    848    857    861    863     1  180.0000771  0.0000000  2
    848    857    861   1789     1  0.0000000  0.2928800  2
    848    857    861   1789     1  0.0000000  0.4184000  4
    851    847    848    857     1  180.0000771  2.0083200  2
    851    847    848    857     1  0.0000000  1.2552000  3
    851    854    860    862     1  180.0000771  0.0000000  2
    851    854    860   1764     1  0.0000000  0.2928800  2
    851    854    860   1764     1  0.0000000  0.4184000  4
    854    860   1764   1744     1  180.0000771  6.2760000  1
    854    860   1764   1744     1  0.0000000  0.0000000  2
    857    861   1789   1769     1  180.0000771  6.2760000  1
    857    861   1789   1769     1  0.0000000  0.0000000  2
    860   1764   1744   1741     1  0.0000000  2.2175200  1
    860   1764   1744   1741     1  0.0000000  0.0000000  2
    860   1764   1744   1741     1  180.0000771  0.6276000  3
    860   1764   1744   1741     1  180.0000771  2.0920000  4
    861   1789   1769   1766     1  0.0000000  2.2175200  1
    861   1789   1769   1766     1  0.0000000  0.0000000  2
    861   1789   1769   1766     1  180.0000771  0.6276000  3
    861   1789   1769   1766     1  180.0000771  2.0920000  4
    862    860   1764   1744     1  180.0000771  10.4600000  2
    863    861   1789   1769     1  180.0000771  10.4600000  2
    866    872    873    882     1  180.0000771  2.0083200  2
    866    872    873    882     1  0.0000000  1.2552000  3
    866    872    876    879     1  180.0000771  2.0083200  2
    866    872    876    879     1  0.0000000  1.2552000  3
    869    866    872    873     1  180.0000771  2.0083200  2
    869    866    872    873     1  0.0000000  1.2552000  3
    869    866    872    876     1  180.0000771  2.0083200  2
    869    866    872    876     1  0.0000000  1.2552000  3
    872    866    869    889     1  0.0000000  0.6508444  3
    872    873    882    886     1  0.0000000  0.6508444  3
    872    876    879    885     1  0.0000000  0.6508444  3
    873    872    876    879     1  180.0000771  2.0083200  2
    873    872    876    879     1  0.0000000  1.2552000  3
    873    882    886    888     1  180.0000771  0.0000000  2
    873    882    886   1839     1  0.0000000  0.2928800  2
    873    882    886   1839     1  0.0000000  0.4184000  4
    876    872    873    882     1  180.0000771  2.0083200  2
    876    872    873    882     1  0.0000000  1.2552000  3
    876    879    885    887     1  180.0000771  0.0000000  2
    876    879    885   1814     1  0.0000000  0.2928800  2
    876    879    885   1814     1  0.0000000  0.4184000  4
    879    885   1814   1794     1  180.0000771  6.2760000  1
    879    885   1814   1794     1  0.0000000  0.0000000  2
    882    886   1839   1819     1  180.0000771  6.2760000  1
    882    886   1839   1819     1  0.0000000  0.0000000  2
    885   1814   1794   1791     1  0.0000000  2.2175200  1
    885   1814   1794   1791     1  0.0000000  0.0000000  2
    885   1814   1794   1791     1  180.0000771  0.6276000  3
    885   1814   1794   1791     1  180.0000771  2.0920000  4
    886   1839   1819   1816     1  0.0000000  2.2175200  1
    886   1839   1819   1816     1  0.0000000  0.0000000  2
    886   1839   1819   1816     1  180.0000771  0.6276000  3
    886   1839   1819   1816     1  180.0000771  2.0920000  4
    887    885   1814   1794     1  180.0000771  10.4600000  2
    888    886   1839   1819     1  180.0000771  10.4600000  2
    891    897    898    907     1  180.0000771  2.0083200  2
    891    897    898    907     1  0.0000000  1.2552000  3
    891    897    901    904     1  180.0000771  2.0083200  2
    891    897    901    904     1  0.0000000  1.2552000  3
    894    891    897    898     1  180.0000771  2.0083200  2
    894    891    897    898     1  0.0000000  1.2552000  3
    894    891    897    901     1  180.0000771  2.0083200  2
    894    891    897    901     1  0.0000000  1.2552000  3
    897    891    894    914     1  0.0000000  0.6508444  3
    897    898    907    911     1  0.0000000  0.6508444  3
    897    901    904    910     1  0.0000000  0.6508444  3
    898    897    901    904     1  180.0000771  2.0083200  2
    898    897    901    904     1  0.0000000  1.2552000  3
    898    907    911    913     1  180.0000771  0.0000000  2
    898    907    911   1889     1  0.0000000  0.2928800  2
    898    907    911   1889     1  0.0000000  0.4184000  4
    901    897    898    907     1  180.0000771  2.0083200  2
    901    897    898    907     1  0.0000000  1.2552000  3
    901    904    910    912     1  180.0000771  0.0000000  2
    901    904    910   1864     1  0.0000000  0.2928800  2
    901    904    910   1864     1  0.0000000  0.4184000  4
    904    910   1864   1844     1  180.0000771  6.2760000  1
    904    910   1864   1844     1  0.0000000  0.0000000  2
    907    911   1889   1869     1  180.0000771  6.2760000  1
    907    911   1889   1869     1  0.0000000  0.0000000  2
    910   1864   1844   1841     1  0.0000000  2.2175200  1
    910   1864   1844   1841     1  0.0000000  0.0000000  2
    910   1864   1844   1841     1  180.0000771  0.6276000  3
    910   1864   1844   1841     1  180.0000771  2.0920000  4
    911   1889   1869   1866     1  0.0000000  2.2175200  1
    911   1889   1869   1866     1  0.0000000  0.0000000  2
    911   1889   1869   1866     1  180.0000771  0.6276000  3
    911   1889   1869   1866     1  180.0000771  2.0920000  4
    912    910   1864   1844     1  180.0000771  10.4600000  2
    913    911   1889   1869     1  180.0000771  10.4600000  2
    916    922    923    932     1  180.0000771  2.0083200  2
    916    922    923    932     1  0.0000000  1.2552000  3
    916    922    926    929     1  180.0000771  2.0083200  2
    916    922    926    929     1  0.0000000  1.2552000  3
    919    916    922    923     1  180.0000771  2.0083200  2
    919    916    922    923     1  0.0000000  1.2552000  3
    919    916    922    926     1  180.0000771  2.0083200  2
    919    916    922    926     1  0.0000000  1.2552000  3
    922    916    919    939     1  0.0000000  0.6508444  3
    922    923    932    936     1  0.0000000  0.6508444  3
    922    926    929    935     1  0.0000000  0.6508444  3
    923    922    926    929     1  180.0000771  2.0083200  2
    923    922    926    929     1  0.0000000  1.2552000  3
    923    932    936    938     1  180.0000771  0.0000000  2
    923    932    936   1939     1  0.0000000  0.2928800  2
    923    932    936   1939     1  0.0000000  0.4184000  4
    926    922    923    932     1  180.0000771  2.0083200  2
    926    922    923    932     1  0.0000000  1.2552000  3
    926    929    935    937     1  180.0000771  0.0000000  2
    926    929    935   1914     1  0.0000000  0.2928800  2
    926    929    935   1914     1  0.0000000  0.4184000  4
    929    935   1914   1894     1  180.0000771  6.2760000  1
    929    935   1914   1894     1  0.0000000  0.0000000  2
    932    936   1939   1919     1  180.0000771  6.2760000  1
    932    936   1939   1919     1  0.0000000  0.0000000  2
    935   1914   1894   1891     1  0.0000000  2.2175200  1
    935   1914   1894   1891     1  0.0000000  0.0000000  2
    935   1914   1894   1891     1  180.0000771  0.6276000  3
    935   1914   1894   1891     1  180.0000771  2.0920000  4
    936   1939   1919   1916     1  0.0000000  2.2175200  1
    936   1939   1919   1916     1  0.0000000  0.0000000  2
    936   1939   1919   1916     1  180.0000771  0.6276000  3
    936   1939   1919   1916     1  180.0000771  2.0920000  4
    937    935   1914   1894     1  180.0000771  10.4600000  2
    938    936   1939   1919     1  180.0000771  10.4600000  2
    941    947    948    957     1  180.0000771  2.0083200  2
    941    947    948    957     1  0.0000000  1.2552000  3
    941    947    951    954     1  180.0000771  2.0083200  2
    941    947    951    954     1  0.0000000  1.2552000  3
    944    941    947    948     1  180.0000771  2.0083200  2
    944    941    947    948     1  0.0000000  1.2552000  3
    944    941    947    951     1  180.0000771  2.0083200  2
    944    941    947    951     1  0.0000000  1.2552000  3
    947    941    944    964     1  0.0000000  0.6508444  3
    947    948    957    961     1  0.0000000  0.6508444  3
    947    951    954    960     1  0.0000000  0.6508444  3
    948    947    951    954     1  180.0000771  2.0083200  2
    948    947    951    954     1  0.0000000  1.2552000  3
    948    957    961    963     1  180.0000771  0.0000000  2
    948    957    961   1989     1  0.0000000  0.2928800  2
    948    957    961   1989     1  0.0000000  0.4184000  4
    951    947    948    957     1  180.0000771  2.0083200  2
    951    947    948    957     1  0.0000000  1.2552000  3
    951    954    960    962     1  180.0000771  0.0000000  2
    951    954    960   1964     1  0.0000000  0.2928800  2
    951    954    960   1964     1  0.0000000  0.4184000  4
    954    960   1964   1944     1  180.0000771  6.2760000  1
    954    960   1964   1944     1  0.0000000  0.0000000  2
    957    961   1989   1969     1  180.0000771  6.2760000  1
    957    961   1989   1969     1  0.0000000  0.0000000  2
    960   1964   1944   1941     1  0.0000000  2.2175200  1
    960   1964   1944   1941     1  0.0000000  0.0000000  2
    960   1964   1944   1941     1  180.0000771  0.6276000  3
    960   1964   1944   1941     1  180.0000771  2.0920000  4
    961   1989   1969   1966     1  0.0000000  2.2175200  1
    961   1989   1969   1966     1  0.0000000  0.0000000  2
    961   1989   1969   1966     1  180.0000771  0.6276000  3
    961   1989   1969   1966     1  180.0000771  2.0920000  4
    962    960   1964   1944     1  180.0000771  10.4600000  2
    963    961   1989   1969     1  180.0000771  10.4600000  2
    966    972    973    982     1  180.0000771  2.0083200  2
    966    972    973    982     1  0.0000000  1.2552000  3
    966    972    976    979     1  180.0000771  2.0083200  2
    966    972    976    979     1  0.0000000  1.2552000  3
    969    966    972    973     1  180.0000771  2.0083200  2
    969    966    972    973     1  0.0000000  1.2552000  3
    969    966    972    976     1  180.0000771  2.0083200  2
    969    966    972    976     1  0.0000000  1.2552000  3
    972    966    969    989     1  0.0000000  0.6508444  3
    972    973    982    986     1  0.0000000  0.6508444  3
    972    976    979    985     1  0.0000000  0.6508444  3
    973    972    976    979     1  180.0000771  2.0083200  2
    973    972    976    979     1  0.0000000  1.2552000  3
    973    982    986    988     1  180.0000771  0.0000000  2
    973    982    986   2039     1  0.0000000  0.2928800  2
    973    982    986   2039     1  0.0000000  0.4184000  4
    976    972    973    982     1  180.0000771  2.0083200  2
    976    972    973    982     1  0.0000000  1.2552000  3
    976    979    985    987     1  180.0000771  0.0000000  2
    976    979    985   2014     1  0.0000000  0.2928800  2
    976    979    985   2014     1  0.0000000  0.4184000  4
    979    985   2014   1994     1  180.0000771  6.2760000  1
    979    985   2014   1994     1  0.0000000  0.0000000  2
    982    986   2039   2019     1  180.0000771  6.2760000  1
    982    986   2039   2019     1  0.0000000  0.0000000  2
    985   2014   1994   1991     1  0.0000000  2.2175200  1
    985   2014   1994   1991     1  0.0000000  0.0000000  2
    985   2014   1994   1991     1  180.0000771  0.6276000  3
    985   2014   1994   1991     1  180.0000771  2.0920000  4
    986   2039   2019   2016     1  0.0000000  2.2175200  1
    986   2039   2019   2016     1  0.0000000  0.0000000  2
    986   2039   2019   2016     1  180.0000771  0.6276000  3
    986   2039   2019   2016     1  180.0000771  2.0920000  4
    987    985   2014   1994     1  180.0000771  10.4600000  2
    988    986   2039   2019     1  180.0000771  10.4600000  2
    991    997    998   1007     1  180.0000771  2.0083200  2
    991    997    998   1007     1  0.0000000  1.2552000  3
    991    997   1001   1004     1  180.0000771  2.0083200  2
    991    997   1001   1004     1  0.0000000  1.2552000  3
    994    991    997    998     1  180.0000771  2.0083200  2
    994    991    997    998     1  0.0000000  1.2552000  3
    994    991    997   1001     1  180.0000771  2.0083200  2
    994    991    997   1001     1  0.0000000  1.2552000  3
    997    991    994   1014     1  0.0000000  0.6508444  3
    997    998   1007   1011     1  0.0000000  0.6508444  3
    997   1001   1004   1010     1  0.0000000  0.6508444  3
    998    997   1001   1004     1  180.0000771  2.0083200  2
    998    997   1001   1004     1  0.0000000  1.2552000  3
    998   1007   1011   1013     1  180.0000771  0.0000000  2
    998   1007   1011   2089     1  0.0000000  0.2928800  2
    998   1007   1011   2089     1  0.0000000  0.4184000  4
   1001    997    998   1007     1  180.0000771  2.0083200  2
   1001    997    998   1007     1  0.0000000  1.2552000  3
   1001   1004   1010   1012     1  180.0000771  0.0000000  2
   1001   1004   1010   2064     1  0.0000000  0.2928800  2
   1001   1004   1010   2064     1  0.0000000  0.4184000  4
   1004   1010   2064   2044     1  180.0000771  6.2760000  1
   1004   1010   2064   2044     1  0.0000000  0.0000000  2
   1007   1011   2089   2069     1  180.0000771  6.2760000  1
   1007   1011   2089   2069     1  0.0000000  0.0000000  2
   1010   2064   2044   2041     1  0.0000000  2.2175200  1
   1010   2064   2044   2041     1  0.0000000  0.0000000  2
   1010   2064   2044   2041     1  180.0000771  0.6276000  3
   1010   2064   2044   2041     1  180.0000771  2.0920000  4
   1011   2089   2069   2066     1  0.0000000  2.2175200  1
   1011   2089   2069   2066     1  0.0000000  0.0000000  2
   1011   2089   2069   2066     1  180.0000771  0.6276000  3
   1011   2089   2069   2066     1  180.0000771  2.0920000  4
   1012   1010   2064   2044     1  180.0000771  10.4600000  2
   1013   1011   2089   2069     1  180.0000771  10.4600000  2
   1016   1022   1023   1032     1  180.0000771  2.0083200  2
   1016   1022   1023   1032     1  0.0000000  1.2552000  3
   1016   1022   1026   1029     1  180.0000771  2.0083200  2
   1016   1022   1026   1029     1  0.0000000  1.2552000  3
   1019   1016   1022   1023     1  180.0000771  2.0083200  2
   1019   1016   1022   1023     1  0.0000000  1.2552000  3
   1019   1016   1022   1026     1  180.0000771  2.0083200  2
   1019   1016   1022   1026     1  0.0000000  1.2552000  3
   1022   1016   1019   1039     1  0.0000000  0.6508444  3
   1022   1023   1032   1036     1  0.0000000  0.6508444  3
   1022   1026   1029   1035     1  0.0000000  0.6508444  3
   1023   1022   1026   1029     1  180.0000771  2.0083200  2
   1023   1022   1026   1029     1  0.0000000  1.2552000  3
   1023   1032   1036   1038     1  180.0000771  0.0000000  2
   1023   1032   1036   2139     1  0.0000000  0.2928800  2
   1023   1032   1036   2139     1  0.0000000  0.4184000  4
   1026   1022   1023   1032     1  180.0000771  2.0083200  2
   1026   1022   1023   1032     1  0.0000000  1.2552000  3
   1026   1029   1035   1037     1  180.0000771  0.0000000  2
   1026   1029   1035   2114     1  0.0000000  0.2928800  2
   1026   1029   1035   2114     1  0.0000000  0.4184000  4
   1029   1035   2114   2094     1  180.0000771  6.2760000  1
   1029   1035   2114   2094     1  0.0000000  0.0000000  2
   1032   1036   2139   2119     1  180.0000771  6.2760000  1
   1032   1036   2139   2119     1  0.0000000  0.0000000  2
   1035   2114   2094   2091     1  0.0000000  2.2175200  1
   1035   2114   2094   2091     1  0.0000000  0.0000000  2
   1035   2114   2094   2091     1  180.0000771  0.6276000  3
   1035   2114   2094   2091     1  180.0000771  2.0920000  4
   1036   2139   2119   2116     1  0.0000000  2.2175200  1
   1036   2139   2119   2116     1  0.0000000  0.0000000  2
   1036   2139   2119   2116     1  180.0000771  0.6276000  3
   1036   2139   2119   2116     1  180.0000771  2.0920000  4
   1037   1035   2114   2094     1  180.0000771  10.4600000  2
   1038   1036   2139   2119     1  180.0000771  10.4600000  2
   1041   1047   1048   1057     1  180.0000771  2.0083200  2
   1041   1047   1048   1057     1  0.0000000  1.2552000  3
   1041   1047   1051   1054     1  180.0000771  2.0083200  2
   1041   1047   1051   1054     1  0.0000000  1.2552000  3
   1044   1041   1047   1048     1  180.0000771  2.0083200  2
   1044   1041   1047   1048     1  0.0000000  1.2552000  3
   1044   1041   1047   1051     1  180.0000771  2.0083200  2
   1044   1041   1047   1051     1  0.0000000  1.2552000  3
   1047   1041   1044   1064     1  0.0000000  0.6508444  3
   1047   1048   1057   1061     1  0.0000000  0.6508444  3
   1047   1051   1054   1060     1  0.0000000  0.6508444  3
   1048   1047   1051   1054     1  180.0000771  2.0083200  2
   1048   1047   1051   1054     1  0.0000000  1.2552000  3
   1048   1057   1061   1063     1  180.0000771  0.0000000  2
   1048   1057   1061   2189     1  0.0000000  0.2928800  2
   1048   1057   1061   2189     1  0.0000000  0.4184000  4
   1051   1047   1048   1057     1  180.0000771  2.0083200  2
   1051   1047   1048   1057     1  0.0000000  1.2552000  3
   1051   1054   1060   1062     1  180.0000771  0.0000000  2
   1051   1054   1060   2164     1  0.0000000  0.2928800  2
   1051   1054   1060   2164     1  0.0000000  0.4184000  4
   1054   1060   2164   2144     1  180.0000771  6.2760000  1
   1054   1060   2164   2144     1  0.0000000  0.0000000  2
   1057   1061   2189   2169     1  180.0000771  6.2760000  1
   1057   1061   2189   2169     1  0.0000000  0.0000000  2
   1060   2164   2144   2141     1  0.0000000  2.2175200  1
   1060   2164   2144   2141     1  0.0000000  0.0000000  2
   1060   2164   2144   2141     1  180.0000771  0.6276000  3
   1060   2164   2144   2141     1  180.0000771  2.0920000  4
   1061   2189   2169   2166     1  0.0000000  2.2175200  1
   1061   2189   2169   2166     1  0.0000000  0.0000000  2
   1061   2189   2169   2166     1  180.0000771  0.6276000  3
   1061   2189   2169   2166     1  180.0000771  2.0920000  4
   1062   1060   2164   2144     1  180.0000771  10.4600000  2
   1063   1061   2189   2169     1  180.0000771  10.4600000  2
   1066   1072   1073   1082     1  180.0000771  2.0083200  2
   1066   1072   1073   1082     1  0.0000000  1.2552000  3
   1066   1072   1076   1079     1  180.0000771  2.0083200  2
   1066   1072   1076   1079     1  0.0000000  1.2552000  3
   1069   1066   1072   1073     1  180.0000771  2.0083200  2
   1069   1066   1072   1073     1  0.0000000  1.2552000  3
   1069   1066   1072   1076     1  180.0000771  2.0083200  2
   1069   1066   1072   1076     1  0.0000000  1.2552000  3
   1072   1066   1069   1089     1  0.0000000  0.6508444  3
   1072   1073   1082   1086     1  0.0000000  0.6508444  3
   1072   1076   1079   1085     1  0.0000000  0.6508444  3
   1073   1072   1076   1079     1  180.0000771  2.0083200  2
   1073   1072   1076   1079     1  0.0000000  1.2552000  3
   1073   1082   1086   1088     1  180.0000771  0.0000000  2
   1073   1082   1086   2239     1  0.0000000  0.2928800  2
   1073   1082   1086   2239     1  0.0000000  0.4184000  4
   1076   1072   1073   1082     1  180.0000771  2.0083200  2
   1076   1072   1073   1082     1  0.0000000  1.2552000  3
   1076   1079   1085   1087     1  180.0000771  0.0000000  2
   1076   1079   1085   2214     1  0.0000000  0.2928800  2
   1076   1079   1085   2214     1  0.0000000  0.4184000  4
   1079   1085   2214   2194     1  180.0000771  6.2760000  1
   1079   1085   2214   2194     1  0.0000000  0.0000000  2
   1082   1086   2239   2219     1  180.0000771  6.2760000  1
   1082   1086   2239   2219     1  0.0000000  0.0000000  2
   1085   2214   2194   2191     1  0.0000000  2.2175200  1
   1085   2214   2194   2191     1  0.0000000  0.0000000  2
   1085   2214   2194   2191     1  180.0000771  0.6276000  3
   1085   2214   2194   2191     1  180.0000771  2.0920000  4
   1086   2239   2219   2216     1  0.0000000  2.2175200  1
   1086   2239   2219   2216     1  0.0000000  0.0000000  2
   1086   2239   2219   2216     1  180.0000771  0.6276000  3
   1086   2239   2219   2216     1  180.0000771  2.0920000  4
   1087   1085   2214   2194     1  180.0000771  10.4600000  2
   1088   1086   2239   2219     1  180.0000771  10.4600000  2
   1091   1097   1098   1107     1  180.0000771  2.0083200  2
   1091   1097   1098   1107     1  0.0000000  1.2552000  3
   1091   1097   1101   1104     1  180.0000771  2.0083200  2
   1091   1097   1101   1104     1  0.0000000  1.2552000  3
   1094   1091   1097   1098     1  180.0000771  2.0083200  2
   1094   1091   1097   1098     1  0.0000000  1.2552000  3
   1094   1091   1097   1101     1  180.0000771  2.0083200  2
   1094   1091   1097   1101     1  0.0000000  1.2552000  3
   1097   1091   1094   1114     1  0.0000000  0.6508444  3
   1097   1098   1107   1111     1  0.0000000  0.6508444  3
   1097   1101   1104   1110     1  0.0000000  0.6508444  3
   1098   1097   1101   1104     1  180.0000771  2.0083200  2
   1098   1097   1101   1104     1  0.0000000  1.2552000  3
   1098   1107   1111   1113     1  180.0000771  0.0000000  2
   1098   1107   1111   2289     1  0.0000000  0.2928800  2
   1098   1107   1111   2289     1  0.0000000  0.4184000  4
   1101   1097   1098   1107     1  180.0000771  2.0083200  2
   1101   1097   1098   1107     1  0.0000000  1.2552000  3
   1101   1104   1110   1112     1  180.0000771  0.0000000  2
   1101   1104   1110   2264     1  0.0000000  0.2928800  2
   1101   1104   1110   2264     1  0.0000000  0.4184000  4
   1104   1110   2264   2244     1  180.0000771  6.2760000  1
   1104   1110   2264   2244     1  0.0000000  0.0000000  2
   1107   1111   2289   2269     1  180.0000771  6.2760000  1
   1107   1111   2289   2269     1  0.0000000  0.0000000  2
   1110   2264   2244   2241     1  0.0000000  2.2175200  1
   1110   2264   2244   2241     1  0.0000000  0.0000000  2
   1110   2264   2244   2241     1  180.0000771  0.6276000  3
   1110   2264   2244   2241     1  180.0000771  2.0920000  4
   1111   2289   2269   2266     1  0.0000000  2.2175200  1
   1111   2289   2269   2266     1  0.0000000  0.0000000  2
   1111   2289   2269   2266     1  180.0000771  0.6276000  3
   1111   2289   2269   2266     1  180.0000771  2.0920000  4
   1112   1110   2264   2244     1  180.0000771  10.4600000  2
   1113   1111   2289   2269     1  180.0000771  10.4600000  2
   1116   1122   1123   1132     1  180.0000771  2.0083200  2
   1116   1122   1123   1132     1  0.0000000  1.2552000  3
   1116   1122   1126   1129     1  180.0000771  2.0083200  2
   1116   1122   1126   1129     1  0.0000000  1.2552000  3
   1119   1116   1122   1123     1  180.0000771  2.0083200  2
   1119   1116   1122   1123     1  0.0000000  1.2552000  3
   1119   1116   1122   1126     1  180.0000771  2.0083200  2
   1119   1116   1122   1126     1  0.0000000  1.2552000  3
   1122   1116   1119   1139     1  0.0000000  0.6508444  3
   1122   1123   1132   1136     1  0.0000000  0.6508444  3
   1122   1126   1129   1135     1  0.0000000  0.6508444  3
   1123   1122   1126   1129     1  180.0000771  2.0083200  2
   1123   1122   1126   1129     1  0.0000000  1.2552000  3
   1123   1132   1136   1138     1  180.0000771  0.0000000  2
   1123   1132   1136   2339     1  0.0000000  0.2928800  2
   1123   1132   1136   2339     1  0.0000000  0.4184000  4
   1126   1122   1123   1132     1  180.0000771  2.0083200  2
   1126   1122   1123   1132     1  0.0000000  1.2552000  3
   1126   1129   1135   1137     1  180.0000771  0.0000000  2
   1126   1129   1135   2314     1  0.0000000  0.2928800  2
   1126   1129   1135   2314     1  0.0000000  0.4184000  4
   1129   1135   2314   2294     1  180.0000771  6.2760000  1
   1129   1135   2314   2294     1  0.0000000  0.0000000  2
   1132   1136   2339   2319     1  180.0000771  6.2760000  1
   1132   1136   2339   2319     1  0.0000000  0.0000000  2
   1135   2314   2294   2291     1  0.0000000  2.2175200  1
   1135   2314   2294   2291     1  0.0000000  0.0000000  2
   1135   2314   2294   2291     1  180.0000771  0.6276000  3
   1135   2314   2294   2291     1  180.0000771  2.0920000  4
   1136   2339   2319   2316     1  0.0000000  2.2175200  1
   1136   2339   2319   2316     1  0.0000000  0.0000000  2
   1136   2339   2319   2316     1  180.0000771  0.6276000  3
   1136   2339   2319   2316     1  180.0000771  2.0920000  4
   1137   1135   2314   2294     1  180.0000771  10.4600000  2
   1138   1136   2339   2319     1  180.0000771  10.4600000  2
   1141   1147   1148   1157     1  180.0000771  2.0083200  2
   1141   1147   1148   1157     1  0.0000000  1.2552000  3
   1141   1147   1151   1154     1  180.0000771  2.0083200  2
   1141   1147   1151   1154     1  0.0000000  1.2552000  3
   1144   1141   1147   1148     1  180.0000771  2.0083200  2
   1144   1141   1147   1148     1  0.0000000  1.2552000  3
   1144   1141   1147   1151     1  180.0000771  2.0083200  2
   1144   1141   1147   1151     1  0.0000000  1.2552000  3
   1147   1141   1144   1164     1  0.0000000  0.6508444  3
   1147   1148   1157   1161     1  0.0000000  0.6508444  3
   1147   1151   1154   1160     1  0.0000000  0.6508444  3
   1148   1147   1151   1154     1  180.0000771  2.0083200  2
   1148   1147   1151   1154     1  0.0000000  1.2552000  3
   1148   1157   1161   1163     1  180.0000771  0.0000000  2
   1148   1157   1161   2389     1  0.0000000  0.2928800  2
   1148   1157   1161   2389     1  0.0000000  0.4184000  4
   1151   1147   1148   1157     1  180.0000771  2.0083200  2
   1151   1147   1148   1157     1  0.0000000  1.2552000  3
   1151   1154   1160   1162     1  180.0000771  0.0000000  2
   1151   1154   1160   2364     1  0.0000000  0.2928800  2
   1151   1154   1160   2364     1  0.0000000  0.4184000  4
   1154   1160   2364   2344     1  180.0000771  6.2760000  1
   1154   1160   2364   2344     1  0.0000000  0.0000000  2
   1157   1161   2389   2369     1  180.0000771  6.2760000  1
   1157   1161   2389   2369     1  0.0000000  0.0000000  2
   1160   2364   2344   2341     1  0.0000000  2.2175200  1
   1160   2364   2344   2341     1  0.0000000  0.0000000  2
   1160   2364   2344   2341     1  180.0000771  0.6276000  3
   1160   2364   2344   2341     1  180.0000771  2.0920000  4
   1161   2389   2369   2366     1  0.0000000  2.2175200  1
   1161   2389   2369   2366     1  0.0000000  0.0000000  2
   1161   2389   2369   2366     1  180.0000771  0.6276000  3
   1161   2389   2369   2366     1  180.0000771  2.0920000  4
   1162   1160   2364   2344     1  180.0000771  10.4600000  2
   1163   1161   2389   2369     1  180.0000771  10.4600000  2
   1166   1172   1173   1182     1  180.0000771  2.0083200  2
   1166   1172   1173   1182     1  0.0000000  1.2552000  3
   1166   1172   1176   1179     1  180.0000771  2.0083200  2
   1166   1172   1176   1179     1  0.0000000  1.2552000  3
   1169   1166   1172   1173     1  180.0000771  2.0083200  2
   1169   1166   1172   1173     1  0.0000000  1.2552000  3
   1169   1166   1172   1176     1  180.0000771  2.0083200  2
   1169   1166   1172   1176     1  0.0000000  1.2552000  3
   1172   1166   1169   1189     1  0.0000000  0.6508444  3
   1172   1173   1182   1186     1  0.0000000  0.6508444  3
   1172   1176   1179   1185     1  0.0000000  0.6508444  3
   1173   1172   1176   1179     1  180.0000771  2.0083200  2
   1173   1172   1176   1179     1  0.0000000  1.2552000  3
   1173   1182   1186   1188     1  180.0000771  0.0000000  2
   1173   1182   1186   2439     1  0.0000000  0.2928800  2
   1173   1182   1186   2439     1  0.0000000  0.4184000  4
   1176   1172   1173   1182     1  180.0000771  2.0083200  2
   1176   1172   1173   1182     1  0.0000000  1.2552000  3
   1176   1179   1185   1187     1  180.0000771  0.0000000  2
   1176   1179   1185   2414     1  0.0000000  0.2928800  2
   1176   1179   1185   2414     1  0.0000000  0.4184000  4
   1179   1185   2414   2394     1  180.0000771  6.2760000  1
   1179   1185   2414   2394     1  0.0000000  0.0000000  2
   1182   1186   2439   2419     1  180.0000771  6.2760000  1
   1182   1186   2439   2419     1  0.0000000  0.0000000  2
   1185   2414   2394   2391     1  0.0000000  2.2175200  1
   1185   2414   2394   2391     1  0.0000000  0.0000000  2
   1185   2414   2394   2391     1  180.0000771  0.6276000  3
   1185   2414   2394   2391     1  180.0000771  2.0920000  4
   1186   2439   2419   2416     1  0.0000000  2.2175200  1
   1186   2439   2419   2416     1  0.0000000  0.0000000  2
   1186   2439   2419   2416     1  180.0000771  0.6276000  3
   1186   2439   2419   2416     1  180.0000771  2.0920000  4
   1187   1185   2414   2394     1  180.0000771  10.4600000  2
   1188   1186   2439   2419     1  180.0000771  10.4600000  2
   1191   1197   1198   1207     1  180.0000771  2.0083200  2
   1191   1197   1198   1207     1  0.0000000  1.2552000  3
   1191   1197   1201   1204     1  180.0000771  2.0083200  2
   1191   1197   1201   1204     1  0.0000000  1.2552000  3
   1194   1191   1197   1198     1  180.0000771  2.0083200  2
   1194   1191   1197   1198     1  0.0000000  1.2552000  3
   1194   1191   1197   1201     1  180.0000771  2.0083200  2
   1194   1191   1197   1201     1  0.0000000  1.2552000  3
   1197   1191   1194   1214     1  0.0000000  0.6508444  3
   1197   1198   1207   1211     1  0.0000000  0.6508444  3
   1197   1201   1204   1210     1  0.0000000  0.6508444  3
   1198   1197   1201   1204     1  180.0000771  2.0083200  2
   1198   1197   1201   1204     1  0.0000000  1.2552000  3
   1198   1207   1211   1213     1  180.0000771  0.0000000  2
   1198   1207   1211   2489     1  0.0000000  0.2928800  2
   1198   1207   1211   2489     1  0.0000000  0.4184000  4
   1201   1197   1198   1207     1  180.0000771  2.0083200  2
   1201   1197   1198   1207     1  0.0000000  1.2552000  3
   1201   1204   1210   1212     1  180.0000771  0.0000000  2
   1201   1204   1210   2464     1  0.0000000  0.2928800  2
   1201   1204   1210   2464     1  0.0000000  0.4184000  4
   1204   1210   2464   2444     1  180.0000771  6.2760000  1
   1204   1210   2464   2444     1  0.0000000  0.0000000  2
   1207   1211   2489   2469     1  180.0000771  6.2760000  1
   1207   1211   2489   2469     1  0.0000000  0.0000000  2
   1210   2464   2444   2441     1  0.0000000  2.2175200  1
   1210   2464   2444   2441     1  0.0000000  0.0000000  2
   1210   2464   2444   2441     1  180.0000771  0.6276000  3
   1210   2464   2444   2441     1  180.0000771  2.0920000  4
   1211   2489   2469   2466     1  0.0000000  2.2175200  1
   1211   2489   2469   2466     1  0.0000000  0.0000000  2
   1211   2489   2469   2466     1  180.0000771  0.6276000  3
   1211   2489   2469   2466     1  180.0000771  2.0920000  4
   1212   1210   2464   2444     1  180.0000771  10.4600000  2
   1213   1211   2489   2469     1  180.0000771  10.4600000  2
   1216   1222   1223   1232     1  180.0000771  2.0083200  2
   1216   1222   1223   1232     1  0.0000000  1.2552000  3
   1216   1222   1226   1229     1  180.0000771  2.0083200  2
   1216   1222   1226   1229     1  0.0000000  1.2552000  3
   1219   1216   1222   1223     1  180.0000771  2.0083200  2
   1219   1216   1222   1223     1  0.0000000  1.2552000  3
   1219   1216   1222   1226     1  180.0000771  2.0083200  2
   1219   1216   1222   1226     1  0.0000000  1.2552000  3
   1222   1216   1219   1239     1  0.0000000  0.6508444  3
   1222   1223   1232   1236     1  0.0000000  0.6508444  3
   1222   1226   1229   1235     1  0.0000000  0.6508444  3
   1223   1222   1226   1229     1  180.0000771  2.0083200  2
   1223   1222   1226   1229     1  0.0000000  1.2552000  3
   1223   1232   1236   1238     1  180.0000771  0.0000000  2
   1223   1232   1236   2539     1  0.0000000  0.2928800  2
   1223   1232   1236   2539     1  0.0000000  0.4184000  4
   1226   1222   1223   1232     1  180.0000771  2.0083200  2
   1226   1222   1223   1232     1  0.0000000  1.2552000  3
   1226   1229   1235   1237     1  180.0000771  0.0000000  2
   1226   1229   1235   2514     1  0.0000000  0.2928800  2
   1226   1229   1235   2514     1  0.0000000  0.4184000  4
   1229   1235   2514   2494     1  180.0000771  6.2760000  1
   1229   1235   2514   2494     1  0.0000000  0.0000000  2
   1232   1236   2539   2519     1  180.0000771  6.2760000  1
   1232   1236   2539   2519     1  0.0000000  0.0000000  2
   1235   2514   2494   2491     1  0.0000000  2.2175200  1
   1235   2514   2494   2491     1  0.0000000  0.0000000  2
   1235   2514   2494   2491     1  180.0000771  0.6276000  3
   1235   2514   2494   2491     1  180.0000771  2.0920000  4
   1236   2539   2519   2516     1  0.0000000  2.2175200  1
   1236   2539   2519   2516     1  0.0000000  0.0000000  2
   1236   2539   2519   2516     1  180.0000771  0.6276000  3
   1236   2539   2519   2516     1  180.0000771  2.0920000  4
   1237   1235   2514   2494     1  180.0000771  10.4600000  2
   1238   1236   2539   2519     1  180.0000771  10.4600000  2
   1241   1247   1248   1257     1  180.0000771  2.0083200  2
   1241   1247   1248   1257     1  0.0000000  1.2552000  3
   1241   1247   1251   1254     1  180.0000771  2.0083200  2
   1241   1247   1251   1254     1  0.0000000  1.2552000  3
   1244   1241   1247   1248     1  180.0000771  2.0083200  2
   1244   1241   1247   1248     1  0.0000000  1.2552000  3
   1244   1241   1247   1251     1  180.0000771  2.0083200  2
   1244   1241   1247   1251     1  0.0000000  1.2552000  3
   1247   1241   1244   1264     1  0.0000000  0.6508444  3
   1247   1248   1257   1261     1  0.0000000  0.6508444  3
   1247   1251   1254   1260     1  0.0000000  0.6508444  3
   1248   1247   1251   1254     1  180.0000771  2.0083200  2
   1248   1247   1251   1254     1  0.0000000  1.2552000  3
   1248   1257   1261   1263     1  180.0000771  0.0000000  2
   1248   1257   1261   2589     1  0.0000000  0.2928800  2
   1248   1257   1261   2589     1  0.0000000  0.4184000  4
   1251   1247   1248   1257     1  180.0000771  2.0083200  2
   1251   1247   1248   1257     1  0.0000000  1.2552000  3
   1251   1254   1260   1262     1  180.0000771  0.0000000  2
   1251   1254   1260   2564     1  0.0000000  0.2928800  2
   1251   1254   1260   2564     1  0.0000000  0.4184000  4
   1254   1260   2564   2544     1  180.0000771  6.2760000  1
   1254   1260   2564   2544     1  0.0000000  0.0000000  2
   1257   1261   2589   2569     1  180.0000771  6.2760000  1
   1257   1261   2589   2569     1  0.0000000  0.0000000  2
   1260   2564   2544   2541     1  0.0000000  2.2175200  1
   1260   2564   2544   2541     1  0.0000000  0.0000000  2
   1260   2564   2544   2541     1  180.0000771  0.6276000  3
   1260   2564   2544   2541     1  180.0000771  2.0920000  4
   1261   2589   2569   2566     1  0.0000000  2.2175200  1
   1261   2589   2569   2566     1  0.0000000  0.0000000  2
   1261   2589   2569   2566     1  180.0000771  0.6276000  3
   1261   2589   2569   2566     1  180.0000771  2.0920000  4
   1262   1260   2564   2544     1  180.0000771  10.4600000  2
   1263   1261   2589   2569     1  180.0000771  10.4600000  2
   1266   1272   1273   1282     1  180.0000771  2.0083200  2
   1266   1272   1273   1282     1  0.0000000  1.2552000  3
   1266   1272   1276   1279     1  180.0000771  2.0083200  2
   1266   1272   1276   1279     1  0.0000000  1.2552000  3
   1269   1266   1272   1273     1  180.0000771  2.0083200  2
   1269   1266   1272   1273     1  0.0000000  1.2552000  3
   1269   1266   1272   1276     1  180.0000771  2.0083200  2
   1269   1266   1272   1276     1  0.0000000  1.2552000  3
   1272   1266   1269   1289     1  0.0000000  0.6508444  3
   1272   1273   1282   1286     1  0.0000000  0.6508444  3
   1272   1276   1279   1285     1  0.0000000  0.6508444  3
   1273   1272   1276   1279     1  180.0000771  2.0083200  2
   1273   1272   1276   1279     1  0.0000000  1.2552000  3
   1273   1282   1286   1288     1  180.0000771  0.0000000  2
   1273   1282   1286   2639     1  0.0000000  0.2928800  2
   1273   1282   1286   2639     1  0.0000000  0.4184000  4
   1276   1272   1273   1282     1  180.0000771  2.0083200  2
   1276   1272   1273   1282     1  0.0000000  1.2552000  3
   1276   1279   1285   1287     1  180.0000771  0.0000000  2
   1276   1279   1285   2614     1  0.0000000  0.2928800  2
   1276   1279   1285   2614     1  0.0000000  0.4184000  4
   1279   1285   2614   2594     1  180.0000771  6.2760000  1
   1279   1285   2614   2594     1  0.0000000  0.0000000  2
   1282   1286   2639   2619     1  180.0000771  6.2760000  1
   1282   1286   2639   2619     1  0.0000000  0.0000000  2
   1285   2614   2594   2591     1  0.0000000  2.2175200  1
   1285   2614   2594   2591     1  0.0000000  0.0000000  2
   1285   2614   2594   2591     1  180.0000771  0.6276000  3
   1285   2614   2594   2591     1  180.0000771  2.0920000  4
   1286   2639   2619   2616     1  0.0000000  2.2175200  1
   1286   2639   2619   2616     1  0.0000000  0.0000000  2
   1286   2639   2619   2616     1  180.0000771  0.6276000  3
   1286   2639   2619   2616     1  180.0000771  2.0920000  4
   1287   1285   2614   2594     1  180.0000771  10.4600000  2
   1288   1286   2639   2619     1  180.0000771  10.4600000  2
   1291   1297   1298   1307     1  180.0000771  2.0083200  2
   1291   1297   1298   1307     1  0.0000000  1.2552000  3
   1291   1297   1301   1304     1  180.0000771  2.0083200  2
   1291   1297   1301   1304     1  0.0000000  1.2552000  3
   1294   1291   1297   1298     1  180.0000771  2.0083200  2
   1294   1291   1297   1298     1  0.0000000  1.2552000  3
   1294   1291   1297   1301     1  180.0000771  2.0083200  2
   1294   1291   1297   1301     1  0.0000000  1.2552000  3
   1297   1291   1294   1314     1  0.0000000  0.6508444  3
   1297   1298   1307   1311     1  0.0000000  0.6508444  3
   1297   1301   1304   1310     1  0.0000000  0.6508444  3
   1298   1297   1301   1304     1  180.0000771  2.0083200  2
   1298   1297   1301   1304     1  0.0000000  1.2552000  3
   1298   1307   1311   1313     1  180.0000771  0.0000000  2
   1298   1307   1311   2689     1  0.0000000  0.2928800  2
   1298   1307   1311   2689     1  0.0000000  0.4184000  4
   1301   1297   1298   1307     1  180.0000771  2.0083200  2
   1301   1297   1298   1307     1  0.0000000  1.2552000  3
   1301   1304   1310   1312     1  180.0000771  0.0000000  2
   1301   1304   1310   2664     1  0.0000000  0.2928800  2
   1301   1304   1310   2664     1  0.0000000  0.4184000  4
   1304   1310   2664   2644     1  180.0000771  6.2760000  1
   1304   1310   2664   2644     1  0.0000000  0.0000000  2
   1307   1311   2689   2669     1  180.0000771  6.2760000  1
   1307   1311   2689   2669     1  0.0000000  0.0000000  2
   1310   2664   2644   2641     1  0.0000000  2.2175200  1
   1310   2664   2644   2641     1  0.0000000  0.0000000  2
   1310   2664   2644   2641     1  180.0000771  0.6276000  3
   1310   2664   2644   2641     1  180.0000771  2.0920000  4
   1311   2689   2669   2666     1  0.0000000  2.2175200  1
   1311   2689   2669   2666     1  0.0000000  0.0000000  2
   1311   2689   2669   2666     1  180.0000771  0.6276000  3
   1311   2689   2669   2666     1  180.0000771  2.0920000  4
   1312   1310   2664   2644     1  180.0000771  10.4600000  2
   1313   1311   2689   2669     1  180.0000771  10.4600000  2
   1316   1322   1323   1332     1  180.0000771  2.0083200  2
   1316   1322   1323   1332     1  0.0000000  1.2552000  3
   1316   1322   1326   1329     1  180.0000771  2.0083200  2
   1316   1322   1326   1329     1  0.0000000  1.2552000  3
   1319   1316   1322   1323     1  180.0000771  2.0083200  2
   1319   1316   1322   1323     1  0.0000000  1.2552000  3
   1319   1316   1322   1326     1  180.0000771  2.0083200  2
   1319   1316   1322   1326     1  0.0000000  1.2552000  3
   1322   1316   1319   1339     1  0.0000000  0.6508444  3
   1322   1323   1332   1336     1  0.0000000  0.6508444  3
   1322   1326   1329   1335     1  0.0000000  0.6508444  3
   1323   1322   1326   1329     1  180.0000771  2.0083200  2
   1323   1322   1326   1329     1  0.0000000  1.2552000  3
   1323   1332   1336   1338     1  180.0000771  0.0000000  2
   1323   1332   1336   2739     1  0.0000000  0.2928800  2
   1323   1332   1336   2739     1  0.0000000  0.4184000  4
   1326   1322   1323   1332     1  180.0000771  2.0083200  2
   1326   1322   1323   1332     1  0.0000000  1.2552000  3
   1326   1329   1335   1337     1  180.0000771  0.0000000  2
   1326   1329   1335   2714     1  0.0000000  0.2928800  2
   1326   1329   1335   2714     1  0.0000000  0.4184000  4
   1329   1335   2714   2694     1  180.0000771  6.2760000  1
   1329   1335   2714   2694     1  0.0000000  0.0000000  2
   1332   1336   2739   2719     1  180.0000771  6.2760000  1
   1332   1336   2739   2719     1  0.0000000  0.0000000  2
   1335   2714   2694   2691     1  0.0000000  2.2175200  1
   1335   2714   2694   2691     1  0.0000000  0.0000000  2
   1335   2714   2694   2691     1  180.0000771  0.6276000  3
   1335   2714   2694   2691     1  180.0000771  2.0920000  4
   1336   2739   2719   2716     1  0.0000000  2.2175200  1
   1336   2739   2719   2716     1  0.0000000  0.0000000  2
   1336   2739   2719   2716     1  180.0000771  0.6276000  3
   1336   2739   2719   2716     1  180.0000771  2.0920000  4
   1337   1335   2714   2694     1  180.0000771  10.4600000  2
   1338   1336   2739   2719     1  180.0000771  10.4600000  2
   1341   1347   1348   1357     1  180.0000771  2.0083200  2
   1341   1347   1348   1357     1  0.0000000  1.2552000  3
   1341   1347   1351   1354     1  180.0000771  2.0083200  2
   1341   1347   1351   1354     1  0.0000000  1.2552000  3
   1344   1341   1347   1348     1  180.0000771  2.0083200  2
   1344   1341   1347   1348     1  0.0000000  1.2552000  3
   1344   1341   1347   1351     1  180.0000771  2.0083200  2
   1344   1341   1347   1351     1  0.0000000  1.2552000  3
   1347   1341   1344   1364     1  0.0000000  0.6508444  3
   1347   1348   1357   1361     1  0.0000000  0.6508444  3
   1347   1351   1354   1360     1  0.0000000  0.6508444  3
   1348   1347   1351   1354     1  180.0000771  2.0083200  2
   1348   1347   1351   1354     1  0.0000000  1.2552000  3
   1348   1357   1361   1363     1  180.0000771  0.0000000  2
   1348   1357   1361   2789     1  0.0000000  0.2928800  2
   1348   1357   1361   2789     1  0.0000000  0.4184000  4
   1351   1347   1348   1357     1  180.0000771  2.0083200  2
   1351   1347   1348   1357     1  0.0000000  1.2552000  3
   1351   1354   1360   1362     1  180.0000771  0.0000000  2
   1351   1354   1360   2764     1  0.0000000  0.2928800  2
   1351   1354   1360   2764     1  0.0000000  0.4184000  4
   1354   1360   2764   2744     1  180.0000771  6.2760000  1
   1354   1360   2764   2744     1  0.0000000  0.0000000  2
   1357   1361   2789   2769     1  180.0000771  6.2760000  1
   1357   1361   2789   2769     1  0.0000000  0.0000000  2
   1360   2764   2744   2741     1  0.0000000  2.2175200  1
   1360   2764   2744   2741     1  0.0000000  0.0000000  2
   1360   2764   2744   2741     1  180.0000771  0.6276000  3
   1360   2764   2744   2741     1  180.0000771  2.0920000  4
   1361   2789   2769   2766     1  0.0000000  2.2175200  1
   1361   2789   2769   2766     1  0.0000000  0.0000000  2
   1361   2789   2769   2766     1  180.0000771  0.6276000  3
   1361   2789   2769   2766     1  180.0000771  2.0920000  4
   1362   1360   2764   2744     1  180.0000771  10.4600000  2
   1363   1361   2789   2769     1  180.0000771  10.4600000  2
   1366   1372   1373   1382     1  180.0000771  2.0083200  2
   1366   1372   1373   1382     1  0.0000000  1.2552000  3
   1366   1372   1376   1379     1  180.0000771  2.0083200  2
   1366   1372   1376   1379     1  0.0000000  1.2552000  3
   1369   1366   1372   1373     1  180.0000771  2.0083200  2
   1369   1366   1372   1373     1  0.0000000  1.2552000  3
   1369   1366   1372   1376     1  180.0000771  2.0083200  2
   1369   1366   1372   1376     1  0.0000000  1.2552000  3
   1372   1366   1369   1389     1  0.0000000  0.6508444  3
   1372   1373   1382   1386     1  0.0000000  0.6508444  3
   1372   1376   1379   1385     1  0.0000000  0.6508444  3
   1373   1372   1376   1379     1  180.0000771  2.0083200  2
   1373   1372   1376   1379     1  0.0000000  1.2552000  3
   1373   1382   1386   1388     1  180.0000771  0.0000000  2
   1373   1382   1386   2839     1  0.0000000  0.2928800  2
   1373   1382   1386   2839     1  0.0000000  0.4184000  4
   1376   1372   1373   1382     1  180.0000771  2.0083200  2
   1376   1372   1373   1382     1  0.0000000  1.2552000  3
   1376   1379   1385   1387     1  180.0000771  0.0000000  2
   1376   1379   1385   2814     1  0.0000000  0.2928800  2
   1376   1379   1385   2814     1  0.0000000  0.4184000  4
   1379   1385   2814   2794     1  180.0000771  6.2760000  1
   1379   1385   2814   2794     1  0.0000000  0.0000000  2
   1382   1386   2839   2819     1  180.0000771  6.2760000  1
   1382   1386   2839   2819     1  0.0000000  0.0000000  2
   1385   2814   2794   2791     1  0.0000000  2.2175200  1
   1385   2814   2794   2791     1  0.0000000  0.0000000  2
   1385   2814   2794   2791     1  180.0000771  0.6276000  3
   1385   2814   2794   2791     1  180.0000771  2.0920000  4
   1386   2839   2819   2816     1  0.0000000  2.2175200  1
   1386   2839   2819   2816     1  0.0000000  0.0000000  2
   1386   2839   2819   2816     1  180.0000771  0.6276000  3
   1386   2839   2819   2816     1  180.0000771  2.0920000  4
   1387   1385   2814   2794     1  180.0000771  10.4600000  2
   1388   1386   2839   2819     1  180.0000771  10.4600000  2
   1391   1397   1398   1407     1  180.0000771  2.0083200  2
   1391   1397   1398   1407     1  0.0000000  1.2552000  3
   1391   1397   1401   1404     1  180.0000771  2.0083200  2
   1391   1397   1401   1404     1  0.0000000  1.2552000  3
   1394   1391   1397   1398     1  180.0000771  2.0083200  2
   1394   1391   1397   1398     1  0.0000000  1.2552000  3
   1394   1391   1397   1401     1  180.0000771  2.0083200  2
   1394   1391   1397   1401     1  0.0000000  1.2552000  3
   1397   1391   1394   1414     1  0.0000000  0.6508444  3
   1397   1398   1407   1411     1  0.0000000  0.6508444  3
   1397   1401   1404   1410     1  0.0000000  0.6508444  3
   1398   1397   1401   1404     1  180.0000771  2.0083200  2
   1398   1397   1401   1404     1  0.0000000  1.2552000  3
   1398   1407   1411   1413     1  180.0000771  0.0000000  2
   1398   1407   1411   2889     1  0.0000000  0.2928800  2
   1398   1407   1411   2889     1  0.0000000  0.4184000  4
   1401   1397   1398   1407     1  180.0000771  2.0083200  2
   1401   1397   1398   1407     1  0.0000000  1.2552000  3
   1401   1404   1410   1412     1  180.0000771  0.0000000  2
   1401   1404   1410   2864     1  0.0000000  0.2928800  2
   1401   1404   1410   2864     1  0.0000000  0.4184000  4
   1404   1410   2864   2844     1  180.0000771  6.2760000  1
   1404   1410   2864   2844     1  0.0000000  0.0000000  2
   1407   1411   2889   2869     1  180.0000771  6.2760000  1
   1407   1411   2889   2869     1  0.0000000  0.0000000  2
   1410   2864   2844   2841     1  0.0000000  2.2175200  1
   1410   2864   2844   2841     1  0.0000000  0.0000000  2
   1410   2864   2844   2841     1  180.0000771  0.6276000  3
   1410   2864   2844   2841     1  180.0000771  2.0920000  4
   1411   2889   2869   2866     1  0.0000000  2.2175200  1
   1411   2889   2869   2866     1  0.0000000  0.0000000  2
   1411   2889   2869   2866     1  180.0000771  0.6276000  3
   1411   2889   2869   2866     1  180.0000771  2.0920000  4
   1412   1410   2864   2844     1  180.0000771  10.4600000  2
   1413   1411   2889   2869     1  180.0000771  10.4600000  2
   1416   1422   1423   1432     1  180.0000771  2.0083200  2
   1416   1422   1423   1432     1  0.0000000  1.2552000  3
   1416   1422   1426   1429     1  180.0000771  2.0083200  2
   1416   1422   1426   1429     1  0.0000000  1.2552000  3
   1419   1416   1422   1423     1  180.0000771  2.0083200  2
   1419   1416   1422   1423     1  0.0000000  1.2552000  3
   1419   1416   1422   1426     1  180.0000771  2.0083200  2
   1419   1416   1422   1426     1  0.0000000  1.2552000  3
   1422   1416   1419   1439     1  0.0000000  0.6508444  3
   1422   1423   1432   1436     1  0.0000000  0.6508444  3
   1422   1426   1429   1435     1  0.0000000  0.6508444  3
   1423   1422   1426   1429     1  180.0000771  2.0083200  2
   1423   1422   1426   1429     1  0.0000000  1.2552000  3
   1423   1432   1436   1438     1  180.0000771  0.0000000  2
   1423   1432   1436   2939     1  0.0000000  0.2928800  2
   1423   1432   1436   2939     1  0.0000000  0.4184000  4
   1426   1422   1423   1432     1  180.0000771  2.0083200  2
   1426   1422   1423   1432     1  0.0000000  1.2552000  3
   1426   1429   1435   1437     1  180.0000771  0.0000000  2
   1426   1429   1435   2914     1  0.0000000  0.2928800  2
   1426   1429   1435   2914     1  0.0000000  0.4184000  4
   1429   1435   2914   2894     1  180.0000771  6.2760000  1
   1429   1435   2914   2894     1  0.0000000  0.0000000  2
   1432   1436   2939   2919     1  180.0000771  6.2760000  1
   1432   1436   2939   2919     1  0.0000000  0.0000000  2
   1435   2914   2894   2891     1  0.0000000  2.2175200  1
   1435   2914   2894   2891     1  0.0000000  0.0000000  2
   1435   2914   2894   2891     1  180.0000771  0.6276000  3
   1435   2914   2894   2891     1  180.0000771  2.0920000  4
   1436   2939   2919   2916     1  0.0000000  2.2175200  1
   1436   2939   2919   2916     1  0.0000000  0.0000000  2
   1436   2939   2919   2916     1  180.0000771  0.6276000  3
   1436   2939   2919   2916     1  180.0000771  2.0920000  4
   1437   1435   2914   2894     1  180.0000771  10.4600000  2
   1438   1436   2939   2919     1  180.0000771  10.4600000  2
   1441   1447   1448   1457     1  180.0000771  2.0083200  2
   1441   1447   1448   1457     1  0.0000000  1.2552000  3
   1441   1447   1451   1454     1  180.0000771  2.0083200  2
   1441   1447   1451   1454     1  0.0000000  1.2552000  3
   1444   1441   1447   1448     1  180.0000771  2.0083200  2
   1444   1441   1447   1448     1  0.0000000  1.2552000  3
   1444   1441   1447   1451     1  180.0000771  2.0083200  2
   1444   1441   1447   1451     1  0.0000000  1.2552000  3
   1447   1441   1444   1464     1  0.0000000  0.6508444  3
   1447   1448   1457   1461     1  0.0000000  0.6508444  3
   1447   1451   1454   1460     1  0.0000000  0.6508444  3
   1448   1447   1451   1454     1  180.0000771  2.0083200  2
   1448   1447   1451   1454     1  0.0000000  1.2552000  3
   1448   1457   1461   1463     1  180.0000771  0.0000000  2
   1448   1457   1461   2989     1  0.0000000  0.2928800  2
   1448   1457   1461   2989     1  0.0000000  0.4184000  4
   1451   1447   1448   1457     1  180.0000771  2.0083200  2
   1451   1447   1448   1457     1  0.0000000  1.2552000  3
   1451   1454   1460   1462     1  180.0000771  0.0000000  2
   1451   1454   1460   2964     1  0.0000000  0.2928800  2
   1451   1454   1460   2964     1  0.0000000  0.4184000  4
   1454   1460   2964   2944     1  180.0000771  6.2760000  1
   1454   1460   2964   2944     1  0.0000000  0.0000000  2
   1457   1461   2989   2969     1  180.0000771  6.2760000  1
   1457   1461   2989   2969     1  0.0000000  0.0000000  2
   1460   2964   2944   2941     1  0.0000000  2.2175200  1
   1460   2964   2944   2941     1  0.0000000  0.0000000  2
   1460   2964   2944   2941     1  180.0000771  0.6276000  3
   1460   2964   2944   2941     1  180.0000771  2.0920000  4
   1461   2989   2969   2966     1  0.0000000  2.2175200  1
   1461   2989   2969   2966     1  0.0000000  0.0000000  2
   1461   2989   2969   2966     1  180.0000771  0.6276000  3
   1461   2989   2969   2966     1  180.0000771  2.0920000  4
   1462   1460   2964   2944     1  180.0000771  10.4600000  2
   1463   1461   2989   2969     1  180.0000771  10.4600000  2
   1466   1472   1473   1482     1  180.0000771  2.0083200  2
   1466   1472   1473   1482     1  0.0000000  1.2552000  3
   1466   1472   1476   1479     1  180.0000771  2.0083200  2
   1466   1472   1476   1479     1  0.0000000  1.2552000  3
   1469   1466   1472   1473     1  180.0000771  2.0083200  2
   1469   1466   1472   1473     1  0.0000000  1.2552000  3
   1469   1466   1472   1476     1  180.0000771  2.0083200  2
   1469   1466   1472   1476     1  0.0000000  1.2552000  3
   1472   1466   1469   1489     1  0.0000000  0.6508444  3
   1472   1473   1482   1486     1  0.0000000  0.6508444  3
   1472   1476   1479   1485     1  0.0000000  0.6508444  3
   1473   1472   1476   1479     1  180.0000771  2.0083200  2
   1473   1472   1476   1479     1  0.0000000  1.2552000  3
   1473   1482   1486   1488     1  180.0000771  0.0000000  2
   1473   1482   1486   3039     1  0.0000000  0.2928800  2
   1473   1482   1486   3039     1  0.0000000  0.4184000  4
   1476   1472   1473   1482     1  180.0000771  2.0083200  2
   1476   1472   1473   1482     1  0.0000000  1.2552000  3
   1476   1479   1485   1487     1  180.0000771  0.0000000  2
   1476   1479   1485   3014     1  0.0000000  0.2928800  2
   1476   1479   1485   3014     1  0.0000000  0.4184000  4
   1479   1485   3014   2994     1  180.0000771  6.2760000  1
   1479   1485   3014   2994     1  0.0000000  0.0000000  2
   1482   1486   3039   3019     1  180.0000771  6.2760000  1
   1482   1486   3039   3019     1  0.0000000  0.0000000  2
   1485   3014   2994   2991     1  0.0000000  2.2175200  1
   1485   3014   2994   2991     1  0.0000000  0.0000000  2
   1485   3014   2994   2991     1  180.0000771  0.6276000  3
   1485   3014   2994   2991     1  180.0000771  2.0920000  4
   1486   3039   3019   3016     1  0.0000000  2.2175200  1
   1486   3039   3019   3016     1  0.0000000  0.0000000  2
   1486   3039   3019   3016     1  180.0000771  0.6276000  3
   1486   3039   3019   3016     1  180.0000771  2.0920000  4
   1487   1485   3014   2994     1  180.0000771  10.4600000  2
   1488   1486   3039   3019     1  180.0000771  10.4600000  2
   1491   1497   1498   1507     1  180.0000771  2.0083200  2
   1491   1497   1498   1507     1  0.0000000  1.2552000  3
   1491   1497   1501   1504     1  180.0000771  2.0083200  2
   1491   1497   1501   1504     1  0.0000000  1.2552000  3
   1494   1491   1497   1498     1  180.0000771  2.0083200  2
   1494   1491   1497   1498     1  0.0000000  1.2552000  3
   1494   1491   1497   1501     1  180.0000771  2.0083200  2
   1494   1491   1497   1501     1  0.0000000  1.2552000  3
   1497   1491   1494   1514     1  0.0000000  0.6508444  3
   1497   1498   1507   1511     1  0.0000000  0.6508444  3
   1497   1501   1504   1510     1  0.0000000  0.6508444  3
   1498   1497   1501   1504     1  180.0000771  2.0083200  2
   1498   1497   1501   1504     1  0.0000000  1.2552000  3
   1498   1507   1511   1513     1  180.0000771  0.0000000  2
   1498   1507   1511   3089     1  0.0000000  0.2928800  2
   1498   1507   1511   3089     1  0.0000000  0.4184000  4
   1501   1497   1498   1507     1  180.0000771  2.0083200  2
   1501   1497   1498   1507     1  0.0000000  1.2552000  3
   1501   1504   1510   1512     1  180.0000771  0.0000000  2
   1501   1504   1510   3064     1  0.0000000  0.2928800  2
   1501   1504   1510   3064     1  0.0000000  0.4184000  4
   1504   1510   3064   3044     1  180.0000771  6.2760000  1
   1504   1510   3064   3044     1  0.0000000  0.0000000  2
   1507   1511   3089   3069     1  180.0000771  6.2760000  1
   1507   1511   3089   3069     1  0.0000000  0.0000000  2
   1510   3064   3044   3041     1  0.0000000  2.2175200  1
   1510   3064   3044   3041     1  0.0000000  0.0000000  2
   1510   3064   3044   3041     1  180.0000771  0.6276000  3
   1510   3064   3044   3041     1  180.0000771  2.0920000  4
   1511   3089   3069   3066     1  0.0000000  2.2175200  1
   1511   3089   3069   3066     1  0.0000000  0.0000000  2
   1511   3089   3069   3066     1  180.0000771  0.6276000  3
   1511   3089   3069   3066     1  180.0000771  2.0920000  4
   1512   1510   3064   3044     1  180.0000771  10.4600000  2
   1513   1511   3089   3069     1  180.0000771  10.4600000  2
   1516   1522   1523   1532     1  180.0000771  2.0083200  2
   1516   1522   1523   1532     1  0.0000000  1.2552000  3
   1516   1522   1526   1529     1  180.0000771  2.0083200  2
   1516   1522   1526   1529     1  0.0000000  1.2552000  3
   1519   1516   1522   1523     1  180.0000771  2.0083200  2
   1519   1516   1522   1523     1  0.0000000  1.2552000  3
   1519   1516   1522   1526     1  180.0000771  2.0083200  2
   1519   1516   1522   1526     1  0.0000000  1.2552000  3
   1522   1516   1519   1539     1  0.0000000  0.6508444  3
   1522   1523   1532   1536     1  0.0000000  0.6508444  3
   1522   1526   1529   1535     1  0.0000000  0.6508444  3
   1523   1522   1526   1529     1  180.0000771  2.0083200  2
   1523   1522   1526   1529     1  0.0000000  1.2552000  3
   1523   1532   1536   1538     1  180.0000771  0.0000000  2
   1523   1532   1536   3139     1  0.0000000  0.2928800  2
   1523   1532   1536   3139     1  0.0000000  0.4184000  4
   1526   1522   1523   1532     1  180.0000771  2.0083200  2
   1526   1522   1523   1532     1  0.0000000  1.2552000  3
   1526   1529   1535   1537     1  180.0000771  0.0000000  2
   1526   1529   1535   3114     1  0.0000000  0.2928800  2
   1526   1529   1535   3114     1  0.0000000  0.4184000  4
   1529   1535   3114   3094     1  180.0000771  6.2760000  1
   1529   1535   3114   3094     1  0.0000000  0.0000000  2
   1532   1536   3139   3119     1  180.0000771  6.2760000  1
   1532   1536   3139   3119     1  0.0000000  0.0000000  2
   1535   3114   3094   3091     1  0.0000000  2.2175200  1
   1535   3114   3094   3091     1  0.0000000  0.0000000  2
   1535   3114   3094   3091     1  180.0000771  0.6276000  3
   1535   3114   3094   3091     1  180.0000771  2.0920000  4
   1536   3139   3119   3116     1  0.0000000  2.2175200  1
   1536   3139   3119   3116     1  0.0000000  0.0000000  2
   1536   3139   3119   3116     1  180.0000771  0.6276000  3
   1536   3139   3119   3116     1  180.0000771  2.0920000  4
   1537   1535   3114   3094     1  180.0000771  10.4600000  2
   1538   1536   3139   3119     1  180.0000771  10.4600000  2
   1541   1547   1548   1557     1  180.0000771  2.0083200  2
   1541   1547   1548   1557     1  0.0000000  1.2552000  3
   1541   1547   1551   1554     1  180.0000771  2.0083200  2
   1541   1547   1551   1554     1  0.0000000  1.2552000  3
   1544   1541   1547   1548     1  180.0000771  2.0083200  2
   1544   1541   1547   1548     1  0.0000000  1.2552000  3
   1544   1541   1547   1551     1  180.0000771  2.0083200  2
   1544   1541   1547   1551     1  0.0000000  1.2552000  3
   1547   1541   1544   1564     1  0.0000000  0.6508444  3
   1547   1548   1557   1561     1  0.0000000  0.6508444  3
   1547   1551   1554   1560     1  0.0000000  0.6508444  3
   1548   1547   1551   1554     1  180.0000771  2.0083200  2
   1548   1547   1551   1554     1  0.0000000  1.2552000  3
   1548   1557   1561   1563     1  180.0000771  0.0000000  2
   1548   1557   1561   3214     1  0.0000000  0.2928800  2
   1548   1557   1561   3214     1  0.0000000  0.4184000  4
   1551   1547   1548   1557     1  180.0000771  2.0083200  2
   1551   1547   1548   1557     1  0.0000000  1.2552000  3
   1551   1554   1560   3141     1  0.0000000  0.2928800  2
   1551   1554   1560   3141     1  0.0000000  0.4184000  4
   1551   1554   1560   1562     1  180.0000771  0.0000000  2
   1554   1560   3141   3143     1  180.0000771  6.2760000  1
   1554   1560   3141   3143     1  0.0000000  0.0000000  2
   1557   1561   3214   3216     1  180.0000771  6.2760000  1
   1557   1561   3214   3216     1  0.0000000  0.0000000  2
   1560   3141   3143   3145     1  0.0000000  2.2175200  1
   1560   3141   3143   3145     1  0.0000000  0.0000000  2
   1560   3141   3143   3145     1  180.0000771  0.6276000  3
   1560   3141   3143   3145     1  180.0000771  2.0920000  4
   1561   3214   3216   3218     1  0.0000000  2.2175200  1
   1561   3214   3216   3218     1  0.0000000  0.0000000  2
   1561   3214   3216   3218     1  180.0000771  0.6276000  3
   1561   3214   3216   3218     1  180.0000771  2.0920000  4
   1562   1560   3141   3143     1  180.0000771  10.4600000  2
   1563   1561   3214   3216     1  180.0000771  10.4600000  2
   1566   1572   1573   1582     1  180.0000771  2.0083200  2
   1566   1572   1573   1582     1  0.0000000  1.2552000  3
   1566   1572   1576   1579     1  180.0000771  2.0083200  2
   1566   1572   1576   1579     1  0.0000000  1.2552000  3
   1569   1566   1572   1573     1  180.0000771  2.0083200  2
   1569   1566   1572   1573     1  0.0000000  1.2552000  3
   1569   1566   1572   1576     1  180.0000771  2.0083200  2
   1569   1566   1572   1576     1  0.0000000  1.2552000  3
   1572   1566   1569   1589     1  0.0000000  0.6508444  3
   1572   1573   1582   1586     1  0.0000000  0.6508444  3
   1572   1576   1579   1585     1  0.0000000  0.6508444  3
   1573   1572   1576   1579     1  180.0000771  2.0083200  2
   1573   1572   1576   1579     1  0.0000000  1.2552000  3
   1573   1582   1586   1588     1  180.0000771  0.0000000  2
   1573   1582   1586   3360     1  0.0000000  0.2928800  2
   1573   1582   1586   3360     1  0.0000000  0.4184000  4
   1576   1572   1573   1582     1  180.0000771  2.0083200  2
   1576   1572   1573   1582     1  0.0000000  1.2552000  3
   1576   1579   1585   3287     1  0.0000000  0.2928800  2
   1576   1579   1585   3287     1  0.0000000  0.4184000  4
   1576   1579   1585   1587     1  180.0000771  0.0000000  2
   1579   1585   3287   3289     1  180.0000771  6.2760000  1
   1579   1585   3287   3289     1  0.0000000  0.0000000  2
   1582   1586   3360   3362     1  180.0000771  6.2760000  1
   1582   1586   3360   3362     1  0.0000000  0.0000000  2
   1585   3287   3289   3291     1  0.0000000  2.2175200  1
   1585   3287   3289   3291     1  0.0000000  0.0000000  2
   1585   3287   3289   3291     1  180.0000771  0.6276000  3
   1585   3287   3289   3291     1  180.0000771  2.0920000  4
   1586   3360   3362   3364     1  0.0000000  2.2175200  1
   1586   3360   3362   3364     1  0.0000000  0.0000000  2
   1586   3360   3362   3364     1  180.0000771  0.6276000  3
   1586   3360   3362   3364     1  180.0000771  2.0920000  4
   1587   1585   3287   3289     1  180.0000771  10.4600000  2
   1588   1586   3360   3362     1  180.0000771  10.4600000  2
   1591   1597   1598   1607     1  180.0000771  2.0083200  2
   1591   1597   1598   1607     1  0.0000000  1.2552000  3
   1591   1597   1601   1604     1  180.0000771  2.0083200  2
   1591   1597   1601   1604     1  0.0000000  1.2552000  3
   1594   1591   1597   1598     1  180.0000771  2.0083200  2
   1594   1591   1597   1598     1  0.0000000  1.2552000  3
   1594   1591   1597   1601     1  180.0000771  2.0083200  2
   1594   1591   1597   1601     1  0.0000000  1.2552000  3
   1597   1591   1594   1614     1  0.0000000  0.6508444  3
   1597   1598   1607   1611     1  0.0000000  0.6508444  3
   1597   1601   1604   1610     1  0.0000000  0.6508444  3
   1598   1597   1601   1604     1  180.0000771  2.0083200  2
   1598   1597   1601   1604     1  0.0000000  1.2552000  3
   1598   1607   1611   1613     1  180.0000771  0.0000000  2
   1598   1607   1611   3506     1  0.0000000  0.2928800  2
   1598   1607   1611   3506     1  0.0000000  0.4184000  4
   1601   1597   1598   1607     1  180.0000771  2.0083200  2
   1601   1597   1598   1607     1  0.0000000  1.2552000  3
   1601   1604   1610   3433     1  0.0000000  0.2928800  2
   1601   1604   1610   3433     1  0.0000000  0.4184000  4
   1601   1604   1610   1612     1  180.0000771  0.0000000  2
   1604   1610   3433   3435     1  180.0000771  6.2760000  1
   1604   1610   3433   3435     1  0.0000000  0.0000000  2
   1607   1611   3506   3508     1  180.0000771  6.2760000  1
   1607   1611   3506   3508     1  0.0000000  0.0000000  2
   1610   3433   3435   3437     1  0.0000000  2.2175200  1
   1610   3433   3435   3437     1  0.0000000  0.0000000  2
   1610   3433   3435   3437     1  180.0000771  0.6276000  3
   1610   3433   3435   3437     1  180.0000771  2.0920000  4
   1611   3506   3508   3510     1  0.0000000  2.2175200  1
   1611   3506   3508   3510     1  0.0000000  0.0000000  2
   1611   3506   3508   3510     1  180.0000771  0.6276000  3
   1611   3506   3508   3510     1  180.0000771  2.0920000  4
   1612   1610   3433   3435     1  180.0000771  10.4600000  2
   1613   1611   3506   3508     1  180.0000771  10.4600000  2
   1616   1622   1623   1632     1  180.0000771  2.0083200  2
   1616   1622   1623   1632     1  0.0000000  1.2552000  3
   1616   1622   1626   1629     1  180.0000771  2.0083200  2
   1616   1622   1626   1629     1  0.0000000  1.2552000  3
   1619   1616   1622   1623     1  180.0000771  2.0083200  2
   1619   1616   1622   1623     1  0.0000000  1.2552000  3
   1619   1616   1622   1626     1  180.0000771  2.0083200  2
   1619   1616   1622   1626     1  0.0000000  1.2552000  3
   1622   1616   1619   1639     1  0.0000000  0.6508444  3
   1622   1623   1632   1636     1  0.0000000  0.6508444  3
   1622   1626   1629   1635     1  0.0000000  0.6508444  3
   1623   1622   1626   1629     1  180.0000771  2.0083200  2
   1623   1622   1626   1629     1  0.0000000  1.2552000  3
   1623   1632   1636   1638     1  180.0000771  0.0000000  2
   1623   1632   1636   3652     1  0.0000000  0.2928800  2
   1623   1632   1636   3652     1  0.0000000  0.4184000  4
   1626   1622   1623   1632     1  180.0000771  2.0083200  2
   1626   1622   1623   1632     1  0.0000000  1.2552000  3
   1626   1629   1635   3579     1  0.0000000  0.2928800  2
   1626   1629   1635   3579     1  0.0000000  0.4184000  4
   1626   1629   1635   1637     1  180.0000771  0.0000000  2
   1629   1635   3579   3581     1  180.0000771  6.2760000  1
   1629   1635   3579   3581     1  0.0000000  0.0000000  2
   1632   1636   3652   3654     1  180.0000771  6.2760000  1
   1632   1636   3652   3654     1  0.0000000  0.0000000  2
   1635   3579   3581   3583     1  0.0000000  2.2175200  1
   1635   3579   3581   3583     1  0.0000000  0.0000000  2
   1635   3579   3581   3583     1  180.0000771  0.6276000  3
   1635   3579   3581   3583     1  180.0000771  2.0920000  4
   1636   3652   3654   3656     1  0.0000000  2.2175200  1
   1636   3652   3654   3656     1  0.0000000  0.0000000  2
   1636   3652   3654   3656     1  180.0000771  0.6276000  3
   1636   3652   3654   3656     1  180.0000771  2.0920000  4
   1637   1635   3579   3581     1  180.0000771  10.4600000  2
   1638   1636   3652   3654     1  180.0000771  10.4600000  2
   1641   1647   1648   1657     1  180.0000771  2.0083200  2
   1641   1647   1648   1657     1  0.0000000  1.2552000  3
   1641   1647   1651   1654     1  180.0000771  2.0083200  2
   1641   1647   1651   1654     1  0.0000000  1.2552000  3
   1644   1641   1647   1648     1  180.0000771  2.0083200  2
   1644   1641   1647   1648     1  0.0000000  1.2552000  3
   1644   1641   1647   1651     1  180.0000771  2.0083200  2
   1644   1641   1647   1651     1  0.0000000  1.2552000  3
   1647   1641   1644   1664     1  0.0000000  0.6508444  3
   1647   1648   1657   1661     1  0.0000000  0.6508444  3
   1647   1651   1654   1660     1  0.0000000  0.6508444  3
   1648   1647   1651   1654     1  180.0000771  2.0083200  2
   1648   1647   1651   1654     1  0.0000000  1.2552000  3
   1648   1657   1661   1663     1  180.0000771  0.0000000  2
   1648   1657   1661   3798     1  0.0000000  0.2928800  2
   1648   1657   1661   3798     1  0.0000000  0.4184000  4
   1651   1647   1648   1657     1  180.0000771  2.0083200  2
   1651   1647   1648   1657     1  0.0000000  1.2552000  3
   1651   1654   1660   3725     1  0.0000000  0.2928800  2
   1651   1654   1660   3725     1  0.0000000  0.4184000  4
   1651   1654   1660   1662     1  180.0000771  0.0000000  2
   1654   1660   3725   3727     1  180.0000771  6.2760000  1
   1654   1660   3725   3727     1  0.0000000  0.0000000  2
   1657   1661   3798   3800     1  180.0000771  6.2760000  1
   1657   1661   3798   3800     1  0.0000000  0.0000000  2
   1660   3725   3727   3729     1  0.0000000  2.2175200  1
   1660   3725   3727   3729     1  0.0000000  0.0000000  2
   1660   3725   3727   3729     1  180.0000771  0.6276000  3
   1660   3725   3727   3729     1  180.0000771  2.0920000  4
   1661   3798   3800   3802     1  0.0000000  2.2175200  1
   1661   3798   3800   3802     1  0.0000000  0.0000000  2
   1661   3798   3800   3802     1  180.0000771  0.6276000  3
   1661   3798   3800   3802     1  180.0000771  2.0920000  4
   1662   1660   3725   3727     1  180.0000771  10.4600000  2
   1663   1661   3798   3800     1  180.0000771  10.4600000  2
   1666   1672   1673   1682     1  180.0000771  2.0083200  2
   1666   1672   1673   1682     1  0.0000000  1.2552000  3
   1666   1672   1676   1679     1  180.0000771  2.0083200  2
   1666   1672   1676   1679     1  0.0000000  1.2552000  3
   1669   1666   1672   1673     1  180.0000771  2.0083200  2
   1669   1666   1672   1673     1  0.0000000  1.2552000  3
   1669   1666   1672   1676     1  180.0000771  2.0083200  2
   1669   1666   1672   1676     1  0.0000000  1.2552000  3
   1672   1666   1669   1689     1  0.0000000  0.6508444  3
   1672   1673   1682   1686     1  0.0000000  0.6508444  3
   1672   1676   1679   1685     1  0.0000000  0.6508444  3
   1673   1672   1676   1679     1  180.0000771  2.0083200  2
   1673   1672   1676   1679     1  0.0000000  1.2552000  3
   1673   1682   1686   1688     1  180.0000771  0.0000000  2
   1673   1682   1686   3944     1  0.0000000  0.2928800  2
   1673   1682   1686   3944     1  0.0000000  0.4184000  4
   1676   1672   1673   1682     1  180.0000771  2.0083200  2
   1676   1672   1673   1682     1  0.0000000  1.2552000  3
   1676   1679   1685   3871     1  0.0000000  0.2928800  2
   1676   1679   1685   3871     1  0.0000000  0.4184000  4
   1676   1679   1685   1687     1  180.0000771  0.0000000  2
   1679   1685   3871   3873     1  180.0000771  6.2760000  1
   1679   1685   3871   3873     1  0.0000000  0.0000000  2
   1682   1686   3944   3946     1  180.0000771  6.2760000  1
   1682   1686   3944   3946     1  0.0000000  0.0000000  2
   1685   3871   3873   3875     1  0.0000000  2.2175200  1
   1685   3871   3873   3875     1  0.0000000  0.0000000  2
   1685   3871   3873   3875     1  180.0000771  0.6276000  3
   1685   3871   3873   3875     1  180.0000771  2.0920000  4
   1686   3944   3946   3948     1  0.0000000  2.2175200  1
   1686   3944   3946   3948     1  0.0000000  0.0000000  2
   1686   3944   3946   3948     1  180.0000771  0.6276000  3
   1686   3944   3946   3948     1  180.0000771  2.0920000  4
   1687   1685   3871   3873     1  180.0000771  10.4600000  2
   1688   1686   3944   3946     1  180.0000771  10.4600000  2
   1691   1697   1698   1707     1  180.0000771  2.0083200  2
   1691   1697   1698   1707     1  0.0000000  1.2552000  3
   1691   1697   1701   1704     1  180.0000771  2.0083200  2
   1691   1697   1701   1704     1  0.0000000  1.2552000  3
   1694   1691   1697   1698     1  180.0000771  2.0083200  2
   1694   1691   1697   1698     1  0.0000000  1.2552000  3
   1694   1691   1697   1701     1  180.0000771  2.0083200  2
   1694   1691   1697   1701     1  0.0000000  1.2552000  3
   1697   1691   1694   1714     1  0.0000000  0.6508444  3
   1697   1698   1707   1711     1  0.0000000  0.6508444  3
   1697   1701   1704   1710     1  0.0000000  0.6508444  3
   1698   1697   1701   1704     1  180.0000771  2.0083200  2
   1698   1697   1701   1704     1  0.0000000  1.2552000  3
   1698   1707   1711   1713     1  180.0000771  0.0000000  2
   1698   1707   1711   4090     1  0.0000000  0.2928800  2
   1698   1707   1711   4090     1  0.0000000  0.4184000  4
   1701   1697   1698   1707     1  180.0000771  2.0083200  2
   1701   1697   1698   1707     1  0.0000000  1.2552000  3
   1701   1704   1710   4017     1  0.0000000  0.2928800  2
   1701   1704   1710   4017     1  0.0000000  0.4184000  4
   1701   1704   1710   1712     1  180.0000771  0.0000000  2
   1704   1710   4017   4019     1  180.0000771  6.2760000  1
   1704   1710   4017   4019     1  0.0000000  0.0000000  2
   1707   1711   4090   4092     1  180.0000771  6.2760000  1
   1707   1711   4090   4092     1  0.0000000  0.0000000  2
   1710   4017   4019   4021     1  0.0000000  2.2175200  1
   1710   4017   4019   4021     1  0.0000000  0.0000000  2
   1710   4017   4019   4021     1  180.0000771  0.6276000  3
   1710   4017   4019   4021     1  180.0000771  2.0920000  4
   1711   4090   4092   4094     1  0.0000000  2.2175200  1
   1711   4090   4092   4094     1  0.0000000  0.0000000  2
   1711   4090   4092   4094     1  180.0000771  0.6276000  3
   1711   4090   4092   4094     1  180.0000771  2.0920000  4
   1712   1710   4017   4019     1  180.0000771  10.4600000  2
   1713   1711   4090   4092     1  180.0000771  10.4600000  2
   1716   1722   1723   1732     1  180.0000771  2.0083200  2
   1716   1722   1723   1732     1  0.0000000  1.2552000  3
   1716   1722   1726   1729     1  180.0000771  2.0083200  2
   1716   1722   1726   1729     1  0.0000000  1.2552000  3
   1719   1716   1722   1723     1  180.0000771  2.0083200  2
   1719   1716   1722   1723     1  0.0000000  1.2552000  3
   1719   1716   1722   1726     1  180.0000771  2.0083200  2
   1719   1716   1722   1726     1  0.0000000  1.2552000  3
   1722   1716   1719   1739     1  0.0000000  0.6508444  3
   1722   1723   1732   1736     1  0.0000000  0.6508444  3
   1722   1726   1729   1735     1  0.0000000  0.6508444  3
   1723   1722   1726   1729     1  180.0000771  2.0083200  2
   1723   1722   1726   1729     1  0.0000000  1.2552000  3
   1723   1732   1736   1738     1  180.0000771  0.0000000  2
   1723   1732   1736   4236     1  0.0000000  0.2928800  2
   1723   1732   1736   4236     1  0.0000000  0.4184000  4
   1726   1722   1723   1732     1  180.0000771  2.0083200  2
   1726   1722   1723   1732     1  0.0000000  1.2552000  3
   1726   1729   1735   4163     1  0.0000000  0.2928800  2
   1726   1729   1735   4163     1  0.0000000  0.4184000  4
   1726   1729   1735   1737     1  180.0000771  0.0000000  2
   1729   1735   4163   4165     1  180.0000771  6.2760000  1
   1729   1735   4163   4165     1  0.0000000  0.0000000  2
   1732   1736   4236   4238     1  180.0000771  6.2760000  1
   1732   1736   4236   4238     1  0.0000000  0.0000000  2
   1735   4163   4165   4167     1  0.0000000  2.2175200  1
   1735   4163   4165   4167     1  0.0000000  0.0000000  2
   1735   4163   4165   4167     1  180.0000771  0.6276000  3
   1735   4163   4165   4167     1  180.0000771  2.0920000  4
   1736   4236   4238   4240     1  0.0000000  2.2175200  1
   1736   4236   4238   4240     1  0.0000000  0.0000000  2
   1736   4236   4238   4240     1  180.0000771  0.6276000  3
   1736   4236   4238   4240     1  180.0000771  2.0920000  4
   1737   1735   4163   4165     1  180.0000771  10.4600000  2
   1738   1736   4236   4238     1  180.0000771  10.4600000  2
   1741   1747   1748   1757     1  180.0000771  2.0083200  2
   1741   1747   1748   1757     1  0.0000000  1.2552000  3
   1741   1747   1751   1754     1  180.0000771  2.0083200  2
   1741   1747   1751   1754     1  0.0000000  1.2552000  3
   1744   1741   1747   1748     1  180.0000771  2.0083200  2
   1744   1741   1747   1748     1  0.0000000  1.2552000  3
   1744   1741   1747   1751     1  180.0000771  2.0083200  2
   1744   1741   1747   1751     1  0.0000000  1.2552000  3
   1747   1741   1744   1764     1  0.0000000  0.6508444  3
   1747   1748   1757   1761     1  0.0000000  0.6508444  3
   1747   1751   1754   1760     1  0.0000000  0.6508444  3
   1748   1747   1751   1754     1  180.0000771  2.0083200  2
   1748   1747   1751   1754     1  0.0000000  1.2552000  3
   1748   1757   1761   1763     1  180.0000771  0.0000000  2
   1748   1757   1761   4382     1  0.0000000  0.2928800  2
   1748   1757   1761   4382     1  0.0000000  0.4184000  4
   1751   1747   1748   1757     1  180.0000771  2.0083200  2
   1751   1747   1748   1757     1  0.0000000  1.2552000  3
   1751   1754   1760   4309     1  0.0000000  0.2928800  2
   1751   1754   1760   4309     1  0.0000000  0.4184000  4
   1751   1754   1760   1762     1  180.0000771  0.0000000  2
   1754   1760   4309   4311     1  180.0000771  6.2760000  1
   1754   1760   4309   4311     1  0.0000000  0.0000000  2
   1757   1761   4382   4384     1  180.0000771  6.2760000  1
   1757   1761   4382   4384     1  0.0000000  0.0000000  2
   1760   4309   4311   4313     1  0.0000000  2.2175200  1
   1760   4309   4311   4313     1  0.0000000  0.0000000  2
   1760   4309   4311   4313     1  180.0000771  0.6276000  3
   1760   4309   4311   4313     1  180.0000771  2.0920000  4
   1761   4382   4384   4386     1  0.0000000  2.2175200  1
   1761   4382   4384   4386     1  0.0000000  0.0000000  2
   1761   4382   4384   4386     1  180.0000771  0.6276000  3
   1761   4382   4384   4386     1  180.0000771  2.0920000  4
   1762   1760   4309   4311     1  180.0000771  10.4600000  2
   1763   1761   4382   4384     1  180.0000771  10.4600000  2
   1766   1772   1773   1782     1  180.0000771  2.0083200  2
   1766   1772   1773   1782     1  0.0000000  1.2552000  3
   1766   1772   1776   1779     1  180.0000771  2.0083200  2
   1766   1772   1776   1779     1  0.0000000  1.2552000  3
   1769   1766   1772   1773     1  180.0000771  2.0083200  2
   1769   1766   1772   1773     1  0.0000000  1.2552000  3
   1769   1766   1772   1776     1  180.0000771  2.0083200  2
   1769   1766   1772   1776     1  0.0000000  1.2552000  3
   1772   1766   1769   1789     1  0.0000000  0.6508444  3
   1772   1773   1782   1786     1  0.0000000  0.6508444  3
   1772   1776   1779   1785     1  0.0000000  0.6508444  3
   1773   1772   1776   1779     1  180.0000771  2.0083200  2
   1773   1772   1776   1779     1  0.0000000  1.2552000  3
   1773   1782   1786   1788     1  180.0000771  0.0000000  2
   1773   1782   1786   4528     1  0.0000000  0.2928800  2
   1773   1782   1786   4528     1  0.0000000  0.4184000  4
   1776   1772   1773   1782     1  180.0000771  2.0083200  2
   1776   1772   1773   1782     1  0.0000000  1.2552000  3
   1776   1779   1785   4455     1  0.0000000  0.2928800  2
   1776   1779   1785   4455     1  0.0000000  0.4184000  4
   1776   1779   1785   1787     1  180.0000771  0.0000000  2
   1779   1785   4455   4457     1  180.0000771  6.2760000  1
   1779   1785   4455   4457     1  0.0000000  0.0000000  2
   1782   1786   4528   4530     1  180.0000771  6.2760000  1
   1782   1786   4528   4530     1  0.0000000  0.0000000  2
   1785   4455   4457   4459     1  0.0000000  2.2175200  1
   1785   4455   4457   4459     1  0.0000000  0.0000000  2
   1785   4455   4457   4459     1  180.0000771  0.6276000  3
   1785   4455   4457   4459     1  180.0000771  2.0920000  4
   1786   4528   4530   4532     1  0.0000000  2.2175200  1
   1786   4528   4530   4532     1  0.0000000  0.0000000  2
   1786   4528   4530   4532     1  180.0000771  0.6276000  3
   1786   4528   4530   4532     1  180.0000771  2.0920000  4
   1787   1785   4455   4457     1  180.0000771  10.4600000  2
   1788   1786   4528   4530     1  180.0000771  10.4600000  2
   1791   1797   1798   1807     1  180.0000771  2.0083200  2
   1791   1797   1798   1807     1  0.0000000  1.2552000  3
   1791   1797   1801   1804     1  180.0000771  2.0083200  2
   1791   1797   1801   1804     1  0.0000000  1.2552000  3
   1794   1791   1797   1798     1  180.0000771  2.0083200  2
   1794   1791   1797   1798     1  0.0000000  1.2552000  3
   1794   1791   1797   1801     1  180.0000771  2.0083200  2
   1794   1791   1797   1801     1  0.0000000  1.2552000  3
   1797   1791   1794   1814     1  0.0000000  0.6508444  3
   1797   1798   1807   1811     1  0.0000000  0.6508444  3
   1797   1801   1804   1810     1  0.0000000  0.6508444  3
   1798   1797   1801   1804     1  180.0000771  2.0083200  2
   1798   1797   1801   1804     1  0.0000000  1.2552000  3
   1798   1807   1811   1813     1  180.0000771  0.0000000  2
   1798   1807   1811   4674     1  0.0000000  0.2928800  2
   1798   1807   1811   4674     1  0.0000000  0.4184000  4
   1801   1797   1798   1807     1  180.0000771  2.0083200  2
   1801   1797   1798   1807     1  0.0000000  1.2552000  3
   1801   1804   1810   4601     1  0.0000000  0.2928800  2
   1801   1804   1810   4601     1  0.0000000  0.4184000  4
   1801   1804   1810   1812     1  180.0000771  0.0000000  2
   1804   1810   4601   4603     1  180.0000771  6.2760000  1
   1804   1810   4601   4603     1  0.0000000  0.0000000  2
   1807   1811   4674   4676     1  180.0000771  6.2760000  1
   1807   1811   4674   4676     1  0.0000000  0.0000000  2
   1810   4601   4603   4605     1  0.0000000  2.2175200  1
   1810   4601   4603   4605     1  0.0000000  0.0000000  2
   1810   4601   4603   4605     1  180.0000771  0.6276000  3
   1810   4601   4603   4605     1  180.0000771  2.0920000  4
   1811   4674   4676   4678     1  0.0000000  2.2175200  1
   1811   4674   4676   4678     1  0.0000000  0.0000000  2
   1811   4674   4676   4678     1  180.0000771  0.6276000  3
   1811   4674   4676   4678     1  180.0000771  2.0920000  4
   1812   1810   4601   4603     1  180.0000771  10.4600000  2
   1813   1811   4674   4676     1  180.0000771  10.4600000  2
   1816   1822   1823   1832     1  180.0000771  2.0083200  2
   1816   1822   1823   1832     1  0.0000000  1.2552000  3
   1816   1822   1826   1829     1  180.0000771  2.0083200  2
   1816   1822   1826   1829     1  0.0000000  1.2552000  3
   1819   1816   1822   1823     1  180.0000771  2.0083200  2
   1819   1816   1822   1823     1  0.0000000  1.2552000  3
   1819   1816   1822   1826     1  180.0000771  2.0083200  2
   1819   1816   1822   1826     1  0.0000000  1.2552000  3
   1822   1816   1819   1839     1  0.0000000  0.6508444  3
   1822   1823   1832   1836     1  0.0000000  0.6508444  3
   1822   1826   1829   1835     1  0.0000000  0.6508444  3
   1823   1822   1826   1829     1  180.0000771  2.0083200  2
   1823   1822   1826   1829     1  0.0000000  1.2552000  3
   1823   1832   1836   1838     1  180.0000771  0.0000000  2
   1823   1832   1836   4820     1  0.0000000  0.2928800  2
   1823   1832   1836   4820     1  0.0000000  0.4184000  4
   1826   1822   1823   1832     1  180.0000771  2.0083200  2
   1826   1822   1823   1832     1  0.0000000  1.2552000  3
   1826   1829   1835   4747     1  0.0000000  0.2928800  2
   1826   1829   1835   4747     1  0.0000000  0.4184000  4
   1826   1829   1835   1837     1  180.0000771  0.0000000  2
   1829   1835   4747   4749     1  180.0000771  6.2760000  1
   1829   1835   4747   4749     1  0.0000000  0.0000000  2
   1832   1836   4820   4822     1  180.0000771  6.2760000  1
   1832   1836   4820   4822     1  0.0000000  0.0000000  2
   1835   4747   4749   4751     1  0.0000000  2.2175200  1
   1835   4747   4749   4751     1  0.0000000  0.0000000  2
   1835   4747   4749   4751     1  180.0000771  0.6276000  3
   1835   4747   4749   4751     1  180.0000771  2.0920000  4
   1836   4820   4822   4824     1  0.0000000  2.2175200  1
   1836   4820   4822   4824     1  0.0000000  0.0000000  2
   1836   4820   4822   4824     1  180.0000771  0.6276000  3
   1836   4820   4822   4824     1  180.0000771  2.0920000  4
   1837   1835   4747   4749     1  180.0000771  10.4600000  2
   1838   1836   4820   4822     1  180.0000771  10.4600000  2
   1841   1847   1848   1857     1  180.0000771  2.0083200  2
   1841   1847   1848   1857     1  0.0000000  1.2552000  3
   1841   1847   1851   1854     1  180.0000771  2.0083200  2
   1841   1847   1851   1854     1  0.0000000  1.2552000  3
   1844   1841   1847   1848     1  180.0000771  2.0083200  2
   1844   1841   1847   1848     1  0.0000000  1.2552000  3
   1844   1841   1847   1851     1  180.0000771  2.0083200  2
   1844   1841   1847   1851     1  0.0000000  1.2552000  3
   1847   1841   1844   1864     1  0.0000000  0.6508444  3
   1847   1848   1857   1861     1  0.0000000  0.6508444  3
   1847   1851   1854   1860     1  0.0000000  0.6508444  3
   1848   1847   1851   1854     1  180.0000771  2.0083200  2
   1848   1847   1851   1854     1  0.0000000  1.2552000  3
   1848   1857   1861   1863     1  180.0000771  0.0000000  2
   1848   1857   1861   4966     1  0.0000000  0.2928800  2
   1848   1857   1861   4966     1  0.0000000  0.4184000  4
   1851   1847   1848   1857     1  180.0000771  2.0083200  2
   1851   1847   1848   1857     1  0.0000000  1.2552000  3
   1851   1854   1860   4893     1  0.0000000  0.2928800  2
   1851   1854   1860   4893     1  0.0000000  0.4184000  4
   1851   1854   1860   1862     1  180.0000771  0.0000000  2
   1854   1860   4893   4895     1  180.0000771  6.2760000  1
   1854   1860   4893   4895     1  0.0000000  0.0000000  2
   1857   1861   4966   4968     1  180.0000771  6.2760000  1
   1857   1861   4966   4968     1  0.0000000  0.0000000  2
   1860   4893   4895   4897     1  0.0000000  2.2175200  1
   1860   4893   4895   4897     1  0.0000000  0.0000000  2
   1860   4893   4895   4897     1  180.0000771  0.6276000  3
   1860   4893   4895   4897     1  180.0000771  2.0920000  4
   1861   4966   4968   4970     1  0.0000000  2.2175200  1
   1861   4966   4968   4970     1  0.0000000  0.0000000  2
   1861   4966   4968   4970     1  180.0000771  0.6276000  3
   1861   4966   4968   4970     1  180.0000771  2.0920000  4
   1862   1860   4893   4895     1  180.0000771  10.4600000  2
   1863   1861   4966   4968     1  180.0000771  10.4600000  2
   1866   1872   1873   1882     1  180.0000771  2.0083200  2
   1866   1872   1873   1882     1  0.0000000  1.2552000  3
   1866   1872   1876   1879     1  180.0000771  2.0083200  2
   1866   1872   1876   1879     1  0.0000000  1.2552000  3
   1869   1866   1872   1873     1  180.0000771  2.0083200  2
   1869   1866   1872   1873     1  0.0000000  1.2552000  3
   1869   1866   1872   1876     1  180.0000771  2.0083200  2
   1869   1866   1872   1876     1  0.0000000  1.2552000  3
   1872   1866   1869   1889     1  0.0000000  0.6508444  3
   1872   1873   1882   1886     1  0.0000000  0.6508444  3
   1872   1876   1879   1885     1  0.0000000  0.6508444  3
   1873   1872   1876   1879     1  180.0000771  2.0083200  2
   1873   1872   1876   1879     1  0.0000000  1.2552000  3
   1873   1882   1886   1888     1  180.0000771  0.0000000  2
   1873   1882   1886   5112     1  0.0000000  0.2928800  2
   1873   1882   1886   5112     1  0.0000000  0.4184000  4
   1876   1872   1873   1882     1  180.0000771  2.0083200  2
   1876   1872   1873   1882     1  0.0000000  1.2552000  3
   1876   1879   1885   5039     1  0.0000000  0.2928800  2
   1876   1879   1885   5039     1  0.0000000  0.4184000  4
   1876   1879   1885   1887     1  180.0000771  0.0000000  2
   1879   1885   5039   5041     1  180.0000771  6.2760000  1
   1879   1885   5039   5041     1  0.0000000  0.0000000  2
   1882   1886   5112   5114     1  180.0000771  6.2760000  1
   1882   1886   5112   5114     1  0.0000000  0.0000000  2
   1885   5039   5041   5043     1  0.0000000  2.2175200  1
   1885   5039   5041   5043     1  0.0000000  0.0000000  2
   1885   5039   5041   5043     1  180.0000771  0.6276000  3
   1885   5039   5041   5043     1  180.0000771  2.0920000  4
   1886   5112   5114   5116     1  0.0000000  2.2175200  1
   1886   5112   5114   5116     1  0.0000000  0.0000000  2
   1886   5112   5114   5116     1  180.0000771  0.6276000  3
   1886   5112   5114   5116     1  180.0000771  2.0920000  4
   1887   1885   5039   5041     1  180.0000771  10.4600000  2
   1888   1886   5112   5114     1  180.0000771  10.4600000  2
   1891   1897   1898   1907     1  180.0000771  2.0083200  2
   1891   1897   1898   1907     1  0.0000000  1.2552000  3
   1891   1897   1901   1904     1  180.0000771  2.0083200  2
   1891   1897   1901   1904     1  0.0000000  1.2552000  3
   1894   1891   1897   1898     1  180.0000771  2.0083200  2
   1894   1891   1897   1898     1  0.0000000  1.2552000  3
   1894   1891   1897   1901     1  180.0000771  2.0083200  2
   1894   1891   1897   1901     1  0.0000000  1.2552000  3
   1897   1891   1894   1914     1  0.0000000  0.6508444  3
   1897   1898   1907   1911     1  0.0000000  0.6508444  3
   1897   1901   1904   1910     1  0.0000000  0.6508444  3
   1898   1897   1901   1904     1  180.0000771  2.0083200  2
   1898   1897   1901   1904     1  0.0000000  1.2552000  3
   1898   1907   1911   1913     1  180.0000771  0.0000000  2
   1898   1907   1911   5258     1  0.0000000  0.2928800  2
   1898   1907   1911   5258     1  0.0000000  0.4184000  4
   1901   1897   1898   1907     1  180.0000771  2.0083200  2
   1901   1897   1898   1907     1  0.0000000  1.2552000  3
   1901   1904   1910   5185     1  0.0000000  0.2928800  2
   1901   1904   1910   5185     1  0.0000000  0.4184000  4
   1901   1904   1910   1912     1  180.0000771  0.0000000  2
   1904   1910   5185   5187     1  180.0000771  6.2760000  1
   1904   1910   5185   5187     1  0.0000000  0.0000000  2
   1907   1911   5258   5260     1  180.0000771  6.2760000  1
   1907   1911   5258   5260     1  0.0000000  0.0000000  2
   1910   5185   5187   5189     1  0.0000000  2.2175200  1
   1910   5185   5187   5189     1  0.0000000  0.0000000  2
   1910   5185   5187   5189     1  180.0000771  0.6276000  3
   1910   5185   5187   5189     1  180.0000771  2.0920000  4
   1911   5258   5260   5262     1  0.0000000  2.2175200  1
   1911   5258   5260   5262     1  0.0000000  0.0000000  2
   1911   5258   5260   5262     1  180.0000771  0.6276000  3
   1911   5258   5260   5262     1  180.0000771  2.0920000  4
   1912   1910   5185   5187     1  180.0000771  10.4600000  2
   1913   1911   5258   5260     1  180.0000771  10.4600000  2
   1916   1922   1923   1932     1  180.0000771  2.0083200  2
   1916   1922   1923   1932     1  0.0000000  1.2552000  3
   1916   1922   1926   1929     1  180.0000771  2.0083200  2
   1916   1922   1926   1929     1  0.0000000  1.2552000  3
   1919   1916   1922   1923     1  180.0000771  2.0083200  2
   1919   1916   1922   1923     1  0.0000000  1.2552000  3
   1919   1916   1922   1926     1  180.0000771  2.0083200  2
   1919   1916   1922   1926     1  0.0000000  1.2552000  3
   1922   1916   1919   1939     1  0.0000000  0.6508444  3
   1922   1923   1932   1936     1  0.0000000  0.6508444  3
   1922   1926   1929   1935     1  0.0000000  0.6508444  3
   1923   1922   1926   1929     1  180.0000771  2.0083200  2
   1923   1922   1926   1929     1  0.0000000  1.2552000  3
   1923   1932   1936   1938     1  180.0000771  0.0000000  2
   1923   1932   1936   5404     1  0.0000000  0.2928800  2
   1923   1932   1936   5404     1  0.0000000  0.4184000  4
   1926   1922   1923   1932     1  180.0000771  2.0083200  2
   1926   1922   1923   1932     1  0.0000000  1.2552000  3
   1926   1929   1935   5331     1  0.0000000  0.2928800  2
   1926   1929   1935   5331     1  0.0000000  0.4184000  4
   1926   1929   1935   1937     1  180.0000771  0.0000000  2
   1929   1935   5331   5333     1  180.0000771  6.2760000  1
   1929   1935   5331   5333     1  0.0000000  0.0000000  2
   1932   1936   5404   5406     1  180.0000771  6.2760000  1
   1932   1936   5404   5406     1  0.0000000  0.0000000  2
   1935   5331   5333   5335     1  0.0000000  2.2175200  1
   1935   5331   5333   5335     1  0.0000000  0.0000000  2
   1935   5331   5333   5335     1  180.0000771  0.6276000  3
   1935   5331   5333   5335     1  180.0000771  2.0920000  4
   1936   5404   5406   5408     1  0.0000000  2.2175200  1
   1936   5404   5406   5408     1  0.0000000  0.0000000  2
   1936   5404   5406   5408     1  180.0000771  0.6276000  3
   1936   5404   5406   5408     1  180.0000771  2.0920000  4
   1937   1935   5331   5333     1  180.0000771  10.4600000  2
   1938   1936   5404   5406     1  180.0000771  10.4600000  2
   1941   1947   1948   1957     1  180.0000771  2.0083200  2
   1941   1947   1948   1957     1  0.0000000  1.2552000  3
   1941   1947   1951   1954     1  180.0000771  2.0083200  2
   1941   1947   1951   1954     1  0.0000000  1.2552000  3
   1944   1941   1947   1948     1  180.0000771  2.0083200  2
   1944   1941   1947   1948     1  0.0000000  1.2552000  3
   1944   1941   1947   1951     1  180.0000771  2.0083200  2
   1944   1941   1947   1951     1  0.0000000  1.2552000  3
   1947   1941   1944   1964     1  0.0000000  0.6508444  3
   1947   1948   1957   1961     1  0.0000000  0.6508444  3
   1947   1951   1954   1960     1  0.0000000  0.6508444  3
   1948   1947   1951   1954     1  180.0000771  2.0083200  2
   1948   1947   1951   1954     1  0.0000000  1.2552000  3
   1948   1957   1961   1963     1  180.0000771  0.0000000  2
   1948   1957   1961   5550     1  0.0000000  0.2928800  2
   1948   1957   1961   5550     1  0.0000000  0.4184000  4
   1951   1947   1948   1957     1  180.0000771  2.0083200  2
   1951   1947   1948   1957     1  0.0000000  1.2552000  3
   1951   1954   1960   5477     1  0.0000000  0.2928800  2
   1951   1954   1960   5477     1  0.0000000  0.4184000  4
   1951   1954   1960   1962     1  180.0000771  0.0000000  2
   1954   1960   5477   5479     1  180.0000771  6.2760000  1
   1954   1960   5477   5479     1  0.0000000  0.0000000  2
   1957   1961   5550   5552     1  180.0000771  6.2760000  1
   1957   1961   5550   5552     1  0.0000000  0.0000000  2
   1960   5477   5479   5481     1  0.0000000  2.2175200  1
   1960   5477   5479   5481     1  0.0000000  0.0000000  2
   1960   5477   5479   5481     1  180.0000771  0.6276000  3
   1960   5477   5479   5481     1  180.0000771  2.0920000  4
   1961   5550   5552   5554     1  0.0000000  2.2175200  1
   1961   5550   5552   5554     1  0.0000000  0.0000000  2
   1961   5550   5552   5554     1  180.0000771  0.6276000  3
   1961   5550   5552   5554     1  180.0000771  2.0920000  4
   1962   1960   5477   5479     1  180.0000771  10.4600000  2
   1963   1961   5550   5552     1  180.0000771  10.4600000  2
   1966   1972   1973   1982     1  180.0000771  2.0083200  2
   1966   1972   1973   1982     1  0.0000000  1.2552000  3
   1966   1972   1976   1979     1  180.0000771  2.0083200  2
   1966   1972   1976   1979     1  0.0000000  1.2552000  3
   1969   1966   1972   1973     1  180.0000771  2.0083200  2
   1969   1966   1972   1973     1  0.0000000  1.2552000  3
   1969   1966   1972   1976     1  180.0000771  2.0083200  2
   1969   1966   1972   1976     1  0.0000000  1.2552000  3
   1972   1966   1969   1989     1  0.0000000  0.6508444  3
   1972   1973   1982   1986     1  0.0000000  0.6508444  3
   1972   1976   1979   1985     1  0.0000000  0.6508444  3
   1973   1972   1976   1979     1  180.0000771  2.0083200  2
   1973   1972   1976   1979     1  0.0000000  1.2552000  3
   1973   1982   1986   1988     1  180.0000771  0.0000000  2
   1973   1982   1986   5696     1  0.0000000  0.2928800  2
   1973   1982   1986   5696     1  0.0000000  0.4184000  4
   1976   1972   1973   1982     1  180.0000771  2.0083200  2
   1976   1972   1973   1982     1  0.0000000  1.2552000  3
   1976   1979   1985   5623     1  0.0000000  0.2928800  2
   1976   1979   1985   5623     1  0.0000000  0.4184000  4
   1976   1979   1985   1987     1  180.0000771  0.0000000  2
   1979   1985   5623   5625     1  180.0000771  6.2760000  1
   1979   1985   5623   5625     1  0.0000000  0.0000000  2
   1982   1986   5696   5698     1  180.0000771  6.2760000  1
   1982   1986   5696   5698     1  0.0000000  0.0000000  2
   1985   5623   5625   5627     1  0.0000000  2.2175200  1
   1985   5623   5625   5627     1  0.0000000  0.0000000  2
   1985   5623   5625   5627     1  180.0000771  0.6276000  3
   1985   5623   5625   5627     1  180.0000771  2.0920000  4
   1986   5696   5698   5700     1  0.0000000  2.2175200  1
   1986   5696   5698   5700     1  0.0000000  0.0000000  2
   1986   5696   5698   5700     1  180.0000771  0.6276000  3
   1986   5696   5698   5700     1  180.0000771  2.0920000  4
   1987   1985   5623   5625     1  180.0000771  10.4600000  2
   1988   1986   5696   5698     1  180.0000771  10.4600000  2
   1991   1997   1998   2007     1  180.0000771  2.0083200  2
   1991   1997   1998   2007     1  0.0000000  1.2552000  3
   1991   1997   2001   2004     1  180.0000771  2.0083200  2
   1991   1997   2001   2004     1  0.0000000  1.2552000  3
   1994   1991   1997   1998     1  180.0000771  2.0083200  2
   1994   1991   1997   1998     1  0.0000000  1.2552000  3
   1994   1991   1997   2001     1  180.0000771  2.0083200  2
   1994   1991   1997   2001     1  0.0000000  1.2552000  3
   1997   1991   1994   2014     1  0.0000000  0.6508444  3
   1997   1998   2007   2011     1  0.0000000  0.6508444  3
   1997   2001   2004   2010     1  0.0000000  0.6508444  3
   1998   1997   2001   2004     1  180.0000771  2.0083200  2
   1998   1997   2001   2004     1  0.0000000  1.2552000  3
   1998   2007   2011   2013     1  180.0000771  0.0000000  2
   1998   2007   2011   5842     1  0.0000000  0.2928800  2
   1998   2007   2011   5842     1  0.0000000  0.4184000  4
   2001   1997   1998   2007     1  180.0000771  2.0083200  2
   2001   1997   1998   2007     1  0.0000000  1.2552000  3
   2001   2004   2010   5769     1  0.0000000  0.2928800  2
   2001   2004   2010   5769     1  0.0000000  0.4184000  4
   2001   2004   2010   2012     1  180.0000771  0.0000000  2
   2004   2010   5769   5771     1  180.0000771  6.2760000  1
   2004   2010   5769   5771     1  0.0000000  0.0000000  2
   2007   2011   5842   5844     1  180.0000771  6.2760000  1
   2007   2011   5842   5844     1  0.0000000  0.0000000  2
   2010   5769   5771   5773     1  0.0000000  2.2175200  1
   2010   5769   5771   5773     1  0.0000000  0.0000000  2
   2010   5769   5771   5773     1  180.0000771  0.6276000  3
   2010   5769   5771   5773     1  180.0000771  2.0920000  4
   2011   5842   5844   5846     1  0.0000000  2.2175200  1
   2011   5842   5844   5846     1  0.0000000  0.0000000  2
   2011   5842   5844   5846     1  180.0000771  0.6276000  3
   2011   5842   5844   5846     1  180.0000771  2.0920000  4
   2012   2010   5769   5771     1  180.0000771  10.4600000  2
   2013   2011   5842   5844     1  180.0000771  10.4600000  2
   2016   2022   2023   2032     1  180.0000771  2.0083200  2
   2016   2022   2023   2032     1  0.0000000  1.2552000  3
   2016   2022   2026   2029     1  180.0000771  2.0083200  2
   2016   2022   2026   2029     1  0.0000000  1.2552000  3
   2019   2016   2022   2023     1  180.0000771  2.0083200  2
   2019   2016   2022   2023     1  0.0000000  1.2552000  3
   2019   2016   2022   2026     1  180.0000771  2.0083200  2
   2019   2016   2022   2026     1  0.0000000  1.2552000  3
   2022   2016   2019   2039     1  0.0000000  0.6508444  3
   2022   2023   2032   2036     1  0.0000000  0.6508444  3
   2022   2026   2029   2035     1  0.0000000  0.6508444  3
   2023   2022   2026   2029     1  180.0000771  2.0083200  2
   2023   2022   2026   2029     1  0.0000000  1.2552000  3
   2023   2032   2036   2038     1  180.0000771  0.0000000  2
   2023   2032   2036   5988     1  0.0000000  0.2928800  2
   2023   2032   2036   5988     1  0.0000000  0.4184000  4
   2026   2022   2023   2032     1  180.0000771  2.0083200  2
   2026   2022   2023   2032     1  0.0000000  1.2552000  3
   2026   2029   2035   5915     1  0.0000000  0.2928800  2
   2026   2029   2035   5915     1  0.0000000  0.4184000  4
   2026   2029   2035   2037     1  180.0000771  0.0000000  2
   2029   2035   5915   5917     1  180.0000771  6.2760000  1
   2029   2035   5915   5917     1  0.0000000  0.0000000  2
   2032   2036   5988   5990     1  180.0000771  6.2760000  1
   2032   2036   5988   5990     1  0.0000000  0.0000000  2
   2035   5915   5917   5919     1  0.0000000  2.2175200  1
   2035   5915   5917   5919     1  0.0000000  0.0000000  2
   2035   5915   5917   5919     1  180.0000771  0.6276000  3
   2035   5915   5917   5919     1  180.0000771  2.0920000  4
   2036   5988   5990   5992     1  0.0000000  2.2175200  1
   2036   5988   5990   5992     1  0.0000000  0.0000000  2
   2036   5988   5990   5992     1  180.0000771  0.6276000  3
   2036   5988   5990   5992     1  180.0000771  2.0920000  4
   2037   2035   5915   5917     1  180.0000771  10.4600000  2
   2038   2036   5988   5990     1  180.0000771  10.4600000  2
   2041   2047   2048   2057     1  180.0000771  2.0083200  2
   2041   2047   2048   2057     1  0.0000000  1.2552000  3
   2041   2047   2051   2054     1  180.0000771  2.0083200  2
   2041   2047   2051   2054     1  0.0000000  1.2552000  3
   2044   2041   2047   2048     1  180.0000771  2.0083200  2
   2044   2041   2047   2048     1  0.0000000  1.2552000  3
   2044   2041   2047   2051     1  180.0000771  2.0083200  2
   2044   2041   2047   2051     1  0.0000000  1.2552000  3
   2047   2041   2044   2064     1  0.0000000  0.6508444  3
   2047   2048   2057   2061     1  0.0000000  0.6508444  3
   2047   2051   2054   2060     1  0.0000000  0.6508444  3
   2048   2047   2051   2054     1  180.0000771  2.0083200  2
   2048   2047   2051   2054     1  0.0000000  1.2552000  3
   2048   2057   2061   2063     1  180.0000771  0.0000000  2
   2048   2057   2061   6134     1  0.0000000  0.2928800  2
   2048   2057   2061   6134     1  0.0000000  0.4184000  4
   2051   2047   2048   2057     1  180.0000771  2.0083200  2
   2051   2047   2048   2057     1  0.0000000  1.2552000  3
   2051   2054   2060   6061     1  0.0000000  0.2928800  2
   2051   2054   2060   6061     1  0.0000000  0.4184000  4
   2051   2054   2060   2062     1  180.0000771  0.0000000  2
   2054   2060   6061   6063     1  180.0000771  6.2760000  1
   2054   2060   6061   6063     1  0.0000000  0.0000000  2
   2057   2061   6134   6136     1  180.0000771  6.2760000  1
   2057   2061   6134   6136     1  0.0000000  0.0000000  2
   2060   6061   6063   6065     1  0.0000000  2.2175200  1
   2060   6061   6063   6065     1  0.0000000  0.0000000  2
   2060   6061   6063   6065     1  180.0000771  0.6276000  3
   2060   6061   6063   6065     1  180.0000771  2.0920000  4
   2061   6134   6136   6138     1  0.0000000  2.2175200  1
   2061   6134   6136   6138     1  0.0000000  0.0000000  2
   2061   6134   6136   6138     1  180.0000771  0.6276000  3
   2061   6134   6136   6138     1  180.0000771  2.0920000  4
   2062   2060   6061   6063     1  180.0000771  10.4600000  2
   2063   2061   6134   6136     1  180.0000771  10.4600000  2
   2066   2072   2073   2082     1  180.0000771  2.0083200  2
   2066   2072   2073   2082     1  0.0000000  1.2552000  3
   2066   2072   2076   2079     1  180.0000771  2.0083200  2
   2066   2072   2076   2079     1  0.0000000  1.2552000  3
   2069   2066   2072   2073     1  180.0000771  2.0083200  2
   2069   2066   2072   2073     1  0.0000000  1.2552000  3
   2069   2066   2072   2076     1  180.0000771  2.0083200  2
   2069   2066   2072   2076     1  0.0000000  1.2552000  3
   2072   2066   2069   2089     1  0.0000000  0.6508444  3
   2072   2073   2082   2086     1  0.0000000  0.6508444  3
   2072   2076   2079   2085     1  0.0000000  0.6508444  3
   2073   2072   2076   2079     1  180.0000771  2.0083200  2
   2073   2072   2076   2079     1  0.0000000  1.2552000  3
   2073   2082   2086   2088     1  180.0000771  0.0000000  2
   2073   2082   2086   6280     1  0.0000000  0.2928800  2
   2073   2082   2086   6280     1  0.0000000  0.4184000  4
   2076   2072   2073   2082     1  180.0000771  2.0083200  2
   2076   2072   2073   2082     1  0.0000000  1.2552000  3
   2076   2079   2085   6207     1  0.0000000  0.2928800  2
   2076   2079   2085   6207     1  0.0000000  0.4184000  4
   2076   2079   2085   2087     1  180.0000771  0.0000000  2
   2079   2085   6207   6209     1  180.0000771  6.2760000  1
   2079   2085   6207   6209     1  0.0000000  0.0000000  2
   2082   2086   6280   6282     1  180.0000771  6.2760000  1
   2082   2086   6280   6282     1  0.0000000  0.0000000  2
   2085   6207   6209   6211     1  0.0000000  2.2175200  1
   2085   6207   6209   6211     1  0.0000000  0.0000000  2
   2085   6207   6209   6211     1  180.0000771  0.6276000  3
   2085   6207   6209   6211     1  180.0000771  2.0920000  4
   2086   6280   6282   6284     1  0.0000000  2.2175200  1
   2086   6280   6282   6284     1  0.0000000  0.0000000  2
   2086   6280   6282   6284     1  180.0000771  0.6276000  3
   2086   6280   6282   6284     1  180.0000771  2.0920000  4
   2087   2085   6207   6209     1  180.0000771  10.4600000  2
   2088   2086   6280   6282     1  180.0000771  10.4600000  2
   2091   2097   2098   2107     1  180.0000771  2.0083200  2
   2091   2097   2098   2107     1  0.0000000  1.2552000  3
   2091   2097   2101   2104     1  180.0000771  2.0083200  2
   2091   2097   2101   2104     1  0.0000000  1.2552000  3
   2094   2091   2097   2098     1  180.0000771  2.0083200  2
   2094   2091   2097   2098     1  0.0000000  1.2552000  3
   2094   2091   2097   2101     1  180.0000771  2.0083200  2
   2094   2091   2097   2101     1  0.0000000  1.2552000  3
   2097   2091   2094   2114     1  0.0000000  0.6508444  3
   2097   2098   2107   2111     1  0.0000000  0.6508444  3
   2097   2101   2104   2110     1  0.0000000  0.6508444  3
   2098   2097   2101   2104     1  180.0000771  2.0083200  2
   2098   2097   2101   2104     1  0.0000000  1.2552000  3
   2098   2107   2111   2113     1  180.0000771  0.0000000  2
   2098   2107   2111   6426     1  0.0000000  0.2928800  2
   2098   2107   2111   6426     1  0.0000000  0.4184000  4
   2101   2097   2098   2107     1  180.0000771  2.0083200  2
   2101   2097   2098   2107     1  0.0000000  1.2552000  3
   2101   2104   2110   6353     1  0.0000000  0.2928800  2
   2101   2104   2110   6353     1  0.0000000  0.4184000  4
   2101   2104   2110   2112     1  180.0000771  0.0000000  2
   2104   2110   6353   6355     1  180.0000771  6.2760000  1
   2104   2110   6353   6355     1  0.0000000  0.0000000  2
   2107   2111   6426   6428     1  180.0000771  6.2760000  1
   2107   2111   6426   6428     1  0.0000000  0.0000000  2
   2110   6353   6355   6357     1  0.0000000  2.2175200  1
   2110   6353   6355   6357     1  0.0000000  0.0000000  2
   2110   6353   6355   6357     1  180.0000771  0.6276000  3
   2110   6353   6355   6357     1  180.0000771  2.0920000  4
   2111   6426   6428   6430     1  0.0000000  2.2175200  1
   2111   6426   6428   6430     1  0.0000000  0.0000000  2
   2111   6426   6428   6430     1  180.0000771  0.6276000  3
   2111   6426   6428   6430     1  180.0000771  2.0920000  4
   2112   2110   6353   6355     1  180.0000771  10.4600000  2
   2113   2111   6426   6428     1  180.0000771  10.4600000  2
   2116   2122   2123   2132     1  180.0000771  2.0083200  2
   2116   2122   2123   2132     1  0.0000000  1.2552000  3
   2116   2122   2126   2129     1  180.0000771  2.0083200  2
   2116   2122   2126   2129     1  0.0000000  1.2552000  3
   2119   2116   2122   2123     1  180.0000771  2.0083200  2
   2119   2116   2122   2123     1  0.0000000  1.2552000  3
   2119   2116   2122   2126     1  180.0000771  2.0083200  2
   2119   2116   2122   2126     1  0.0000000  1.2552000  3
   2122   2116   2119   2139     1  0.0000000  0.6508444  3
   2122   2123   2132   2136     1  0.0000000  0.6508444  3
   2122   2126   2129   2135     1  0.0000000  0.6508444  3
   2123   2122   2126   2129     1  180.0000771  2.0083200  2
   2123   2122   2126   2129     1  0.0000000  1.2552000  3
   2123   2132   2136   2138     1  180.0000771  0.0000000  2
   2123   2132   2136   6572     1  0.0000000  0.2928800  2
   2123   2132   2136   6572     1  0.0000000  0.4184000  4
   2126   2122   2123   2132     1  180.0000771  2.0083200  2
   2126   2122   2123   2132     1  0.0000000  1.2552000  3
   2126   2129   2135   6499     1  0.0000000  0.2928800  2
   2126   2129   2135   6499     1  0.0000000  0.4184000  4
   2126   2129   2135   2137     1  180.0000771  0.0000000  2
   2129   2135   6499   6501     1  180.0000771  6.2760000  1
   2129   2135   6499   6501     1  0.0000000  0.0000000  2
   2132   2136   6572   6574     1  180.0000771  6.2760000  1
   2132   2136   6572   6574     1  0.0000000  0.0000000  2
   2135   6499   6501   6503     1  0.0000000  2.2175200  1
   2135   6499   6501   6503     1  0.0000000  0.0000000  2
   2135   6499   6501   6503     1  180.0000771  0.6276000  3
   2135   6499   6501   6503     1  180.0000771  2.0920000  4
   2136   6572   6574   6576     1  0.0000000  2.2175200  1
   2136   6572   6574   6576     1  0.0000000  0.0000000  2
   2136   6572   6574   6576     1  180.0000771  0.6276000  3
   2136   6572   6574   6576     1  180.0000771  2.0920000  4
   2137   2135   6499   6501     1  180.0000771  10.4600000  2
   2138   2136   6572   6574     1  180.0000771  10.4600000  2
   2141   2147   2148   2157     1  180.0000771  2.0083200  2
   2141   2147   2148   2157     1  0.0000000  1.2552000  3
   2141   2147   2151   2154     1  180.0000771  2.0083200  2
   2141   2147   2151   2154     1  0.0000000  1.2552000  3
   2144   2141   2147   2148     1  180.0000771  2.0083200  2
   2144   2141   2147   2148     1  0.0000000  1.2552000  3
   2144   2141   2147   2151     1  180.0000771  2.0083200  2
   2144   2141   2147   2151     1  0.0000000  1.2552000  3
   2147   2141   2144   2164     1  0.0000000  0.6508444  3
   2147   2148   2157   2161     1  0.0000000  0.6508444  3
   2147   2151   2154   2160     1  0.0000000  0.6508444  3
   2148   2147   2151   2154     1  180.0000771  2.0083200  2
   2148   2147   2151   2154     1  0.0000000  1.2552000  3
   2148   2157   2161   2163     1  180.0000771  0.0000000  2
   2148   2157   2161   6718     1  0.0000000  0.2928800  2
   2148   2157   2161   6718     1  0.0000000  0.4184000  4
   2151   2147   2148   2157     1  180.0000771  2.0083200  2
   2151   2147   2148   2157     1  0.0000000  1.2552000  3
   2151   2154   2160   6645     1  0.0000000  0.2928800  2
   2151   2154   2160   6645     1  0.0000000  0.4184000  4
   2151   2154   2160   2162     1  180.0000771  0.0000000  2
   2154   2160   6645   6647     1  180.0000771  6.2760000  1
   2154   2160   6645   6647     1  0.0000000  0.0000000  2
   2157   2161   6718   6720     1  180.0000771  6.2760000  1
   2157   2161   6718   6720     1  0.0000000  0.0000000  2
   2160   6645   6647   6649     1  0.0000000  2.2175200  1
   2160   6645   6647   6649     1  0.0000000  0.0000000  2
   2160   6645   6647   6649     1  180.0000771  0.6276000  3
   2160   6645   6647   6649     1  180.0000771  2.0920000  4
   2161   6718   6720   6722     1  0.0000000  2.2175200  1
   2161   6718   6720   6722     1  0.0000000  0.0000000  2
   2161   6718   6720   6722     1  180.0000771  0.6276000  3
   2161   6718   6720   6722     1  180.0000771  2.0920000  4
   2162   2160   6645   6647     1  180.0000771  10.4600000  2
   2163   2161   6718   6720     1  180.0000771  10.4600000  2
   2166   2172   2173   2182     1  180.0000771  2.0083200  2
   2166   2172   2173   2182     1  0.0000000  1.2552000  3
   2166   2172   2176   2179     1  180.0000771  2.0083200  2
   2166   2172   2176   2179     1  0.0000000  1.2552000  3
   2169   2166   2172   2173     1  180.0000771  2.0083200  2
   2169   2166   2172   2173     1  0.0000000  1.2552000  3
   2169   2166   2172   2176     1  180.0000771  2.0083200  2
   2169   2166   2172   2176     1  0.0000000  1.2552000  3
   2172   2166   2169   2189     1  0.0000000  0.6508444  3
   2172   2173   2182   2186     1  0.0000000  0.6508444  3
   2172   2176   2179   2185     1  0.0000000  0.6508444  3
   2173   2172   2176   2179     1  180.0000771  2.0083200  2
   2173   2172   2176   2179     1  0.0000000  1.2552000  3
   2173   2182   2186   2188     1  180.0000771  0.0000000  2
   2173   2182   2186   6864     1  0.0000000  0.2928800  2
   2173   2182   2186   6864     1  0.0000000  0.4184000  4
   2176   2172   2173   2182     1  180.0000771  2.0083200  2
   2176   2172   2173   2182     1  0.0000000  1.2552000  3
   2176   2179   2185   6791     1  0.0000000  0.2928800  2
   2176   2179   2185   6791     1  0.0000000  0.4184000  4
   2176   2179   2185   2187     1  180.0000771  0.0000000  2
   2179   2185   6791   6793     1  180.0000771  6.2760000  1
   2179   2185   6791   6793     1  0.0000000  0.0000000  2
   2182   2186   6864   6866     1  180.0000771  6.2760000  1
   2182   2186   6864   6866     1  0.0000000  0.0000000  2
   2185   6791   6793   6795     1  0.0000000  2.2175200  1
   2185   6791   6793   6795     1  0.0000000  0.0000000  2
   2185   6791   6793   6795     1  180.0000771  0.6276000  3
   2185   6791   6793   6795     1  180.0000771  2.0920000  4
   2186   6864   6866   6868     1  0.0000000  2.2175200  1
   2186   6864   6866   6868     1  0.0000000  0.0000000  2
   2186   6864   6866   6868     1  180.0000771  0.6276000  3
   2186   6864   6866   6868     1  180.0000771  2.0920000  4
   2187   2185   6791   6793     1  180.0000771  10.4600000  2
   2188   2186   6864   6866     1  180.0000771  10.4600000  2
   2191   2197   2198   2207     1  180.0000771  2.0083200  2
   2191   2197   2198   2207     1  0.0000000  1.2552000  3
   2191   2197   2201   2204     1  180.0000771  2.0083200  2
   2191   2197   2201   2204     1  0.0000000  1.2552000  3
   2194   2191   2197   2198     1  180.0000771  2.0083200  2
   2194   2191   2197   2198     1  0.0000000  1.2552000  3
   2194   2191   2197   2201     1  180.0000771  2.0083200  2
   2194   2191   2197   2201     1  0.0000000  1.2552000  3
   2197   2191   2194   2214     1  0.0000000  0.6508444  3
   2197   2198   2207   2211     1  0.0000000  0.6508444  3
   2197   2201   2204   2210     1  0.0000000  0.6508444  3
   2198   2197   2201   2204     1  180.0000771  2.0083200  2
   2198   2197   2201   2204     1  0.0000000  1.2552000  3
   2198   2207   2211   2213     1  180.0000771  0.0000000  2
   2198   2207   2211   7010     1  0.0000000  0.2928800  2
   2198   2207   2211   7010     1  0.0000000  0.4184000  4
   2201   2197   2198   2207     1  180.0000771  2.0083200  2
   2201   2197   2198   2207     1  0.0000000  1.2552000  3
   2201   2204   2210   6937     1  0.0000000  0.2928800  2
   2201   2204   2210   6937     1  0.0000000  0.4184000  4
   2201   2204   2210   2212     1  180.0000771  0.0000000  2
   2204   2210   6937   6939     1  180.0000771  6.2760000  1
   2204   2210   6937   6939     1  0.0000000  0.0000000  2
   2207   2211   7010   7012     1  180.0000771  6.2760000  1
   2207   2211   7010   7012     1  0.0000000  0.0000000  2
   2210   6937   6939   6941     1  0.0000000  2.2175200  1
   2210   6937   6939   6941     1  0.0000000  0.0000000  2
   2210   6937   6939   6941     1  180.0000771  0.6276000  3
   2210   6937   6939   6941     1  180.0000771  2.0920000  4
   2211   7010   7012   7014     1  0.0000000  2.2175200  1
   2211   7010   7012   7014     1  0.0000000  0.0000000  2
   2211   7010   7012   7014     1  180.0000771  0.6276000  3
   2211   7010   7012   7014     1  180.0000771  2.0920000  4
   2212   2210   6937   6939     1  180.0000771  10.4600000  2
   2213   2211   7010   7012     1  180.0000771  10.4600000  2
   2216   2222   2223   2232     1  180.0000771  2.0083200  2
   2216   2222   2223   2232     1  0.0000000  1.2552000  3
   2216   2222   2226   2229     1  180.0000771  2.0083200  2
   2216   2222   2226   2229     1  0.0000000  1.2552000  3
   2219   2216   2222   2223     1  180.0000771  2.0083200  2
   2219   2216   2222   2223     1  0.0000000  1.2552000  3
   2219   2216   2222   2226     1  180.0000771  2.0083200  2
   2219   2216   2222   2226     1  0.0000000  1.2552000  3
   2222   2216   2219   2239     1  0.0000000  0.6508444  3
   2222   2223   2232   2236     1  0.0000000  0.6508444  3
   2222   2226   2229   2235     1  0.0000000  0.6508444  3
   2223   2222   2226   2229     1  180.0000771  2.0083200  2
   2223   2222   2226   2229     1  0.0000000  1.2552000  3
   2223   2232   2236   2238     1  180.0000771  0.0000000  2
   2223   2232   2236   7156     1  0.0000000  0.2928800  2
   2223   2232   2236   7156     1  0.0000000  0.4184000  4
   2226   2222   2223   2232     1  180.0000771  2.0083200  2
   2226   2222   2223   2232     1  0.0000000  1.2552000  3
   2226   2229   2235   7083     1  0.0000000  0.2928800  2
   2226   2229   2235   7083     1  0.0000000  0.4184000  4
   2226   2229   2235   2237     1  180.0000771  0.0000000  2
   2229   2235   7083   7085     1  180.0000771  6.2760000  1
   2229   2235   7083   7085     1  0.0000000  0.0000000  2
   2232   2236   7156   7158     1  180.0000771  6.2760000  1
   2232   2236   7156   7158     1  0.0000000  0.0000000  2
   2235   7083   7085   7087     1  0.0000000  2.2175200  1
   2235   7083   7085   7087     1  0.0000000  0.0000000  2
   2235   7083   7085   7087     1  180.0000771  0.6276000  3
   2235   7083   7085   7087     1  180.0000771  2.0920000  4
   2236   7156   7158   7160     1  0.0000000  2.2175200  1
   2236   7156   7158   7160     1  0.0000000  0.0000000  2
   2236   7156   7158   7160     1  180.0000771  0.6276000  3
   2236   7156   7158   7160     1  180.0000771  2.0920000  4
   2237   2235   7083   7085     1  180.0000771  10.4600000  2
   2238   2236   7156   7158     1  180.0000771  10.4600000  2
   2241   2247   2248   2257     1  180.0000771  2.0083200  2
   2241   2247   2248   2257     1  0.0000000  1.2552000  3
   2241   2247   2251   2254     1  180.0000771  2.0083200  2
   2241   2247   2251   2254     1  0.0000000  1.2552000  3
   2244   2241   2247   2248     1  180.0000771  2.0083200  2
   2244   2241   2247   2248     1  0.0000000  1.2552000  3
   2244   2241   2247   2251     1  180.0000771  2.0083200  2
   2244   2241   2247   2251     1  0.0000000  1.2552000  3
   2247   2241   2244   2264     1  0.0000000  0.6508444  3
   2247   2248   2257   2261     1  0.0000000  0.6508444  3
   2247   2251   2254   2260     1  0.0000000  0.6508444  3
   2248   2247   2251   2254     1  180.0000771  2.0083200  2
   2248   2247   2251   2254     1  0.0000000  1.2552000  3
   2248   2257   2261   2263     1  180.0000771  0.0000000  2
   2248   2257   2261   7302     1  0.0000000  0.2928800  2
   2248   2257   2261   7302     1  0.0000000  0.4184000  4
   2251   2247   2248   2257     1  180.0000771  2.0083200  2
   2251   2247   2248   2257     1  0.0000000  1.2552000  3
   2251   2254   2260   7229     1  0.0000000  0.2928800  2
   2251   2254   2260   7229     1  0.0000000  0.4184000  4
   2251   2254   2260   2262     1  180.0000771  0.0000000  2
   2254   2260   7229   7231     1  180.0000771  6.2760000  1
   2254   2260   7229   7231     1  0.0000000  0.0000000  2
   2257   2261   7302   7304     1  180.0000771  6.2760000  1
   2257   2261   7302   7304     1  0.0000000  0.0000000  2
   2260   7229   7231   7233     1  0.0000000  2.2175200  1
   2260   7229   7231   7233     1  0.0000000  0.0000000  2
   2260   7229   7231   7233     1  180.0000771  0.6276000  3
   2260   7229   7231   7233     1  180.0000771  2.0920000  4
   2261   7302   7304   7306     1  0.0000000  2.2175200  1
   2261   7302   7304   7306     1  0.0000000  0.0000000  2
   2261   7302   7304   7306     1  180.0000771  0.6276000  3
   2261   7302   7304   7306     1  180.0000771  2.0920000  4
   2262   2260   7229   7231     1  180.0000771  10.4600000  2
   2263   2261   7302   7304     1  180.0000771  10.4600000  2
   2266   2272   2273   2282     1  180.0000771  2.0083200  2
   2266   2272   2273   2282     1  0.0000000  1.2552000  3
   2266   2272   2276   2279     1  180.0000771  2.0083200  2
   2266   2272   2276   2279     1  0.0000000  1.2552000  3
   2269   2266   2272   2273     1  180.0000771  2.0083200  2
   2269   2266   2272   2273     1  0.0000000  1.2552000  3
   2269   2266   2272   2276     1  180.0000771  2.0083200  2
   2269   2266   2272   2276     1  0.0000000  1.2552000  3
   2272   2266   2269   2289     1  0.0000000  0.6508444  3
   2272   2273   2282   2286     1  0.0000000  0.6508444  3
   2272   2276   2279   2285     1  0.0000000  0.6508444  3
   2273   2272   2276   2279     1  180.0000771  2.0083200  2
   2273   2272   2276   2279     1  0.0000000  1.2552000  3
   2273   2282   2286   2288     1  180.0000771  0.0000000  2
   2273   2282   2286   7448     1  0.0000000  0.2928800  2
   2273   2282   2286   7448     1  0.0000000  0.4184000  4
   2276   2272   2273   2282     1  180.0000771  2.0083200  2
   2276   2272   2273   2282     1  0.0000000  1.2552000  3
   2276   2279   2285   7375     1  0.0000000  0.2928800  2
   2276   2279   2285   7375     1  0.0000000  0.4184000  4
   2276   2279   2285   2287     1  180.0000771  0.0000000  2
   2279   2285   7375   7377     1  180.0000771  6.2760000  1
   2279   2285   7375   7377     1  0.0000000  0.0000000  2
   2282   2286   7448   7450     1  180.0000771  6.2760000  1
   2282   2286   7448   7450     1  0.0000000  0.0000000  2
   2285   7375   7377   7379     1  0.0000000  2.2175200  1
   2285   7375   7377   7379     1  0.0000000  0.0000000  2
   2285   7375   7377   7379     1  180.0000771  0.6276000  3
   2285   7375   7377   7379     1  180.0000771  2.0920000  4
   2286   7448   7450   7452     1  0.0000000  2.2175200  1
   2286   7448   7450   7452     1  0.0000000  0.0000000  2
   2286   7448   7450   7452     1  180.0000771  0.6276000  3
   2286   7448   7450   7452     1  180.0000771  2.0920000  4
   2287   2285   7375   7377     1  180.0000771  10.4600000  2
   2288   2286   7448   7450     1  180.0000771  10.4600000  2
   2291   2297   2298   2307     1  180.0000771  2.0083200  2
   2291   2297   2298   2307     1  0.0000000  1.2552000  3
   2291   2297   2301   2304     1  180.0000771  2.0083200  2
   2291   2297   2301   2304     1  0.0000000  1.2552000  3
   2294   2291   2297   2298     1  180.0000771  2.0083200  2
   2294   2291   2297   2298     1  0.0000000  1.2552000  3
   2294   2291   2297   2301     1  180.0000771  2.0083200  2
   2294   2291   2297   2301     1  0.0000000  1.2552000  3
   2297   2291   2294   2314     1  0.0000000  0.6508444  3
   2297   2298   2307   2311     1  0.0000000  0.6508444  3
   2297   2301   2304   2310     1  0.0000000  0.6508444  3
   2298   2297   2301   2304     1  180.0000771  2.0083200  2
   2298   2297   2301   2304     1  0.0000000  1.2552000  3
   2298   2307   2311   2313     1  180.0000771  0.0000000  2
   2298   2307   2311   7594     1  0.0000000  0.2928800  2
   2298   2307   2311   7594     1  0.0000000  0.4184000  4
   2301   2297   2298   2307     1  180.0000771  2.0083200  2
   2301   2297   2298   2307     1  0.0000000  1.2552000  3
   2301   2304   2310   7521     1  0.0000000  0.2928800  2
   2301   2304   2310   7521     1  0.0000000  0.4184000  4
   2301   2304   2310   2312     1  180.0000771  0.0000000  2
   2304   2310   7521   7523     1  180.0000771  6.2760000  1
   2304   2310   7521   7523     1  0.0000000  0.0000000  2
   2307   2311   7594   7596     1  180.0000771  6.2760000  1
   2307   2311   7594   7596     1  0.0000000  0.0000000  2
   2310   7521   7523   7525     1  0.0000000  2.2175200  1
   2310   7521   7523   7525     1  0.0000000  0.0000000  2
   2310   7521   7523   7525     1  180.0000771  0.6276000  3
   2310   7521   7523   7525     1  180.0000771  2.0920000  4
   2311   7594   7596   7598     1  0.0000000  2.2175200  1
   2311   7594   7596   7598     1  0.0000000  0.0000000  2
   2311   7594   7596   7598     1  180.0000771  0.6276000  3
   2311   7594   7596   7598     1  180.0000771  2.0920000  4
   2312   2310   7521   7523     1  180.0000771  10.4600000  2
   2313   2311   7594   7596     1  180.0000771  10.4600000  2
   2316   2322   2323   2332     1  180.0000771  2.0083200  2
   2316   2322   2323   2332     1  0.0000000  1.2552000  3
   2316   2322   2326   2329     1  180.0000771  2.0083200  2
   2316   2322   2326   2329     1  0.0000000  1.2552000  3
   2319   2316   2322   2323     1  180.0000771  2.0083200  2
   2319   2316   2322   2323     1  0.0000000  1.2552000  3
   2319   2316   2322   2326     1  180.0000771  2.0083200  2
   2319   2316   2322   2326     1  0.0000000  1.2552000  3
   2322   2316   2319   2339     1  0.0000000  0.6508444  3
   2322   2323   2332   2336     1  0.0000000  0.6508444  3
   2322   2326   2329   2335     1  0.0000000  0.6508444  3
   2323   2322   2326   2329     1  180.0000771  2.0083200  2
   2323   2322   2326   2329     1  0.0000000  1.2552000  3
   2323   2332   2336   2338     1  180.0000771  0.0000000  2
   2323   2332   2336   7740     1  0.0000000  0.2928800  2
   2323   2332   2336   7740     1  0.0000000  0.4184000  4
   2326   2322   2323   2332     1  180.0000771  2.0083200  2
   2326   2322   2323   2332     1  0.0000000  1.2552000  3
   2326   2329   2335   7667     1  0.0000000  0.2928800  2
   2326   2329   2335   7667     1  0.0000000  0.4184000  4
   2326   2329   2335   2337     1  180.0000771  0.0000000  2
   2329   2335   7667   7669     1  180.0000771  6.2760000  1
   2329   2335   7667   7669     1  0.0000000  0.0000000  2
   2332   2336   7740   7742     1  180.0000771  6.2760000  1
   2332   2336   7740   7742     1  0.0000000  0.0000000  2
   2335   7667   7669   7671     1  0.0000000  2.2175200  1
   2335   7667   7669   7671     1  0.0000000  0.0000000  2
   2335   7667   7669   7671     1  180.0000771  0.6276000  3
   2335   7667   7669   7671     1  180.0000771  2.0920000  4
   2336   7740   7742   7744     1  0.0000000  2.2175200  1
   2336   7740   7742   7744     1  0.0000000  0.0000000  2
   2336   7740   7742   7744     1  180.0000771  0.6276000  3
   2336   7740   7742   7744     1  180.0000771  2.0920000  4
   2337   2335   7667   7669     1  180.0000771  10.4600000  2
   2338   2336   7740   7742     1  180.0000771  10.4600000  2
   2341   2347   2348   2357     1  180.0000771  2.0083200  2
   2341   2347   2348   2357     1  0.0000000  1.2552000  3
   2341   2347   2351   2354     1  180.0000771  2.0083200  2
   2341   2347   2351   2354     1  0.0000000  1.2552000  3
   2344   2341   2347   2348     1  180.0000771  2.0083200  2
   2344   2341   2347   2348     1  0.0000000  1.2552000  3
   2344   2341   2347   2351     1  180.0000771  2.0083200  2
   2344   2341   2347   2351     1  0.0000000  1.2552000  3
   2347   2341   2344   2364     1  0.0000000  0.6508444  3
   2347   2348   2357   2361     1  0.0000000  0.6508444  3
   2347   2351   2354   2360     1  0.0000000  0.6508444  3
   2348   2347   2351   2354     1  180.0000771  2.0083200  2
   2348   2347   2351   2354     1  0.0000000  1.2552000  3
   2348   2357   2361   2363     1  180.0000771  0.0000000  2
   2348   2357   2361   7886     1  0.0000000  0.2928800  2
   2348   2357   2361   7886     1  0.0000000  0.4184000  4
   2351   2347   2348   2357     1  180.0000771  2.0083200  2
   2351   2347   2348   2357     1  0.0000000  1.2552000  3
   2351   2354   2360   7813     1  0.0000000  0.2928800  2
   2351   2354   2360   7813     1  0.0000000  0.4184000  4
   2351   2354   2360   2362     1  180.0000771  0.0000000  2
   2354   2360   7813   7815     1  180.0000771  6.2760000  1
   2354   2360   7813   7815     1  0.0000000  0.0000000  2
   2357   2361   7886   7888     1  180.0000771  6.2760000  1
   2357   2361   7886   7888     1  0.0000000  0.0000000  2
   2360   7813   7815   7817     1  0.0000000  2.2175200  1
   2360   7813   7815   7817     1  0.0000000  0.0000000  2
   2360   7813   7815   7817     1  180.0000771  0.6276000  3
   2360   7813   7815   7817     1  180.0000771  2.0920000  4
   2361   7886   7888   7890     1  0.0000000  2.2175200  1
   2361   7886   7888   7890     1  0.0000000  0.0000000  2
   2361   7886   7888   7890     1  180.0000771  0.6276000  3
   2361   7886   7888   7890     1  180.0000771  2.0920000  4
   2362   2360   7813   7815     1  180.0000771  10.4600000  2
   2363   2361   7886   7888     1  180.0000771  10.4600000  2
   2366   2372   2373   2382     1  180.0000771  2.0083200  2
   2366   2372   2373   2382     1  0.0000000  1.2552000  3
   2366   2372   2376   2379     1  180.0000771  2.0083200  2
   2366   2372   2376   2379     1  0.0000000  1.2552000  3
   2369   2366   2372   2373     1  180.0000771  2.0083200  2
   2369   2366   2372   2373     1  0.0000000  1.2552000  3
   2369   2366   2372   2376     1  180.0000771  2.0083200  2
   2369   2366   2372   2376     1  0.0000000  1.2552000  3
   2372   2366   2369   2389     1  0.0000000  0.6508444  3
   2372   2373   2382   2386     1  0.0000000  0.6508444  3
   2372   2376   2379   2385     1  0.0000000  0.6508444  3
   2373   2372   2376   2379     1  180.0000771  2.0083200  2
   2373   2372   2376   2379     1  0.0000000  1.2552000  3
   2373   2382   2386   2388     1  180.0000771  0.0000000  2
   2373   2382   2386   8032     1  0.0000000  0.2928800  2
   2373   2382   2386   8032     1  0.0000000  0.4184000  4
   2376   2372   2373   2382     1  180.0000771  2.0083200  2
   2376   2372   2373   2382     1  0.0000000  1.2552000  3
   2376   2379   2385   7959     1  0.0000000  0.2928800  2
   2376   2379   2385   7959     1  0.0000000  0.4184000  4
   2376   2379   2385   2387     1  180.0000771  0.0000000  2
   2379   2385   7959   7961     1  180.0000771  6.2760000  1
   2379   2385   7959   7961     1  0.0000000  0.0000000  2
   2382   2386   8032   8034     1  180.0000771  6.2760000  1
   2382   2386   8032   8034     1  0.0000000  0.0000000  2
   2385   7959   7961   7963     1  0.0000000  2.2175200  1
   2385   7959   7961   7963     1  0.0000000  0.0000000  2
   2385   7959   7961   7963     1  180.0000771  0.6276000  3
   2385   7959   7961   7963     1  180.0000771  2.0920000  4
   2386   8032   8034   8036     1  0.0000000  2.2175200  1
   2386   8032   8034   8036     1  0.0000000  0.0000000  2
   2386   8032   8034   8036     1  180.0000771  0.6276000  3
   2386   8032   8034   8036     1  180.0000771  2.0920000  4
   2387   2385   7959   7961     1  180.0000771  10.4600000  2
   2388   2386   8032   8034     1  180.0000771  10.4600000  2
   2391   2397   2398   2407     1  180.0000771  2.0083200  2
   2391   2397   2398   2407     1  0.0000000  1.2552000  3
   2391   2397   2401   2404     1  180.0000771  2.0083200  2
   2391   2397   2401   2404     1  0.0000000  1.2552000  3
   2394   2391   2397   2398     1  180.0000771  2.0083200  2
   2394   2391   2397   2398     1  0.0000000  1.2552000  3
   2394   2391   2397   2401     1  180.0000771  2.0083200  2
   2394   2391   2397   2401     1  0.0000000  1.2552000  3
   2397   2391   2394   2414     1  0.0000000  0.6508444  3
   2397   2398   2407   2411     1  0.0000000  0.6508444  3
   2397   2401   2404   2410     1  0.0000000  0.6508444  3
   2398   2397   2401   2404     1  180.0000771  2.0083200  2
   2398   2397   2401   2404     1  0.0000000  1.2552000  3
   2398   2407   2411   2413     1  180.0000771  0.0000000  2
   2398   2407   2411   8178     1  0.0000000  0.2928800  2
   2398   2407   2411   8178     1  0.0000000  0.4184000  4
   2401   2397   2398   2407     1  180.0000771  2.0083200  2
   2401   2397   2398   2407     1  0.0000000  1.2552000  3
   2401   2404   2410   8105     1  0.0000000  0.2928800  2
   2401   2404   2410   8105     1  0.0000000  0.4184000  4
   2401   2404   2410   2412     1  180.0000771  0.0000000  2
   2404   2410   8105   8107     1  180.0000771  6.2760000  1
   2404   2410   8105   8107     1  0.0000000  0.0000000  2
   2407   2411   8178   8180     1  180.0000771  6.2760000  1
   2407   2411   8178   8180     1  0.0000000  0.0000000  2
   2410   8105   8107   8109     1  0.0000000  2.2175200  1
   2410   8105   8107   8109     1  0.0000000  0.0000000  2
   2410   8105   8107   8109     1  180.0000771  0.6276000  3
   2410   8105   8107   8109     1  180.0000771  2.0920000  4
   2411   8178   8180   8182     1  0.0000000  2.2175200  1
   2411   8178   8180   8182     1  0.0000000  0.0000000  2
   2411   8178   8180   8182     1  180.0000771  0.6276000  3
   2411   8178   8180   8182     1  180.0000771  2.0920000  4
   2412   2410   8105   8107     1  180.0000771  10.4600000  2
   2413   2411   8178   8180     1  180.0000771  10.4600000  2
   2416   2422   2423   2432     1  180.0000771  2.0083200  2
   2416   2422   2423   2432     1  0.0000000  1.2552000  3
   2416   2422   2426   2429     1  180.0000771  2.0083200  2
   2416   2422   2426   2429     1  0.0000000  1.2552000  3
   2419   2416   2422   2423     1  180.0000771  2.0083200  2
   2419   2416   2422   2423     1  0.0000000  1.2552000  3
   2419   2416   2422   2426     1  180.0000771  2.0083200  2
   2419   2416   2422   2426     1  0.0000000  1.2552000  3
   2422   2416   2419   2439     1  0.0000000  0.6508444  3
   2422   2423   2432   2436     1  0.0000000  0.6508444  3
   2422   2426   2429   2435     1  0.0000000  0.6508444  3
   2423   2422   2426   2429     1  180.0000771  2.0083200  2
   2423   2422   2426   2429     1  0.0000000  1.2552000  3
   2423   2432   2436   2438     1  180.0000771  0.0000000  2
   2423   2432   2436   8324     1  0.0000000  0.2928800  2
   2423   2432   2436   8324     1  0.0000000  0.4184000  4
   2426   2422   2423   2432     1  180.0000771  2.0083200  2
   2426   2422   2423   2432     1  0.0000000  1.2552000  3
   2426   2429   2435   8251     1  0.0000000  0.2928800  2
   2426   2429   2435   8251     1  0.0000000  0.4184000  4
   2426   2429   2435   2437     1  180.0000771  0.0000000  2
   2429   2435   8251   8253     1  180.0000771  6.2760000  1
   2429   2435   8251   8253     1  0.0000000  0.0000000  2
   2432   2436   8324   8326     1  180.0000771  6.2760000  1
   2432   2436   8324   8326     1  0.0000000  0.0000000  2
   2435   8251   8253   8255     1  0.0000000  2.2175200  1
   2435   8251   8253   8255     1  0.0000000  0.0000000  2
   2435   8251   8253   8255     1  180.0000771  0.6276000  3
   2435   8251   8253   8255     1  180.0000771  2.0920000  4
   2436   8324   8326   8328     1  0.0000000  2.2175200  1
   2436   8324   8326   8328     1  0.0000000  0.0000000  2
   2436   8324   8326   8328     1  180.0000771  0.6276000  3
   2436   8324   8326   8328     1  180.0000771  2.0920000  4
   2437   2435   8251   8253     1  180.0000771  10.4600000  2
   2438   2436   8324   8326     1  180.0000771  10.4600000  2
   2441   2447   2448   2457     1  180.0000771  2.0083200  2
   2441   2447   2448   2457     1  0.0000000  1.2552000  3
   2441   2447   2451   2454     1  180.0000771  2.0083200  2
   2441   2447   2451   2454     1  0.0000000  1.2552000  3
   2444   2441   2447   2448     1  180.0000771  2.0083200  2
   2444   2441   2447   2448     1  0.0000000  1.2552000  3
   2444   2441   2447   2451     1  180.0000771  2.0083200  2
   2444   2441   2447   2451     1  0.0000000  1.2552000  3
   2447   2441   2444   2464     1  0.0000000  0.6508444  3
   2447   2448   2457   2461     1  0.0000000  0.6508444  3
   2447   2451   2454   2460     1  0.0000000  0.6508444  3
   2448   2447   2451   2454     1  180.0000771  2.0083200  2
   2448   2447   2451   2454     1  0.0000000  1.2552000  3
   2448   2457   2461   2463     1  180.0000771  0.0000000  2
   2448   2457   2461   8470     1  0.0000000  0.2928800  2
   2448   2457   2461   8470     1  0.0000000  0.4184000  4
   2451   2447   2448   2457     1  180.0000771  2.0083200  2
   2451   2447   2448   2457     1  0.0000000  1.2552000  3
   2451   2454   2460   8397     1  0.0000000  0.2928800  2
   2451   2454   2460   8397     1  0.0000000  0.4184000  4
   2451   2454   2460   2462     1  180.0000771  0.0000000  2
   2454   2460   8397   8399     1  180.0000771  6.2760000  1
   2454   2460   8397   8399     1  0.0000000  0.0000000  2
   2457   2461   8470   8472     1  180.0000771  6.2760000  1
   2457   2461   8470   8472     1  0.0000000  0.0000000  2
   2460   8397   8399   8401     1  0.0000000  2.2175200  1
   2460   8397   8399   8401     1  0.0000000  0.0000000  2
   2460   8397   8399   8401     1  180.0000771  0.6276000  3
   2460   8397   8399   8401     1  180.0000771  2.0920000  4
   2461   8470   8472   8474     1  0.0000000  2.2175200  1
   2461   8470   8472   8474     1  0.0000000  0.0000000  2
   2461   8470   8472   8474     1  180.0000771  0.6276000  3
   2461   8470   8472   8474     1  180.0000771  2.0920000  4
   2462   2460   8397   8399     1  180.0000771  10.4600000  2
   2463   2461   8470   8472     1  180.0000771  10.4600000  2
   2466   2472   2473   2482     1  180.0000771  2.0083200  2
   2466   2472   2473   2482     1  0.0000000  1.2552000  3
   2466   2472   2476   2479     1  180.0000771  2.0083200  2
   2466   2472   2476   2479     1  0.0000000  1.2552000  3
   2469   2466   2472   2473     1  180.0000771  2.0083200  2
   2469   2466   2472   2473     1  0.0000000  1.2552000  3
   2469   2466   2472   2476     1  180.0000771  2.0083200  2
   2469   2466   2472   2476     1  0.0000000  1.2552000  3
   2472   2466   2469   2489     1  0.0000000  0.6508444  3
   2472   2473   2482   2486     1  0.0000000  0.6508444  3
   2472   2476   2479   2485     1  0.0000000  0.6508444  3
   2473   2472   2476   2479     1  180.0000771  2.0083200  2
   2473   2472   2476   2479     1  0.0000000  1.2552000  3
   2473   2482   2486   2488     1  180.0000771  0.0000000  2
   2473   2482   2486   8616     1  0.0000000  0.2928800  2
   2473   2482   2486   8616     1  0.0000000  0.4184000  4
   2476   2472   2473   2482     1  180.0000771  2.0083200  2
   2476   2472   2473   2482     1  0.0000000  1.2552000  3
   2476   2479   2485   8543     1  0.0000000  0.2928800  2
   2476   2479   2485   8543     1  0.0000000  0.4184000  4
   2476   2479   2485   2487     1  180.0000771  0.0000000  2
   2479   2485   8543   8545     1  180.0000771  6.2760000  1
   2479   2485   8543   8545     1  0.0000000  0.0000000  2
   2482   2486   8616   8618     1  180.0000771  6.2760000  1
   2482   2486   8616   8618     1  0.0000000  0.0000000  2
   2485   8543   8545   8547     1  0.0000000  2.2175200  1
   2485   8543   8545   8547     1  0.0000000  0.0000000  2
   2485   8543   8545   8547     1  180.0000771  0.6276000  3
   2485   8543   8545   8547     1  180.0000771  2.0920000  4
   2486   8616   8618   8620     1  0.0000000  2.2175200  1
   2486   8616   8618   8620     1  0.0000000  0.0000000  2
   2486   8616   8618   8620     1  180.0000771  0.6276000  3
   2486   8616   8618   8620     1  180.0000771  2.0920000  4
   2487   2485   8543   8545     1  180.0000771  10.4600000  2
   2488   2486   8616   8618     1  180.0000771  10.4600000  2
   2491   2497   2498   2507     1  180.0000771  2.0083200  2
   2491   2497   2498   2507     1  0.0000000  1.2552000  3
   2491   2497   2501   2504     1  180.0000771  2.0083200  2
   2491   2497   2501   2504     1  0.0000000  1.2552000  3
   2494   2491   2497   2498     1  180.0000771  2.0083200  2
   2494   2491   2497   2498     1  0.0000000  1.2552000  3
   2494   2491   2497   2501     1  180.0000771  2.0083200  2
   2494   2491   2497   2501     1  0.0000000  1.2552000  3
   2497   2491   2494   2514     1  0.0000000  0.6508444  3
   2497   2498   2507   2511     1  0.0000000  0.6508444  3
   2497   2501   2504   2510     1  0.0000000  0.6508444  3
   2498   2497   2501   2504     1  180.0000771  2.0083200  2
   2498   2497   2501   2504     1  0.0000000  1.2552000  3
   2498   2507   2511   2513     1  180.0000771  0.0000000  2
   2498   2507   2511   8762     1  0.0000000  0.2928800  2
   2498   2507   2511   8762     1  0.0000000  0.4184000  4
   2501   2497   2498   2507     1  180.0000771  2.0083200  2
   2501   2497   2498   2507     1  0.0000000  1.2552000  3
   2501   2504   2510   8689     1  0.0000000  0.2928800  2
   2501   2504   2510   8689     1  0.0000000  0.4184000  4
   2501   2504   2510   2512     1  180.0000771  0.0000000  2
   2504   2510   8689   8691     1  180.0000771  6.2760000  1
   2504   2510   8689   8691     1  0.0000000  0.0000000  2
   2507   2511   8762   8764     1  180.0000771  6.2760000  1
   2507   2511   8762   8764     1  0.0000000  0.0000000  2
   2510   8689   8691   8693     1  0.0000000  2.2175200  1
   2510   8689   8691   8693     1  0.0000000  0.0000000  2
   2510   8689   8691   8693     1  180.0000771  0.6276000  3
   2510   8689   8691   8693     1  180.0000771  2.0920000  4
   2511   8762   8764   8766     1  0.0000000  2.2175200  1
   2511   8762   8764   8766     1  0.0000000  0.0000000  2
   2511   8762   8764   8766     1  180.0000771  0.6276000  3
   2511   8762   8764   8766     1  180.0000771  2.0920000  4
   2512   2510   8689   8691     1  180.0000771  10.4600000  2
   2513   2511   8762   8764     1  180.0000771  10.4600000  2
   2516   2522   2523   2532     1  180.0000771  2.0083200  2
   2516   2522   2523   2532     1  0.0000000  1.2552000  3
   2516   2522   2526   2529     1  180.0000771  2.0083200  2
   2516   2522   2526   2529     1  0.0000000  1.2552000  3
   2519   2516   2522   2523     1  180.0000771  2.0083200  2
   2519   2516   2522   2523     1  0.0000000  1.2552000  3
   2519   2516   2522   2526     1  180.0000771  2.0083200  2
   2519   2516   2522   2526     1  0.0000000  1.2552000  3
   2522   2516   2519   2539     1  0.0000000  0.6508444  3
   2522   2523   2532   2536     1  0.0000000  0.6508444  3
   2522   2526   2529   2535     1  0.0000000  0.6508444  3
   2523   2522   2526   2529     1  180.0000771  2.0083200  2
   2523   2522   2526   2529     1  0.0000000  1.2552000  3
   2523   2532   2536   2538     1  180.0000771  0.0000000  2
   2523   2532   2536   8908     1  0.0000000  0.2928800  2
   2523   2532   2536   8908     1  0.0000000  0.4184000  4
   2526   2522   2523   2532     1  180.0000771  2.0083200  2
   2526   2522   2523   2532     1  0.0000000  1.2552000  3
   2526   2529   2535   8835     1  0.0000000  0.2928800  2
   2526   2529   2535   8835     1  0.0000000  0.4184000  4
   2526   2529   2535   2537     1  180.0000771  0.0000000  2
   2529   2535   8835   8837     1  180.0000771  6.2760000  1
   2529   2535   8835   8837     1  0.0000000  0.0000000  2
   2532   2536   8908   8910     1  180.0000771  6.2760000  1
   2532   2536   8908   8910     1  0.0000000  0.0000000  2
   2535   8835   8837   8839     1  0.0000000  2.2175200  1
   2535   8835   8837   8839     1  0.0000000  0.0000000  2
   2535   8835   8837   8839     1  180.0000771  0.6276000  3
   2535   8835   8837   8839     1  180.0000771  2.0920000  4
   2536   8908   8910   8912     1  0.0000000  2.2175200  1
   2536   8908   8910   8912     1  0.0000000  0.0000000  2
   2536   8908   8910   8912     1  180.0000771  0.6276000  3
   2536   8908   8910   8912     1  180.0000771  2.0920000  4
   2537   2535   8835   8837     1  180.0000771  10.4600000  2
   2538   2536   8908   8910     1  180.0000771  10.4600000  2
   2541   2547   2548   2557     1  180.0000771  2.0083200  2
   2541   2547   2548   2557     1  0.0000000  1.2552000  3
   2541   2547   2551   2554     1  180.0000771  2.0083200  2
   2541   2547   2551   2554     1  0.0000000  1.2552000  3
   2544   2541   2547   2548     1  180.0000771  2.0083200  2
   2544   2541   2547   2548     1  0.0000000  1.2552000  3
   2544   2541   2547   2551     1  180.0000771  2.0083200  2
   2544   2541   2547   2551     1  0.0000000  1.2552000  3
   2547   2541   2544   2564     1  0.0000000  0.6508444  3
   2547   2548   2557   2561     1  0.0000000  0.6508444  3
   2547   2551   2554   2560     1  0.0000000  0.6508444  3
   2548   2547   2551   2554     1  180.0000771  2.0083200  2
   2548   2547   2551   2554     1  0.0000000  1.2552000  3
   2548   2557   2561   2563     1  180.0000771  0.0000000  2
   2548   2557   2561   9054     1  0.0000000  0.2928800  2
   2548   2557   2561   9054     1  0.0000000  0.4184000  4
   2551   2547   2548   2557     1  180.0000771  2.0083200  2
   2551   2547   2548   2557     1  0.0000000  1.2552000  3
   2551   2554   2560   8981     1  0.0000000  0.2928800  2
   2551   2554   2560   8981     1  0.0000000  0.4184000  4
   2551   2554   2560   2562     1  180.0000771  0.0000000  2
   2554   2560   8981   8983     1  180.0000771  6.2760000  1
   2554   2560   8981   8983     1  0.0000000  0.0000000  2
   2557   2561   9054   9056     1  180.0000771  6.2760000  1
   2557   2561   9054   9056     1  0.0000000  0.0000000  2
   2560   8981   8983   8985     1  0.0000000  2.2175200  1
   2560   8981   8983   8985     1  0.0000000  0.0000000  2
   2560   8981   8983   8985     1  180.0000771  0.6276000  3
   2560   8981   8983   8985     1  180.0000771  2.0920000  4
   2561   9054   9056   9058     1  0.0000000  2.2175200  1
   2561   9054   9056   9058     1  0.0000000  0.0000000  2
   2561   9054   9056   9058     1  180.0000771  0.6276000  3
   2561   9054   9056   9058     1  180.0000771  2.0920000  4
   2562   2560   8981   8983     1  180.0000771  10.4600000  2
   2563   2561   9054   9056     1  180.0000771  10.4600000  2
   2566   2572   2573   2582     1  180.0000771  2.0083200  2
   2566   2572   2573   2582     1  0.0000000  1.2552000  3
   2566   2572   2576   2579     1  180.0000771  2.0083200  2
   2566   2572   2576   2579     1  0.0000000  1.2552000  3
   2569   2566   2572   2573     1  180.0000771  2.0083200  2
   2569   2566   2572   2573     1  0.0000000  1.2552000  3
   2569   2566   2572   2576     1  180.0000771  2.0083200  2
   2569   2566   2572   2576     1  0.0000000  1.2552000  3
   2572   2566   2569   2589     1  0.0000000  0.6508444  3
   2572   2573   2582   2586     1  0.0000000  0.6508444  3
   2572   2576   2579   2585     1  0.0000000  0.6508444  3
   2573   2572   2576   2579     1  180.0000771  2.0083200  2
   2573   2572   2576   2579     1  0.0000000  1.2552000  3
   2573   2582   2586   2588     1  180.0000771  0.0000000  2
   2573   2582   2586   9200     1  0.0000000  0.2928800  2
   2573   2582   2586   9200     1  0.0000000  0.4184000  4
   2576   2572   2573   2582     1  180.0000771  2.0083200  2
   2576   2572   2573   2582     1  0.0000000  1.2552000  3
   2576   2579   2585   9127     1  0.0000000  0.2928800  2
   2576   2579   2585   9127     1  0.0000000  0.4184000  4
   2576   2579   2585   2587     1  180.0000771  0.0000000  2
   2579   2585   9127   9129     1  180.0000771  6.2760000  1
   2579   2585   9127   9129     1  0.0000000  0.0000000  2
   2582   2586   9200   9202     1  180.0000771  6.2760000  1
   2582   2586   9200   9202     1  0.0000000  0.0000000  2
   2585   9127   9129   9131     1  0.0000000  2.2175200  1
   2585   9127   9129   9131     1  0.0000000  0.0000000  2
   2585   9127   9129   9131     1  180.0000771  0.6276000  3
   2585   9127   9129   9131     1  180.0000771  2.0920000  4
   2586   9200   9202   9204     1  0.0000000  2.2175200  1
   2586   9200   9202   9204     1  0.0000000  0.0000000  2
   2586   9200   9202   9204     1  180.0000771  0.6276000  3
   2586   9200   9202   9204     1  180.0000771  2.0920000  4
   2587   2585   9127   9129     1  180.0000771  10.4600000  2
   2588   2586   9200   9202     1  180.0000771  10.4600000  2
   2591   2597   2598   2607     1  180.0000771  2.0083200  2
   2591   2597   2598   2607     1  0.0000000  1.2552000  3
   2591   2597   2601   2604     1  180.0000771  2.0083200  2
   2591   2597   2601   2604     1  0.0000000  1.2552000  3
   2594   2591   2597   2598     1  180.0000771  2.0083200  2
   2594   2591   2597   2598     1  0.0000000  1.2552000  3
   2594   2591   2597   2601     1  180.0000771  2.0083200  2
   2594   2591   2597   2601     1  0.0000000  1.2552000  3
   2597   2591   2594   2614     1  0.0000000  0.6508444  3
   2597   2598   2607   2611     1  0.0000000  0.6508444  3
   2597   2601   2604   2610     1  0.0000000  0.6508444  3
   2598   2597   2601   2604     1  180.0000771  2.0083200  2
   2598   2597   2601   2604     1  0.0000000  1.2552000  3
   2598   2607   2611   2613     1  180.0000771  0.0000000  2
   2598   2607   2611   9346     1  0.0000000  0.2928800  2
   2598   2607   2611   9346     1  0.0000000  0.4184000  4
   2601   2597   2598   2607     1  180.0000771  2.0083200  2
   2601   2597   2598   2607     1  0.0000000  1.2552000  3
   2601   2604   2610   9273     1  0.0000000  0.2928800  2
   2601   2604   2610   9273     1  0.0000000  0.4184000  4
   2601   2604   2610   2612     1  180.0000771  0.0000000  2
   2604   2610   9273   9275     1  180.0000771  6.2760000  1
   2604   2610   9273   9275     1  0.0000000  0.0000000  2
   2607   2611   9346   9348     1  180.0000771  6.2760000  1
   2607   2611   9346   9348     1  0.0000000  0.0000000  2
   2610   9273   9275   9277     1  0.0000000  2.2175200  1
   2610   9273   9275   9277     1  0.0000000  0.0000000  2
   2610   9273   9275   9277     1  180.0000771  0.6276000  3
   2610   9273   9275   9277     1  180.0000771  2.0920000  4
   2611   9346   9348   9350     1  0.0000000  2.2175200  1
   2611   9346   9348   9350     1  0.0000000  0.0000000  2
   2611   9346   9348   9350     1  180.0000771  0.6276000  3
   2611   9346   9348   9350     1  180.0000771  2.0920000  4
   2612   2610   9273   9275     1  180.0000771  10.4600000  2
   2613   2611   9346   9348     1  180.0000771  10.4600000  2
   2616   2622   2623   2632     1  180.0000771  2.0083200  2
   2616   2622   2623   2632     1  0.0000000  1.2552000  3
   2616   2622   2626   2629     1  180.0000771  2.0083200  2
   2616   2622   2626   2629     1  0.0000000  1.2552000  3
   2619   2616   2622   2623     1  180.0000771  2.0083200  2
   2619   2616   2622   2623     1  0.0000000  1.2552000  3
   2619   2616   2622   2626     1  180.0000771  2.0083200  2
   2619   2616   2622   2626     1  0.0000000  1.2552000  3
   2622   2616   2619   2639     1  0.0000000  0.6508444  3
   2622   2623   2632   2636     1  0.0000000  0.6508444  3
   2622   2626   2629   2635     1  0.0000000  0.6508444  3
   2623   2622   2626   2629     1  180.0000771  2.0083200  2
   2623   2622   2626   2629     1  0.0000000  1.2552000  3
   2623   2632   2636   2638     1  180.0000771  0.0000000  2
   2623   2632   2636   9492     1  0.0000000  0.2928800  2
   2623   2632   2636   9492     1  0.0000000  0.4184000  4
   2626   2622   2623   2632     1  180.0000771  2.0083200  2
   2626   2622   2623   2632     1  0.0000000  1.2552000  3
   2626   2629   2635   9419     1  0.0000000  0.2928800  2
   2626   2629   2635   9419     1  0.0000000  0.4184000  4
   2626   2629   2635   2637     1  180.0000771  0.0000000  2
   2629   2635   9419   9421     1  180.0000771  6.2760000  1
   2629   2635   9419   9421     1  0.0000000  0.0000000  2
   2632   2636   9492   9494     1  180.0000771  6.2760000  1
   2632   2636   9492   9494     1  0.0000000  0.0000000  2
   2635   9419   9421   9423     1  0.0000000  2.2175200  1
   2635   9419   9421   9423     1  0.0000000  0.0000000  2
   2635   9419   9421   9423     1  180.0000771  0.6276000  3
   2635   9419   9421   9423     1  180.0000771  2.0920000  4
   2636   9492   9494   9496     1  0.0000000  2.2175200  1
   2636   9492   9494   9496     1  0.0000000  0.0000000  2
   2636   9492   9494   9496     1  180.0000771  0.6276000  3
   2636   9492   9494   9496     1  180.0000771  2.0920000  4
   2637   2635   9419   9421     1  180.0000771  10.4600000  2
   2638   2636   9492   9494     1  180.0000771  10.4600000  2
   2641   2647   2648   2657     1  180.0000771  2.0083200  2
   2641   2647   2648   2657     1  0.0000000  1.2552000  3
   2641   2647   2651   2654     1  180.0000771  2.0083200  2
   2641   2647   2651   2654     1  0.0000000  1.2552000  3
   2644   2641   2647   2648     1  180.0000771  2.0083200  2
   2644   2641   2647   2648     1  0.0000000  1.2552000  3
   2644   2641   2647   2651     1  180.0000771  2.0083200  2
   2644   2641   2647   2651     1  0.0000000  1.2552000  3
   2647   2641   2644   2664     1  0.0000000  0.6508444  3
   2647   2648   2657   2661     1  0.0000000  0.6508444  3
   2647   2651   2654   2660     1  0.0000000  0.6508444  3
   2648   2647   2651   2654     1  180.0000771  2.0083200  2
   2648   2647   2651   2654     1  0.0000000  1.2552000  3
   2648   2657   2661   2663     1  180.0000771  0.0000000  2
   2648   2657   2661   9638     1  0.0000000  0.2928800  2
   2648   2657   2661   9638     1  0.0000000  0.4184000  4
   2651   2647   2648   2657     1  180.0000771  2.0083200  2
   2651   2647   2648   2657     1  0.0000000  1.2552000  3
   2651   2654   2660   9565     1  0.0000000  0.2928800  2
   2651   2654   2660   9565     1  0.0000000  0.4184000  4
   2651   2654   2660   2662     1  180.0000771  0.0000000  2
   2654   2660   9565   9567     1  180.0000771  6.2760000  1
   2654   2660   9565   9567     1  0.0000000  0.0000000  2
   2657   2661   9638   9640     1  180.0000771  6.2760000  1
   2657   2661   9638   9640     1  0.0000000  0.0000000  2
   2660   9565   9567   9569     1  0.0000000  2.2175200  1
   2660   9565   9567   9569     1  0.0000000  0.0000000  2
   2660   9565   9567   9569     1  180.0000771  0.6276000  3
   2660   9565   9567   9569     1  180.0000771  2.0920000  4
   2661   9638   9640   9642     1  0.0000000  2.2175200  1
   2661   9638   9640   9642     1  0.0000000  0.0000000  2
   2661   9638   9640   9642     1  180.0000771  0.6276000  3
   2661   9638   9640   9642     1  180.0000771  2.0920000  4
   2662   2660   9565   9567     1  180.0000771  10.4600000  2
   2663   2661   9638   9640     1  180.0000771  10.4600000  2
   2666   2672   2673   2682     1  180.0000771  2.0083200  2
   2666   2672   2673   2682     1  0.0000000  1.2552000  3
   2666   2672   2676   2679     1  180.0000771  2.0083200  2
   2666   2672   2676   2679     1  0.0000000  1.2552000  3
   2669   2666   2672   2673     1  180.0000771  2.0083200  2
   2669   2666   2672   2673     1  0.0000000  1.2552000  3
   2669   2666   2672   2676     1  180.0000771  2.0083200  2
   2669   2666   2672   2676     1  0.0000000  1.2552000  3
   2672   2666   2669   2689     1  0.0000000  0.6508444  3
   2672   2673   2682   2686     1  0.0000000  0.6508444  3
   2672   2676   2679   2685     1  0.0000000  0.6508444  3
   2673   2672   2676   2679     1  180.0000771  2.0083200  2
   2673   2672   2676   2679     1  0.0000000  1.2552000  3
   2673   2682   2686   2688     1  180.0000771  0.0000000  2
   2673   2682   2686   9784     1  0.0000000  0.2928800  2
   2673   2682   2686   9784     1  0.0000000  0.4184000  4
   2676   2672   2673   2682     1  180.0000771  2.0083200  2
   2676   2672   2673   2682     1  0.0000000  1.2552000  3
   2676   2679   2685   9711     1  0.0000000  0.2928800  2
   2676   2679   2685   9711     1  0.0000000  0.4184000  4
   2676   2679   2685   2687     1  180.0000771  0.0000000  2
   2679   2685   9711   9713     1  180.0000771  6.2760000  1
   2679   2685   9711   9713     1  0.0000000  0.0000000  2
   2682   2686   9784   9786     1  180.0000771  6.2760000  1
   2682   2686   9784   9786     1  0.0000000  0.0000000  2
   2685   9711   9713   9715     1  0.0000000  2.2175200  1
   2685   9711   9713   9715     1  0.0000000  0.0000000  2
   2685   9711   9713   9715     1  180.0000771  0.6276000  3
   2685   9711   9713   9715     1  180.0000771  2.0920000  4
   2686   9784   9786   9788     1  0.0000000  2.2175200  1
   2686   9784   9786   9788     1  0.0000000  0.0000000  2
   2686   9784   9786   9788     1  180.0000771  0.6276000  3
   2686   9784   9786   9788     1  180.0000771  2.0920000  4
   2687   2685   9711   9713     1  180.0000771  10.4600000  2
   2688   2686   9784   9786     1  180.0000771  10.4600000  2
   2691   2697   2698   2707     1  180.0000771  2.0083200  2
   2691   2697   2698   2707     1  0.0000000  1.2552000  3
   2691   2697   2701   2704     1  180.0000771  2.0083200  2
   2691   2697   2701   2704     1  0.0000000  1.2552000  3
   2694   2691   2697   2698     1  180.0000771  2.0083200  2
   2694   2691   2697   2698     1  0.0000000  1.2552000  3
   2694   2691   2697   2701     1  180.0000771  2.0083200  2
   2694   2691   2697   2701     1  0.0000000  1.2552000  3
   2697   2691   2694   2714     1  0.0000000  0.6508444  3
   2697   2698   2707   2711     1  0.0000000  0.6508444  3
   2697   2701   2704   2710     1  0.0000000  0.6508444  3
   2698   2697   2701   2704     1  180.0000771  2.0083200  2
   2698   2697   2701   2704     1  0.0000000  1.2552000  3
   2698   2707   2711   2713     1  180.0000771  0.0000000  2
   2698   2707   2711   9930     1  0.0000000  0.2928800  2
   2698   2707   2711   9930     1  0.0000000  0.4184000  4
   2701   2697   2698   2707     1  180.0000771  2.0083200  2
   2701   2697   2698   2707     1  0.0000000  1.2552000  3
   2701   2704   2710   9857     1  0.0000000  0.2928800  2
   2701   2704   2710   9857     1  0.0000000  0.4184000  4
   2701   2704   2710   2712     1  180.0000771  0.0000000  2
   2704   2710   9857   9859     1  180.0000771  6.2760000  1
   2704   2710   9857   9859     1  0.0000000  0.0000000  2
   2707   2711   9930   9932     1  180.0000771  6.2760000  1
   2707   2711   9930   9932     1  0.0000000  0.0000000  2
   2710   9857   9859   9861     1  0.0000000  2.2175200  1
   2710   9857   9859   9861     1  0.0000000  0.0000000  2
   2710   9857   9859   9861     1  180.0000771  0.6276000  3
   2710   9857   9859   9861     1  180.0000771  2.0920000  4
   2711   9930   9932   9934     1  0.0000000  2.2175200  1
   2711   9930   9932   9934     1  0.0000000  0.0000000  2
   2711   9930   9932   9934     1  180.0000771  0.6276000  3
   2711   9930   9932   9934     1  180.0000771  2.0920000  4
   2712   2710   9857   9859     1  180.0000771  10.4600000  2
   2713   2711   9930   9932     1  180.0000771  10.4600000  2
   2716   2722   2723   2732     1  180.0000771  2.0083200  2
   2716   2722   2723   2732     1  0.0000000  1.2552000  3
   2716   2722   2726   2729     1  180.0000771  2.0083200  2
   2716   2722   2726   2729     1  0.0000000  1.2552000  3
   2719   2716   2722   2723     1  180.0000771  2.0083200  2
   2719   2716   2722   2723     1  0.0000000  1.2552000  3
   2719   2716   2722   2726     1  180.0000771  2.0083200  2
   2719   2716   2722   2726     1  0.0000000  1.2552000  3
   2722   2716   2719   2739     1  0.0000000  0.6508444  3
   2722   2723   2732   2736     1  0.0000000  0.6508444  3
   2722   2726   2729   2735     1  0.0000000  0.6508444  3
   2723   2722   2726   2729     1  180.0000771  2.0083200  2
   2723   2722   2726   2729     1  0.0000000  1.2552000  3
   2723   2732   2736   2738     1  180.0000771  0.0000000  2
   2723   2732   2736  10076     1  0.0000000  0.2928800  2
   2723   2732   2736  10076     1  0.0000000  0.4184000  4
   2726   2722   2723   2732     1  180.0000771  2.0083200  2
   2726   2722   2723   2732     1  0.0000000  1.2552000  3
   2726   2729   2735  10003     1  0.0000000  0.2928800  2
   2726   2729   2735  10003     1  0.0000000  0.4184000  4
   2726   2729   2735   2737     1  180.0000771  0.0000000  2
   2729   2735  10003  10005     1  180.0000771  6.2760000  1
   2729   2735  10003  10005     1  0.0000000  0.0000000  2
   2732   2736  10076  10078     1  180.0000771  6.2760000  1
   2732   2736  10076  10078     1  0.0000000  0.0000000  2
   2735  10003  10005  10007     1  0.0000000  2.2175200  1
   2735  10003  10005  10007     1  0.0000000  0.0000000  2
   2735  10003  10005  10007     1  180.0000771  0.6276000  3
   2735  10003  10005  10007     1  180.0000771  2.0920000  4
   2736  10076  10078  10080     1  0.0000000  2.2175200  1
   2736  10076  10078  10080     1  0.0000000  0.0000000  2
   2736  10076  10078  10080     1  180.0000771  0.6276000  3
   2736  10076  10078  10080     1  180.0000771  2.0920000  4
   2737   2735  10003  10005     1  180.0000771  10.4600000  2
   2738   2736  10076  10078     1  180.0000771  10.4600000  2
   2741   2747   2748   2757     1  180.0000771  2.0083200  2
   2741   2747   2748   2757     1  0.0000000  1.2552000  3
   2741   2747   2751   2754     1  180.0000771  2.0083200  2
   2741   2747   2751   2754     1  0.0000000  1.2552000  3
   2744   2741   2747   2748     1  180.0000771  2.0083200  2
   2744   2741   2747   2748     1  0.0000000  1.2552000  3
   2744   2741   2747   2751     1  180.0000771  2.0083200  2
   2744   2741   2747   2751     1  0.0000000  1.2552000  3
   2747   2741   2744   2764     1  0.0000000  0.6508444  3
   2747   2748   2757   2761     1  0.0000000  0.6508444  3
   2747   2751   2754   2760     1  0.0000000  0.6508444  3
   2748   2747   2751   2754     1  180.0000771  2.0083200  2
   2748   2747   2751   2754     1  0.0000000  1.2552000  3
   2748   2757   2761   2763     1  180.0000771  0.0000000  2
   2748   2757   2761  10222     1  0.0000000  0.2928800  2
   2748   2757   2761  10222     1  0.0000000  0.4184000  4
   2751   2747   2748   2757     1  180.0000771  2.0083200  2
   2751   2747   2748   2757     1  0.0000000  1.2552000  3
   2751   2754   2760  10149     1  0.0000000  0.2928800  2
   2751   2754   2760  10149     1  0.0000000  0.4184000  4
   2751   2754   2760   2762     1  180.0000771  0.0000000  2
   2754   2760  10149  10151     1  180.0000771  6.2760000  1
   2754   2760  10149  10151     1  0.0000000  0.0000000  2
   2757   2761  10222  10224     1  180.0000771  6.2760000  1
   2757   2761  10222  10224     1  0.0000000  0.0000000  2
   2760  10149  10151  10153     1  0.0000000  2.2175200  1
   2760  10149  10151  10153     1  0.0000000  0.0000000  2
   2760  10149  10151  10153     1  180.0000771  0.6276000  3
   2760  10149  10151  10153     1  180.0000771  2.0920000  4
   2761  10222  10224  10226     1  0.0000000  2.2175200  1
   2761  10222  10224  10226     1  0.0000000  0.0000000  2
   2761  10222  10224  10226     1  180.0000771  0.6276000  3
   2761  10222  10224  10226     1  180.0000771  2.0920000  4
   2762   2760  10149  10151     1  180.0000771  10.4600000  2
   2763   2761  10222  10224     1  180.0000771  10.4600000  2
   2766   2772   2773   2782     1  180.0000771  2.0083200  2
   2766   2772   2773   2782     1  0.0000000  1.2552000  3
   2766   2772   2776   2779     1  180.0000771  2.0083200  2
   2766   2772   2776   2779     1  0.0000000  1.2552000  3
   2769   2766   2772   2773     1  180.0000771  2.0083200  2
   2769   2766   2772   2773     1  0.0000000  1.2552000  3
   2769   2766   2772   2776     1  180.0000771  2.0083200  2
   2769   2766   2772   2776     1  0.0000000  1.2552000  3
   2772   2766   2769   2789     1  0.0000000  0.6508444  3
   2772   2773   2782   2786     1  0.0000000  0.6508444  3
   2772   2776   2779   2785     1  0.0000000  0.6508444  3
   2773   2772   2776   2779     1  180.0000771  2.0083200  2
   2773   2772   2776   2779     1  0.0000000  1.2552000  3
   2773   2782   2786   2788     1  180.0000771  0.0000000  2
   2773   2782   2786  10368     1  0.0000000  0.2928800  2
   2773   2782   2786  10368     1  0.0000000  0.4184000  4
   2776   2772   2773   2782     1  180.0000771  2.0083200  2
   2776   2772   2773   2782     1  0.0000000  1.2552000  3
   2776   2779   2785  10295     1  0.0000000  0.2928800  2
   2776   2779   2785  10295     1  0.0000000  0.4184000  4
   2776   2779   2785   2787     1  180.0000771  0.0000000  2
   2779   2785  10295  10297     1  180.0000771  6.2760000  1
   2779   2785  10295  10297     1  0.0000000  0.0000000  2
   2782   2786  10368  10370     1  180.0000771  6.2760000  1
   2782   2786  10368  10370     1  0.0000000  0.0000000  2
   2785  10295  10297  10299     1  0.0000000  2.2175200  1
   2785  10295  10297  10299     1  0.0000000  0.0000000  2
   2785  10295  10297  10299     1  180.0000771  0.6276000  3
   2785  10295  10297  10299     1  180.0000771  2.0920000  4
   2786  10368  10370  10372     1  0.0000000  2.2175200  1
   2786  10368  10370  10372     1  0.0000000  0.0000000  2
   2786  10368  10370  10372     1  180.0000771  0.6276000  3
   2786  10368  10370  10372     1  180.0000771  2.0920000  4
   2787   2785  10295  10297     1  180.0000771  10.4600000  2
   2788   2786  10368  10370     1  180.0000771  10.4600000  2
   2791   2797   2798   2807     1  180.0000771  2.0083200  2
   2791   2797   2798   2807     1  0.0000000  1.2552000  3
   2791   2797   2801   2804     1  180.0000771  2.0083200  2
   2791   2797   2801   2804     1  0.0000000  1.2552000  3
   2794   2791   2797   2798     1  180.0000771  2.0083200  2
   2794   2791   2797   2798     1  0.0000000  1.2552000  3
   2794   2791   2797   2801     1  180.0000771  2.0083200  2
   2794   2791   2797   2801     1  0.0000000  1.2552000  3
   2797   2791   2794   2814     1  0.0000000  0.6508444  3
   2797   2798   2807   2811     1  0.0000000  0.6508444  3
   2797   2801   2804   2810     1  0.0000000  0.6508444  3
   2798   2797   2801   2804     1  180.0000771  2.0083200  2
   2798   2797   2801   2804     1  0.0000000  1.2552000  3
   2798   2807   2811   2813     1  180.0000771  0.0000000  2
   2798   2807   2811  10514     1  0.0000000  0.2928800  2
   2798   2807   2811  10514     1  0.0000000  0.4184000  4
   2801   2797   2798   2807     1  180.0000771  2.0083200  2
   2801   2797   2798   2807     1  0.0000000  1.2552000  3
   2801   2804   2810  10441     1  0.0000000  0.2928800  2
   2801   2804   2810  10441     1  0.0000000  0.4184000  4
   2801   2804   2810   2812     1  180.0000771  0.0000000  2
   2804   2810  10441  10443     1  180.0000771  6.2760000  1
   2804   2810  10441  10443     1  0.0000000  0.0000000  2
   2807   2811  10514  10516     1  180.0000771  6.2760000  1
   2807   2811  10514  10516     1  0.0000000  0.0000000  2
   2810  10441  10443  10445     1  0.0000000  2.2175200  1
   2810  10441  10443  10445     1  0.0000000  0.0000000  2
   2810  10441  10443  10445     1  180.0000771  0.6276000  3
   2810  10441  10443  10445     1  180.0000771  2.0920000  4
   2811  10514  10516  10518     1  0.0000000  2.2175200  1
   2811  10514  10516  10518     1  0.0000000  0.0000000  2
   2811  10514  10516  10518     1  180.0000771  0.6276000  3
   2811  10514  10516  10518     1  180.0000771  2.0920000  4
   2812   2810  10441  10443     1  180.0000771  10.4600000  2
   2813   2811  10514  10516     1  180.0000771  10.4600000  2
   2816   2822   2823   2832     1  180.0000771  2.0083200  2
   2816   2822   2823   2832     1  0.0000000  1.2552000  3
   2816   2822   2826   2829     1  180.0000771  2.0083200  2
   2816   2822   2826   2829     1  0.0000000  1.2552000  3
   2819   2816   2822   2823     1  180.0000771  2.0083200  2
   2819   2816   2822   2823     1  0.0000000  1.2552000  3
   2819   2816   2822   2826     1  180.0000771  2.0083200  2
   2819   2816   2822   2826     1  0.0000000  1.2552000  3
   2822   2816   2819   2839     1  0.0000000  0.6508444  3
   2822   2823   2832   2836     1  0.0000000  0.6508444  3
   2822   2826   2829   2835     1  0.0000000  0.6508444  3
   2823   2822   2826   2829     1  180.0000771  2.0083200  2
   2823   2822   2826   2829     1  0.0000000  1.2552000  3
   2823   2832   2836   2838     1  180.0000771  0.0000000  2
   2823   2832   2836  10660     1  0.0000000  0.2928800  2
   2823   2832   2836  10660     1  0.0000000  0.4184000  4
   2826   2822   2823   2832     1  180.0000771  2.0083200  2
   2826   2822   2823   2832     1  0.0000000  1.2552000  3
   2826   2829   2835  10587     1  0.0000000  0.2928800  2
   2826   2829   2835  10587     1  0.0000000  0.4184000  4
   2826   2829   2835   2837     1  180.0000771  0.0000000  2
   2829   2835  10587  10589     1  180.0000771  6.2760000  1
   2829   2835  10587  10589     1  0.0000000  0.0000000  2
   2832   2836  10660  10662     1  180.0000771  6.2760000  1
   2832   2836  10660  10662     1  0.0000000  0.0000000  2
   2835  10587  10589  10591     1  0.0000000  2.2175200  1
   2835  10587  10589  10591     1  0.0000000  0.0000000  2
   2835  10587  10589  10591     1  180.0000771  0.6276000  3
   2835  10587  10589  10591     1  180.0000771  2.0920000  4
   2836  10660  10662  10664     1  0.0000000  2.2175200  1
   2836  10660  10662  10664     1  0.0000000  0.0000000  2
   2836  10660  10662  10664     1  180.0000771  0.6276000  3
   2836  10660  10662  10664     1  180.0000771  2.0920000  4
   2837   2835  10587  10589     1  180.0000771  10.4600000  2
   2838   2836  10660  10662     1  180.0000771  10.4600000  2
   2841   2847   2848   2857     1  180.0000771  2.0083200  2
   2841   2847   2848   2857     1  0.0000000  1.2552000  3
   2841   2847   2851   2854     1  180.0000771  2.0083200  2
   2841   2847   2851   2854     1  0.0000000  1.2552000  3
   2844   2841   2847   2848     1  180.0000771  2.0083200  2
   2844   2841   2847   2848     1  0.0000000  1.2552000  3
   2844   2841   2847   2851     1  180.0000771  2.0083200  2
   2844   2841   2847   2851     1  0.0000000  1.2552000  3
   2847   2841   2844   2864     1  0.0000000  0.6508444  3
   2847   2848   2857   2861     1  0.0000000  0.6508444  3
   2847   2851   2854   2860     1  0.0000000  0.6508444  3
   2848   2847   2851   2854     1  180.0000771  2.0083200  2
   2848   2847   2851   2854     1  0.0000000  1.2552000  3
   2848   2857   2861   2863     1  180.0000771  0.0000000  2
   2848   2857   2861  10806     1  0.0000000  0.2928800  2
   2848   2857   2861  10806     1  0.0000000  0.4184000  4
   2851   2847   2848   2857     1  180.0000771  2.0083200  2
   2851   2847   2848   2857     1  0.0000000  1.2552000  3
   2851   2854   2860  10733     1  0.0000000  0.2928800  2
   2851   2854   2860  10733     1  0.0000000  0.4184000  4
   2851   2854   2860   2862     1  180.0000771  0.0000000  2
   2854   2860  10733  10735     1  180.0000771  6.2760000  1
   2854   2860  10733  10735     1  0.0000000  0.0000000  2
   2857   2861  10806  10808     1  180.0000771  6.2760000  1
   2857   2861  10806  10808     1  0.0000000  0.0000000  2
   2860  10733  10735  10737     1  0.0000000  2.2175200  1
   2860  10733  10735  10737     1  0.0000000  0.0000000  2
   2860  10733  10735  10737     1  180.0000771  0.6276000  3
   2860  10733  10735  10737     1  180.0000771  2.0920000  4
   2861  10806  10808  10810     1  0.0000000  2.2175200  1
   2861  10806  10808  10810     1  0.0000000  0.0000000  2
   2861  10806  10808  10810     1  180.0000771  0.6276000  3
   2861  10806  10808  10810     1  180.0000771  2.0920000  4
   2862   2860  10733  10735     1  180.0000771  10.4600000  2
   2863   2861  10806  10808     1  180.0000771  10.4600000  2
   2866   2872   2873   2882     1  180.0000771  2.0083200  2
   2866   2872   2873   2882     1  0.0000000  1.2552000  3
   2866   2872   2876   2879     1  180.0000771  2.0083200  2
   2866   2872   2876   2879     1  0.0000000  1.2552000  3
   2869   2866   2872   2873     1  180.0000771  2.0083200  2
   2869   2866   2872   2873     1  0.0000000  1.2552000  3
   2869   2866   2872   2876     1  180.0000771  2.0083200  2
   2869   2866   2872   2876     1  0.0000000  1.2552000  3
   2872   2866   2869   2889     1  0.0000000  0.6508444  3
   2872   2873   2882   2886     1  0.0000000  0.6508444  3
   2872   2876   2879   2885     1  0.0000000  0.6508444  3
   2873   2872   2876   2879     1  180.0000771  2.0083200  2
   2873   2872   2876   2879     1  0.0000000  1.2552000  3
   2873   2882   2886   2888     1  180.0000771  0.0000000  2
   2873   2882   2886  10952     1  0.0000000  0.2928800  2
   2873   2882   2886  10952     1  0.0000000  0.4184000  4
   2876   2872   2873   2882     1  180.0000771  2.0083200  2
   2876   2872   2873   2882     1  0.0000000  1.2552000  3
   2876   2879   2885  10879     1  0.0000000  0.2928800  2
   2876   2879   2885  10879     1  0.0000000  0.4184000  4
   2876   2879   2885   2887     1  180.0000771  0.0000000  2
   2879   2885  10879  10881     1  180.0000771  6.2760000  1
   2879   2885  10879  10881     1  0.0000000  0.0000000  2
   2882   2886  10952  10954     1  180.0000771  6.2760000  1
   2882   2886  10952  10954     1  0.0000000  0.0000000  2
   2885  10879  10881  10883     1  0.0000000  2.2175200  1
   2885  10879  10881  10883     1  0.0000000  0.0000000  2
   2885  10879  10881  10883     1  180.0000771  0.6276000  3
   2885  10879  10881  10883     1  180.0000771  2.0920000  4
   2886  10952  10954  10956     1  0.0000000  2.2175200  1
   2886  10952  10954  10956     1  0.0000000  0.0000000  2
   2886  10952  10954  10956     1  180.0000771  0.6276000  3
   2886  10952  10954  10956     1  180.0000771  2.0920000  4
   2887   2885  10879  10881     1  180.0000771  10.4600000  2
   2888   2886  10952  10954     1  180.0000771  10.4600000  2
   2891   2897   2898   2907     1  180.0000771  2.0083200  2
   2891   2897   2898   2907     1  0.0000000  1.2552000  3
   2891   2897   2901   2904     1  180.0000771  2.0083200  2
   2891   2897   2901   2904     1  0.0000000  1.2552000  3
   2894   2891   2897   2898     1  180.0000771  2.0083200  2
   2894   2891   2897   2898     1  0.0000000  1.2552000  3
   2894   2891   2897   2901     1  180.0000771  2.0083200  2
   2894   2891   2897   2901     1  0.0000000  1.2552000  3
   2897   2891   2894   2914     1  0.0000000  0.6508444  3
   2897   2898   2907   2911     1  0.0000000  0.6508444  3
   2897   2901   2904   2910     1  0.0000000  0.6508444  3
   2898   2897   2901   2904     1  180.0000771  2.0083200  2
   2898   2897   2901   2904     1  0.0000000  1.2552000  3
   2898   2907   2911   2913     1  180.0000771  0.0000000  2
   2898   2907   2911  11098     1  0.0000000  0.2928800  2
   2898   2907   2911  11098     1  0.0000000  0.4184000  4
   2901   2897   2898   2907     1  180.0000771  2.0083200  2
   2901   2897   2898   2907     1  0.0000000  1.2552000  3
   2901   2904   2910  11025     1  0.0000000  0.2928800  2
   2901   2904   2910  11025     1  0.0000000  0.4184000  4
   2901   2904   2910   2912     1  180.0000771  0.0000000  2
   2904   2910  11025  11027     1  180.0000771  6.2760000  1
   2904   2910  11025  11027     1  0.0000000  0.0000000  2
   2907   2911  11098  11100     1  180.0000771  6.2760000  1
   2907   2911  11098  11100     1  0.0000000  0.0000000  2
   2910  11025  11027  11029     1  0.0000000  2.2175200  1
   2910  11025  11027  11029     1  0.0000000  0.0000000  2
   2910  11025  11027  11029     1  180.0000771  0.6276000  3
   2910  11025  11027  11029     1  180.0000771  2.0920000  4
   2911  11098  11100  11102     1  0.0000000  2.2175200  1
   2911  11098  11100  11102     1  0.0000000  0.0000000  2
   2911  11098  11100  11102     1  180.0000771  0.6276000  3
   2911  11098  11100  11102     1  180.0000771  2.0920000  4
   2912   2910  11025  11027     1  180.0000771  10.4600000  2
   2913   2911  11098  11100     1  180.0000771  10.4600000  2
   2916   2922   2923   2932     1  180.0000771  2.0083200  2
   2916   2922   2923   2932     1  0.0000000  1.2552000  3
   2916   2922   2926   2929     1  180.0000771  2.0083200  2
   2916   2922   2926   2929     1  0.0000000  1.2552000  3
   2919   2916   2922   2923     1  180.0000771  2.0083200  2
   2919   2916   2922   2923     1  0.0000000  1.2552000  3
   2919   2916   2922   2926     1  180.0000771  2.0083200  2
   2919   2916   2922   2926     1  0.0000000  1.2552000  3
   2922   2916   2919   2939     1  0.0000000  0.6508444  3
   2922   2923   2932   2936     1  0.0000000  0.6508444  3
   2922   2926   2929   2935     1  0.0000000  0.6508444  3
   2923   2922   2926   2929     1  180.0000771  2.0083200  2
   2923   2922   2926   2929     1  0.0000000  1.2552000  3
   2923   2932   2936   2938     1  180.0000771  0.0000000  2
   2923   2932   2936  11244     1  0.0000000  0.2928800  2
   2923   2932   2936  11244     1  0.0000000  0.4184000  4
   2926   2922   2923   2932     1  180.0000771  2.0083200  2
   2926   2922   2923   2932     1  0.0000000  1.2552000  3
   2926   2929   2935  11171     1  0.0000000  0.2928800  2
   2926   2929   2935  11171     1  0.0000000  0.4184000  4
   2926   2929   2935   2937     1  180.0000771  0.0000000  2
   2929   2935  11171  11173     1  180.0000771  6.2760000  1
   2929   2935  11171  11173     1  0.0000000  0.0000000  2
   2932   2936  11244  11246     1  180.0000771  6.2760000  1
   2932   2936  11244  11246     1  0.0000000  0.0000000  2
   2935  11171  11173  11175     1  0.0000000  2.2175200  1
   2935  11171  11173  11175     1  0.0000000  0.0000000  2
   2935  11171  11173  11175     1  180.0000771  0.6276000  3
   2935  11171  11173  11175     1  180.0000771  2.0920000  4
   2936  11244  11246  11248     1  0.0000000  2.2175200  1
   2936  11244  11246  11248     1  0.0000000  0.0000000  2
   2936  11244  11246  11248     1  180.0000771  0.6276000  3
   2936  11244  11246  11248     1  180.0000771  2.0920000  4
   2937   2935  11171  11173     1  180.0000771  10.4600000  2
   2938   2936  11244  11246     1  180.0000771  10.4600000  2
   2941   2947   2948   2957     1  180.0000771  2.0083200  2
   2941   2947   2948   2957     1  0.0000000  1.2552000  3
   2941   2947   2951   2954     1  180.0000771  2.0083200  2
   2941   2947   2951   2954     1  0.0000000  1.2552000  3
   2944   2941   2947   2948     1  180.0000771  2.0083200  2
   2944   2941   2947   2948     1  0.0000000  1.2552000  3
   2944   2941   2947   2951     1  180.0000771  2.0083200  2
   2944   2941   2947   2951     1  0.0000000  1.2552000  3
   2947   2941   2944   2964     1  0.0000000  0.6508444  3
   2947   2948   2957   2961     1  0.0000000  0.6508444  3
   2947   2951   2954   2960     1  0.0000000  0.6508444  3
   2948   2947   2951   2954     1  180.0000771  2.0083200  2
   2948   2947   2951   2954     1  0.0000000  1.2552000  3
   2948   2957   2961   2963     1  180.0000771  0.0000000  2
   2948   2957   2961  11390     1  0.0000000  0.2928800  2
   2948   2957   2961  11390     1  0.0000000  0.4184000  4
   2951   2947   2948   2957     1  180.0000771  2.0083200  2
   2951   2947   2948   2957     1  0.0000000  1.2552000  3
   2951   2954   2960  11317     1  0.0000000  0.2928800  2
   2951   2954   2960  11317     1  0.0000000  0.4184000  4
   2951   2954   2960   2962     1  180.0000771  0.0000000  2
   2954   2960  11317  11319     1  180.0000771  6.2760000  1
   2954   2960  11317  11319     1  0.0000000  0.0000000  2
   2957   2961  11390  11392     1  180.0000771  6.2760000  1
   2957   2961  11390  11392     1  0.0000000  0.0000000  2
   2960  11317  11319  11321     1  0.0000000  2.2175200  1
   2960  11317  11319  11321     1  0.0000000  0.0000000  2
   2960  11317  11319  11321     1  180.0000771  0.6276000  3
   2960  11317  11319  11321     1  180.0000771  2.0920000  4
   2961  11390  11392  11394     1  0.0000000  2.2175200  1
   2961  11390  11392  11394     1  0.0000000  0.0000000  2
   2961  11390  11392  11394     1  180.0000771  0.6276000  3
   2961  11390  11392  11394     1  180.0000771  2.0920000  4
   2962   2960  11317  11319     1  180.0000771  10.4600000  2
   2963   2961  11390  11392     1  180.0000771  10.4600000  2
   2966   2972   2973   2982     1  180.0000771  2.0083200  2
   2966   2972   2973   2982     1  0.0000000  1.2552000  3
   2966   2972   2976   2979     1  180.0000771  2.0083200  2
   2966   2972   2976   2979     1  0.0000000  1.2552000  3
   2969   2966   2972   2973     1  180.0000771  2.0083200  2
   2969   2966   2972   2973     1  0.0000000  1.2552000  3
   2969   2966   2972   2976     1  180.0000771  2.0083200  2
   2969   2966   2972   2976     1  0.0000000  1.2552000  3
   2972   2966   2969   2989     1  0.0000000  0.6508444  3
   2972   2973   2982   2986     1  0.0000000  0.6508444  3
   2972   2976   2979   2985     1  0.0000000  0.6508444  3
   2973   2972   2976   2979     1  180.0000771  2.0083200  2
   2973   2972   2976   2979     1  0.0000000  1.2552000  3
   2973   2982   2986   2988     1  180.0000771  0.0000000  2
   2973   2982   2986  11536     1  0.0000000  0.2928800  2
   2973   2982   2986  11536     1  0.0000000  0.4184000  4
   2976   2972   2973   2982     1  180.0000771  2.0083200  2
   2976   2972   2973   2982     1  0.0000000  1.2552000  3
   2976   2979   2985  11463     1  0.0000000  0.2928800  2
   2976   2979   2985  11463     1  0.0000000  0.4184000  4
   2976   2979   2985   2987     1  180.0000771  0.0000000  2
   2979   2985  11463  11465     1  180.0000771  6.2760000  1
   2979   2985  11463  11465     1  0.0000000  0.0000000  2
   2982   2986  11536  11538     1  180.0000771  6.2760000  1
   2982   2986  11536  11538     1  0.0000000  0.0000000  2
   2985  11463  11465  11467     1  0.0000000  2.2175200  1
   2985  11463  11465  11467     1  0.0000000  0.0000000  2
   2985  11463  11465  11467     1  180.0000771  0.6276000  3
   2985  11463  11465  11467     1  180.0000771  2.0920000  4
   2986  11536  11538  11540     1  0.0000000  2.2175200  1
   2986  11536  11538  11540     1  0.0000000  0.0000000  2
   2986  11536  11538  11540     1  180.0000771  0.6276000  3
   2986  11536  11538  11540     1  180.0000771  2.0920000  4
   2987   2985  11463  11465     1  180.0000771  10.4600000  2
   2988   2986  11536  11538     1  180.0000771  10.4600000  2
   2991   2997   2998   3007     1  180.0000771  2.0083200  2
   2991   2997   2998   3007     1  0.0000000  1.2552000  3
   2991   2997   3001   3004     1  180.0000771  2.0083200  2
   2991   2997   3001   3004     1  0.0000000  1.2552000  3
   2994   2991   2997   2998     1  180.0000771  2.0083200  2
   2994   2991   2997   2998     1  0.0000000  1.2552000  3
   2994   2991   2997   3001     1  180.0000771  2.0083200  2
   2994   2991   2997   3001     1  0.0000000  1.2552000  3
   2997   2991   2994   3014     1  0.0000000  0.6508444  3
   2997   2998   3007   3011     1  0.0000000  0.6508444  3
   2997   3001   3004   3010     1  0.0000000  0.6508444  3
   2998   2997   3001   3004     1  180.0000771  2.0083200  2
   2998   2997   3001   3004     1  0.0000000  1.2552000  3
   2998   3007   3011   3013     1  180.0000771  0.0000000  2
   2998   3007   3011  11682     1  0.0000000  0.2928800  2
   2998   3007   3011  11682     1  0.0000000  0.4184000  4
   3001   2997   2998   3007     1  180.0000771  2.0083200  2
   3001   2997   2998   3007     1  0.0000000  1.2552000  3
   3001   3004   3010  11609     1  0.0000000  0.2928800  2
   3001   3004   3010  11609     1  0.0000000  0.4184000  4
   3001   3004   3010   3012     1  180.0000771  0.0000000  2
   3004   3010  11609  11611     1  180.0000771  6.2760000  1
   3004   3010  11609  11611     1  0.0000000  0.0000000  2
   3007   3011  11682  11684     1  180.0000771  6.2760000  1
   3007   3011  11682  11684     1  0.0000000  0.0000000  2
   3010  11609  11611  11613     1  0.0000000  2.2175200  1
   3010  11609  11611  11613     1  0.0000000  0.0000000  2
   3010  11609  11611  11613     1  180.0000771  0.6276000  3
   3010  11609  11611  11613     1  180.0000771  2.0920000  4
   3011  11682  11684  11686     1  0.0000000  2.2175200  1
   3011  11682  11684  11686     1  0.0000000  0.0000000  2
   3011  11682  11684  11686     1  180.0000771  0.6276000  3
   3011  11682  11684  11686     1  180.0000771  2.0920000  4
   3012   3010  11609  11611     1  180.0000771  10.4600000  2
   3013   3011  11682  11684     1  180.0000771  10.4600000  2
   3016   3022   3023   3032     1  180.0000771  2.0083200  2
   3016   3022   3023   3032     1  0.0000000  1.2552000  3
   3016   3022   3026   3029     1  180.0000771  2.0083200  2
   3016   3022   3026   3029     1  0.0000000  1.2552000  3
   3019   3016   3022   3023     1  180.0000771  2.0083200  2
   3019   3016   3022   3023     1  0.0000000  1.2552000  3
   3019   3016   3022   3026     1  180.0000771  2.0083200  2
   3019   3016   3022   3026     1  0.0000000  1.2552000  3
   3022   3016   3019   3039     1  0.0000000  0.6508444  3
   3022   3023   3032   3036     1  0.0000000  0.6508444  3
   3022   3026   3029   3035     1  0.0000000  0.6508444  3
   3023   3022   3026   3029     1  180.0000771  2.0083200  2
   3023   3022   3026   3029     1  0.0000000  1.2552000  3
   3023   3032   3036   3038     1  180.0000771  0.0000000  2
   3023   3032   3036  11828     1  0.0000000  0.2928800  2
   3023   3032   3036  11828     1  0.0000000  0.4184000  4
   3026   3022   3023   3032     1  180.0000771  2.0083200  2
   3026   3022   3023   3032     1  0.0000000  1.2552000  3
   3026   3029   3035  11755     1  0.0000000  0.2928800  2
   3026   3029   3035  11755     1  0.0000000  0.4184000  4
   3026   3029   3035   3037     1  180.0000771  0.0000000  2
   3029   3035  11755  11757     1  180.0000771  6.2760000  1
   3029   3035  11755  11757     1  0.0000000  0.0000000  2
   3032   3036  11828  11830     1  180.0000771  6.2760000  1
   3032   3036  11828  11830     1  0.0000000  0.0000000  2
   3035  11755  11757  11759     1  0.0000000  2.2175200  1
   3035  11755  11757  11759     1  0.0000000  0.0000000  2
   3035  11755  11757  11759     1  180.0000771  0.6276000  3
   3035  11755  11757  11759     1  180.0000771  2.0920000  4
   3036  11828  11830  11832     1  0.0000000  2.2175200  1
   3036  11828  11830  11832     1  0.0000000  0.0000000  2
   3036  11828  11830  11832     1  180.0000771  0.6276000  3
   3036  11828  11830  11832     1  180.0000771  2.0920000  4
   3037   3035  11755  11757     1  180.0000771  10.4600000  2
   3038   3036  11828  11830     1  180.0000771  10.4600000  2
   3041   3047   3048   3057     1  180.0000771  2.0083200  2
   3041   3047   3048   3057     1  0.0000000  1.2552000  3
   3041   3047   3051   3054     1  180.0000771  2.0083200  2
   3041   3047   3051   3054     1  0.0000000  1.2552000  3
   3044   3041   3047   3048     1  180.0000771  2.0083200  2
   3044   3041   3047   3048     1  0.0000000  1.2552000  3
   3044   3041   3047   3051     1  180.0000771  2.0083200  2
   3044   3041   3047   3051     1  0.0000000  1.2552000  3
   3047   3041   3044   3064     1  0.0000000  0.6508444  3
   3047   3048   3057   3061     1  0.0000000  0.6508444  3
   3047   3051   3054   3060     1  0.0000000  0.6508444  3
   3048   3047   3051   3054     1  180.0000771  2.0083200  2
   3048   3047   3051   3054     1  0.0000000  1.2552000  3
   3048   3057   3061   3063     1  180.0000771  0.0000000  2
   3048   3057   3061  11974     1  0.0000000  0.2928800  2
   3048   3057   3061  11974     1  0.0000000  0.4184000  4
   3051   3047   3048   3057     1  180.0000771  2.0083200  2
   3051   3047   3048   3057     1  0.0000000  1.2552000  3
   3051   3054   3060  11901     1  0.0000000  0.2928800  2
   3051   3054   3060  11901     1  0.0000000  0.4184000  4
   3051   3054   3060   3062     1  180.0000771  0.0000000  2
   3054   3060  11901  11903     1  180.0000771  6.2760000  1
   3054   3060  11901  11903     1  0.0000000  0.0000000  2
   3057   3061  11974  11976     1  180.0000771  6.2760000  1
   3057   3061  11974  11976     1  0.0000000  0.0000000  2
   3060  11901  11903  11905     1  0.0000000  2.2175200  1
   3060  11901  11903  11905     1  0.0000000  0.0000000  2
   3060  11901  11903  11905     1  180.0000771  0.6276000  3
   3060  11901  11903  11905     1  180.0000771  2.0920000  4
   3061  11974  11976  11978     1  0.0000000  2.2175200  1
   3061  11974  11976  11978     1  0.0000000  0.0000000  2
   3061  11974  11976  11978     1  180.0000771  0.6276000  3
   3061  11974  11976  11978     1  180.0000771  2.0920000  4
   3062   3060  11901  11903     1  180.0000771  10.4600000  2
   3063   3061  11974  11976     1  180.0000771  10.4600000  2
   3066   3072   3073   3082     1  180.0000771  2.0083200  2
   3066   3072   3073   3082     1  0.0000000  1.2552000  3
   3066   3072   3076   3079     1  180.0000771  2.0083200  2
   3066   3072   3076   3079     1  0.0000000  1.2552000  3
   3069   3066   3072   3073     1  180.0000771  2.0083200  2
   3069   3066   3072   3073     1  0.0000000  1.2552000  3
   3069   3066   3072   3076     1  180.0000771  2.0083200  2
   3069   3066   3072   3076     1  0.0000000  1.2552000  3
   3072   3066   3069   3089     1  0.0000000  0.6508444  3
   3072   3073   3082   3086     1  0.0000000  0.6508444  3
   3072   3076   3079   3085     1  0.0000000  0.6508444  3
   3073   3072   3076   3079     1  180.0000771  2.0083200  2
   3073   3072   3076   3079     1  0.0000000  1.2552000  3
   3073   3082   3086   3088     1  180.0000771  0.0000000  2
   3073   3082   3086  12120     1  0.0000000  0.2928800  2
   3073   3082   3086  12120     1  0.0000000  0.4184000  4
   3076   3072   3073   3082     1  180.0000771  2.0083200  2
   3076   3072   3073   3082     1  0.0000000  1.2552000  3
   3076   3079   3085  12047     1  0.0000000  0.2928800  2
   3076   3079   3085  12047     1  0.0000000  0.4184000  4
   3076   3079   3085   3087     1  180.0000771  0.0000000  2
   3079   3085  12047  12049     1  180.0000771  6.2760000  1
   3079   3085  12047  12049     1  0.0000000  0.0000000  2
   3082   3086  12120  12122     1  180.0000771  6.2760000  1
   3082   3086  12120  12122     1  0.0000000  0.0000000  2
   3085  12047  12049  12051     1  0.0000000  2.2175200  1
   3085  12047  12049  12051     1  0.0000000  0.0000000  2
   3085  12047  12049  12051     1  180.0000771  0.6276000  3
   3085  12047  12049  12051     1  180.0000771  2.0920000  4
   3086  12120  12122  12124     1  0.0000000  2.2175200  1
   3086  12120  12122  12124     1  0.0000000  0.0000000  2
   3086  12120  12122  12124     1  180.0000771  0.6276000  3
   3086  12120  12122  12124     1  180.0000771  2.0920000  4
   3087   3085  12047  12049     1  180.0000771  10.4600000  2
   3088   3086  12120  12122     1  180.0000771  10.4600000  2
   3091   3097   3098   3107     1  180.0000771  2.0083200  2
   3091   3097   3098   3107     1  0.0000000  1.2552000  3
   3091   3097   3101   3104     1  180.0000771  2.0083200  2
   3091   3097   3101   3104     1  0.0000000  1.2552000  3
   3094   3091   3097   3098     1  180.0000771  2.0083200  2
   3094   3091   3097   3098     1  0.0000000  1.2552000  3
   3094   3091   3097   3101     1  180.0000771  2.0083200  2
   3094   3091   3097   3101     1  0.0000000  1.2552000  3
   3097   3091   3094   3114     1  0.0000000  0.6508444  3
   3097   3098   3107   3111     1  0.0000000  0.6508444  3
   3097   3101   3104   3110     1  0.0000000  0.6508444  3
   3098   3097   3101   3104     1  180.0000771  2.0083200  2
   3098   3097   3101   3104     1  0.0000000  1.2552000  3
   3098   3107   3111   3113     1  180.0000771  0.0000000  2
   3098   3107   3111  12266     1  0.0000000  0.2928800  2
   3098   3107   3111  12266     1  0.0000000  0.4184000  4
   3101   3097   3098   3107     1  180.0000771  2.0083200  2
   3101   3097   3098   3107     1  0.0000000  1.2552000  3
   3101   3104   3110  12193     1  0.0000000  0.2928800  2
   3101   3104   3110  12193     1  0.0000000  0.4184000  4
   3101   3104   3110   3112     1  180.0000771  0.0000000  2
   3104   3110  12193  12195     1  180.0000771  6.2760000  1
   3104   3110  12193  12195     1  0.0000000  0.0000000  2
   3107   3111  12266  12268     1  180.0000771  6.2760000  1
   3107   3111  12266  12268     1  0.0000000  0.0000000  2
   3110  12193  12195  12197     1  0.0000000  2.2175200  1
   3110  12193  12195  12197     1  0.0000000  0.0000000  2
   3110  12193  12195  12197     1  180.0000771  0.6276000  3
   3110  12193  12195  12197     1  180.0000771  2.0920000  4
   3111  12266  12268  12270     1  0.0000000  2.2175200  1
   3111  12266  12268  12270     1  0.0000000  0.0000000  2
   3111  12266  12268  12270     1  180.0000771  0.6276000  3
   3111  12266  12268  12270     1  180.0000771  2.0920000  4
   3112   3110  12193  12195     1  180.0000771  10.4600000  2
   3113   3111  12266  12268     1  180.0000771  10.4600000  2
   3116   3122   3123   3132     1  180.0000771  2.0083200  2
   3116   3122   3123   3132     1  0.0000000  1.2552000  3
   3116   3122   3126   3129     1  180.0000771  2.0083200  2
   3116   3122   3126   3129     1  0.0000000  1.2552000  3
   3119   3116   3122   3123     1  180.0000771  2.0083200  2
   3119   3116   3122   3123     1  0.0000000  1.2552000  3
   3119   3116   3122   3126     1  180.0000771  2.0083200  2
   3119   3116   3122   3126     1  0.0000000  1.2552000  3
   3122   3116   3119   3139     1  0.0000000  0.6508444  3
   3122   3123   3132   3136     1  0.0000000  0.6508444  3
   3122   3126   3129   3135     1  0.0000000  0.6508444  3
   3123   3122   3126   3129     1  180.0000771  2.0083200  2
   3123   3122   3126   3129     1  0.0000000  1.2552000  3
   3123   3132   3136  12412     1  0.0000000  0.2928800  2
   3123   3132   3136  12412     1  0.0000000  0.4184000  4
   3123   3132   3136   3138     1  180.0000771  0.0000000  2
   3126   3122   3123   3132     1  180.0000771  2.0083200  2
   3126   3122   3123   3132     1  0.0000000  1.2552000  3
   3126   3129   3135  12339     1  0.0000000  0.2928800  2
   3126   3129   3135  12339     1  0.0000000  0.4184000  4
   3126   3129   3135   3137     1  180.0000771  0.0000000  2
   3129   3135  12339  12341     1  180.0000771  6.2760000  1
   3129   3135  12339  12341     1  0.0000000  0.0000000  2
   3132   3136  12412  12414     1  180.0000771  6.2760000  1
   3132   3136  12412  12414     1  0.0000000  0.0000000  2
   3135  12339  12341  12343     1  0.0000000  2.2175200  1
   3135  12339  12341  12343     1  0.0000000  0.0000000  2
   3135  12339  12341  12343     1  180.0000771  0.6276000  3
   3135  12339  12341  12343     1  180.0000771  2.0920000  4
   3136  12412  12414  12416     1  0.0000000  2.2175200  1
   3136  12412  12414  12416     1  0.0000000  0.0000000  2
   3136  12412  12414  12416     1  180.0000771  0.6276000  3
   3136  12412  12414  12416     1  180.0000771  2.0920000  4
   3137   3135  12339  12341     1  180.0000771  10.4600000  2
   3138   3136  12412  12414     1  180.0000771  10.4600000  2
   3141   3143   3145   3149     1  0.0000000  0.6508444  3
   3143   3145   3149   3150     1  180.0000771  2.0083200  2
   3143   3145   3149   3150     1  0.0000000  1.2552000  3
   3143   3145   3149   3151     1  180.0000771  2.0083200  2
   3143   3145   3149   3151     1  0.0000000  1.2552000  3
   3145   3149   3150   3161     1  180.0000771  2.0083200  2
   3145   3149   3150   3161     1  0.0000000  1.2552000  3
   3145   3149   3151   3153     1  180.0000771  2.0083200  2
   3145   3149   3151   3153     1  0.0000000  1.2552000  3
   3149   3150   3161   3164     1  0.0000000  0.6508444  3
   3149   3151   3153   3157     1  0.0000000  0.6508444  3
   3150   3149   3151   3153     1  180.0000771  2.0083200  2
   3150   3149   3151   3153     1  0.0000000  1.2552000  3
   3150   3161   3164   3165     1  180.0000771  0.0000000  2
   3150   3161   3164   3213     1  180.0000771  0.0000000  2
   3151   3149   3150   3161     1  180.0000771  2.0083200  2
   3151   3149   3150   3161     1  0.0000000  1.2552000  3
   3151   3153   3157   3158     1  180.0000771  0.0000000  2
   3151   3153   3157   3189     1  180.0000771  0.0000000  2
   3153   3157   3189   3170     1  180.0000771  6.0668000  2
   3153   3157   3189   3170     1  180.0000771  1.4644000  4
   3157   3189   3170   3169     1  0.0000000  1.2552000  3
   3157   3189   3170   3171     1  0.0000000  1.2552000  3
   3158   3157   3189   3170     1  180.0000771  6.0668000  2
   3158   3157   3189   3170     1  180.0000771  1.4644000  4
   3161   3164   3213   3194     1  180.0000771  6.0668000  2
   3161   3164   3213   3194     1  180.0000771  1.4644000  4
   3164   3213   3194   3193     1  0.0000000  1.2552000  3
   3164   3213   3194   3195     1  0.0000000  1.2552000  3
   3165   3164   3213   3194     1  180.0000771  6.0668000  2
   3165   3164   3213   3194     1  180.0000771  1.4644000  4
   3166   3167   3169   3170     1  180.0000771  0.8368000  1
   3166   3167   3169   3170     1  180.0000771  1.0460000  2
   3166   3167   3169   3170     1  0.0000000  0.7531200  3
   3166   3167   3169   3176     1  0.0000000  0.6508444  3
   3166   3184   3171   3170     1  180.0000771  0.4184000  2
   3166   3184   3171   3170     1  0.0000000  1.6024720  3
   3166   3184   3171   3175     1  0.0000000  1.6038667  3
   3167   3166   3177   3182     1  0.0000000  0.6508444  3
   3167   3166   3184   3171     1  180.0000771  0.4184000  2
   3167   3166   3184   3171     1  0.0000000  1.6024720  3
   3167   3169   3170   3171     1  180.0000771  0.8368000  1
   3167   3169   3170   3171     1  180.0000771  1.0460000  2
   3167   3169   3170   3171     1  0.0000000  0.7531200  3
   3167   3169   3170   3189     1  0.0000000  0.6508444  3
   3169   3167   3166   3177     1  180.0000771  0.8368000  1
   3169   3167   3166   3177     1  180.0000771  1.0460000  2
   3169   3167   3166   3177     1  0.0000000  0.7531200  3
   3169   3167   3166   3184     1  0.0000000  0.6508444  3
   3169   3170   3171   3175     1  0.0000000  0.6508444  3
   3169   3170   3171   3184     1  0.0000000  0.6508444  3
   3170   3169   3167   3187     1  0.0000000  0.6508444  3
   3171   3170   3169   3176     1  0.0000000  0.6508444  3
   3171   3184   3166   3177     1  180.0000771  0.4184000  2
   3171   3184   3166   3177     1  0.0000000  1.6024720  3
   3175   3171   3170   3189     1  0.0000000  0.6508444  3
   3176   3169   3167   3187     1  0.0000000  4.9162000  2
   3176   3169   3167   3187     1  0.0000000  0.6024960  3
   3176   3169   3170   3189     1  0.0000000  0.6508444  3
   3177   3166   3167   3187     1  0.0000000  0.6508444  3
   3182   3177   3166   3184     1  0.0000000  4.9162000  2
   3182   3177   3166   3184     1  0.0000000  0.6024960  3
   3184   3166   3167   3187     1  0.0000000  4.9162000  2
   3184   3166   3167   3187     1  0.0000000  0.6024960  3
   3184   3171   3170   3189     1  0.0000000  0.6508444  3
   3190   3191   3193   3194     1  180.0000771  0.8368000  1
   3190   3191   3193   3194     1  180.0000771  1.0460000  2
   3190   3191   3193   3194     1  0.0000000  0.7531200  3
   3190   3191   3193   3200     1  0.0000000  0.6508444  3
   3190   3208   3195   3194     1  180.0000771  0.4184000  2
   3190   3208   3195   3194     1  0.0000000  1.6024720  3
   3190   3208   3195   3199     1  0.0000000  1.6038667  3
   3191   3190   3201   3206     1  0.0000000  0.6508444  3
   3191   3190   3208   3195     1  180.0000771  0.4184000  2
   3191   3190   3208   3195     1  0.0000000  1.6024720  3
   3191   3193   3194   3195     1  180.0000771  0.8368000  1
   3191   3193   3194   3195     1  180.0000771  1.0460000  2
   3191   3193   3194   3195     1  0.0000000  0.7531200  3
   3191   3193   3194   3213     1  0.0000000  0.6508444  3
   3193   3191   3190   3201     1  180.0000771  0.8368000  1
   3193   3191   3190   3201     1  180.0000771  1.0460000  2
   3193   3191   3190   3201     1  0.0000000  0.7531200  3
   3193   3191   3190   3208     1  0.0000000  0.6508444  3
   3193   3194   3195   3199     1  0.0000000  0.6508444  3
   3193   3194   3195   3208     1  0.0000000  0.6508444  3
   3194   3193   3191   3211     1  0.0000000  0.6508444  3
   3195   3194   3193   3200     1  0.0000000  0.6508444  3
   3195   3208   3190   3201     1  180.0000771  0.4184000  2
   3195   3208   3190   3201     1  0.0000000  1.6024720  3
   3199   3195   3194   3213     1  0.0000000  0.6508444  3
   3200   3193   3191   3211     1  0.0000000  4.9162000  2
   3200   3193   3191   3211     1  0.0000000  0.6024960  3
   3200   3193   3194   3213     1  0.0000000  0.6508444  3
   3201   3190   3191   3211     1  0.0000000  0.6508444  3
   3206   3201   3190   3208     1  0.0000000  4.9162000  2
   3206   3201   3190   3208     1  0.0000000  0.6024960  3
   3208   3190   3191   3211     1  0.0000000  4.9162000  2
   3208   3190   3191   3211     1  0.0000000  0.6024960  3
   3208   3195   3194   3213     1  0.0000000  0.6508444  3
   3214   3216   3218   3222     1  0.0000000  0.6508444  3
   3216   3218   3222   3223     1  180.0000771  2.0083200  2
   3216   3218   3222   3223     1  0.0000000  1.2552000  3
   3216   3218   3222   3224     1  180.0000771  2.0083200  2
   3216   3218   3222   3224     1  0.0000000  1.2552000  3
   3218   3222   3223   3234     1  180.0000771  2.0083200  2
   3218   3222   3223   3234     1  0.0000000  1.2552000  3
   3218   3222   3224   3226     1  180.0000771  2.0083200  2
   3218   3222   3224   3226     1  0.0000000  1.2552000  3
   3222   3223   3234   3237     1  0.0000000  0.6508444  3
   3222   3224   3226   3230     1  0.0000000  0.6508444  3
   3223   3234   3237   3238     1  180.0000771  0.0000000  2
   3223   3234   3237   3286     1  180.0000771  0.0000000  2
   3223   3222   3224   3226     1  180.0000771  2.0083200  2
   3223   3222   3224   3226     1  0.0000000  1.2552000  3
   3224   3226   3230   3231     1  180.0000771  0.0000000  2
   3224   3226   3230   3262     1  180.0000771  0.0000000  2
   3224   3222   3223   3234     1  180.0000771  2.0083200  2
   3224   3222   3223   3234     1  0.0000000  1.2552000  3
   3226   3230   3262   3243     1  180.0000771  6.0668000  2
   3226   3230   3262   3243     1  180.0000771  1.4644000  4
   3230   3262   3243   3244     1  0.0000000  1.2552000  3
   3230   3262   3243   3242     1  0.0000000  1.2552000  3
   3231   3230   3262   3243     1  180.0000771  6.0668000  2
   3231   3230   3262   3243     1  180.0000771  1.4644000  4
   3234   3237   3286   3267     1  180.0000771  6.0668000  2
   3234   3237   3286   3267     1  180.0000771  1.4644000  4
   3237   3286   3267   3268     1  0.0000000  1.2552000  3
   3237   3286   3267   3266     1  0.0000000  1.2552000  3
   3238   3237   3286   3267     1  180.0000771  6.0668000  2
   3238   3237   3286   3267     1  180.0000771  1.4644000  4
   3239   3240   3242   3243     1  180.0000771  0.8368000  1
   3239   3240   3242   3243     1  180.0000771  1.0460000  2
   3239   3240   3242   3243     1  0.0000000  0.7531200  3
   3239   3240   3242   3249     1  0.0000000  0.6508444  3
   3239   3257   3244   3248     1  0.0000000  1.6038667  3
   3239   3257   3244   3243     1  180.0000771  0.4184000  2
   3239   3257   3244   3243     1  0.0000000  1.6024720  3
   3240   3242   3243   3244     1  180.0000771  0.8368000  1
   3240   3242   3243   3244     1  180.0000771  1.0460000  2
   3240   3242   3243   3244     1  0.0000000  0.7531200  3
   3240   3242   3243   3262     1  0.0000000  0.6508444  3
   3240   3239   3250   3255     1  0.0000000  0.6508444  3
   3240   3239   3257   3244     1  180.0000771  0.4184000  2
   3240   3239   3257   3244     1  0.0000000  1.6024720  3
   3242   3243   3244   3248     1  0.0000000  0.6508444  3
   3242   3243   3244   3257     1  0.0000000  0.6508444  3
   3242   3240   3239   3250     1  180.0000771  0.8368000  1
   3242   3240   3239   3250     1  180.0000771  1.0460000  2
   3242   3240   3239   3250     1  0.0000000  0.7531200  3
   3242   3240   3239   3257     1  0.0000000  0.6508444  3
   3243   3242   3240   3260     1  0.0000000  0.6508444  3
   3244   3257   3239   3250     1  180.0000771  0.4184000  2
   3244   3257   3239   3250     1  0.0000000  1.6024720  3
   3244   3243   3242   3249     1  0.0000000  0.6508444  3
   3248   3244   3243   3262     1  0.0000000  0.6508444  3
   3249   3242   3243   3262     1  0.0000000  0.6508444  3
   3249   3242   3240   3260     1  0.0000000  4.9162000  2
   3249   3242   3240   3260     1  0.0000000  0.6024960  3
   3250   3239   3240   3260     1  0.0000000  0.6508444  3
   3255   3250   3239   3257     1  0.0000000  4.9162000  2
   3255   3250   3239   3257     1  0.0000000  0.6024960  3
   3257   3244   3243   3262     1  0.0000000  0.6508444  3
   3257   3239   3240   3260     1  0.0000000  4.9162000  2
   3257   3239   3240   3260     1  0.0000000  0.6024960  3
   3263   3264   3266   3267     1  180.0000771  0.8368000  1
   3263   3264   3266   3267     1  180.0000771  1.0460000  2
   3263   3264   3266   3267     1  0.0000000  0.7531200  3
   3263   3264   3266   3273     1  0.0000000  0.6508444  3
   3263   3281   3268   3272     1  0.0000000  1.6038667  3
   3263   3281   3268   3267     1  180.0000771  0.4184000  2
   3263   3281   3268   3267     1  0.0000000  1.6024720  3
   3264   3266   3267   3268     1  180.0000771  0.8368000  1
   3264   3266   3267   3268     1  180.0000771  1.0460000  2
   3264   3266   3267   3268     1  0.0000000  0.7531200  3
   3264   3266   3267   3286     1  0.0000000  0.6508444  3
   3264   3263   3274   3279     1  0.0000000  0.6508444  3
   3264   3263   3281   3268     1  180.0000771  0.4184000  2
   3264   3263   3281   3268     1  0.0000000  1.6024720  3
   3266   3267   3268   3272     1  0.0000000  0.6508444  3
   3266   3267   3268   3281     1  0.0000000  0.6508444  3
   3266   3264   3263   3274     1  180.0000771  0.8368000  1
   3266   3264   3263   3274     1  180.0000771  1.0460000  2
   3266   3264   3263   3274     1  0.0000000  0.7531200  3
   3266   3264   3263   3281     1  0.0000000  0.6508444  3
   3267   3266   3264   3284     1  0.0000000  0.6508444  3
   3268   3281   3263   3274     1  180.0000771  0.4184000  2
   3268   3281   3263   3274     1  0.0000000  1.6024720  3
   3268   3267   3266   3273     1  0.0000000  0.6508444  3
   3272   3268   3267   3286     1  0.0000000  0.6508444  3
   3273   3266   3267   3286     1  0.0000000  0.6508444  3
   3273   3266   3264   3284     1  0.0000000  4.9162000  2
   3273   3266   3264   3284     1  0.0000000  0.6024960  3
   3274   3263   3264   3284     1  0.0000000  0.6508444  3
   3279   3274   3263   3281     1  0.0000000  4.9162000  2
   3279   3274   3263   3281     1  0.0000000  0.6024960  3
   3281   3268   3267   3286     1  0.0000000  0.6508444  3
   3281   3263   3264   3284     1  0.0000000  4.9162000  2
   3281   3263   3264   3284     1  0.0000000  0.6024960  3
   3287   3289   3291   3295     1  0.0000000  0.6508444  3
   3289   3291   3295   3296     1  180.0000771  2.0083200  2
   3289   3291   3295   3296     1  0.0000000  1.2552000  3
   3289   3291   3295   3297     1  180.0000771  2.0083200  2
   3289   3291   3295   3297     1  0.0000000  1.2552000  3
   3291   3295   3296   3307     1  180.0000771  2.0083200  2
   3291   3295   3296   3307     1  0.0000000  1.2552000  3
   3291   3295   3297   3299     1  180.0000771  2.0083200  2
   3291   3295   3297   3299     1  0.0000000  1.2552000  3
   3295   3296   3307   3310     1  0.0000000  0.6508444  3
   3295   3297   3299   3303     1  0.0000000  0.6508444  3
   3296   3295   3297   3299     1  180.0000771  2.0083200  2
   3296   3295   3297   3299     1  0.0000000  1.2552000  3
   3296   3307   3310   3311     1  180.0000771  0.0000000  2
   3296   3307   3310   3359     1  180.0000771  0.0000000  2
   3297   3295   3296   3307     1  180.0000771  2.0083200  2
   3297   3295   3296   3307     1  0.0000000  1.2552000  3
   3297   3299   3303   3304     1  180.0000771  0.0000000  2
   3297   3299   3303   3335     1  180.0000771  0.0000000  2
   3299   3303   3335   3316     1  180.0000771  6.0668000  2
   3299   3303   3335   3316     1  180.0000771  1.4644000  4
   3303   3335   3316   3315     1  0.0000000  1.2552000  3
   3303   3335   3316   3317     1  0.0000000  1.2552000  3
   3304   3303   3335   3316     1  180.0000771  6.0668000  2
   3304   3303   3335   3316     1  180.0000771  1.4644000  4
   3307   3310   3359   3340     1  180.0000771  6.0668000  2
   3307   3310   3359   3340     1  180.0000771  1.4644000  4
   3310   3359   3340   3339     1  0.0000000  1.2552000  3
   3310   3359   3340   3341     1  0.0000000  1.2552000  3
   3311   3310   3359   3340     1  180.0000771  6.0668000  2
   3311   3310   3359   3340     1  180.0000771  1.4644000  4
   3312   3313   3315   3316     1  180.0000771  0.8368000  1
   3312   3313   3315   3316     1  180.0000771  1.0460000  2
   3312   3313   3315   3316     1  0.0000000  0.7531200  3
   3312   3313   3315   3322     1  0.0000000  0.6508444  3
   3312   3330   3317   3316     1  180.0000771  0.4184000  2
   3312   3330   3317   3316     1  0.0000000  1.6024720  3
   3312   3330   3317   3321     1  0.0000000  1.6038667  3
   3313   3312   3323   3328     1  0.0000000  0.6508444  3
   3313   3312   3330   3317     1  180.0000771  0.4184000  2
   3313   3312   3330   3317     1  0.0000000  1.6024720  3
   3313   3315   3316   3317     1  180.0000771  0.8368000  1
   3313   3315   3316   3317     1  180.0000771  1.0460000  2
   3313   3315   3316   3317     1  0.0000000  0.7531200  3
   3313   3315   3316   3335     1  0.0000000  0.6508444  3
   3315   3313   3312   3323     1  180.0000771  0.8368000  1
   3315   3313   3312   3323     1  180.0000771  1.0460000  2
   3315   3313   3312   3323     1  0.0000000  0.7531200  3
   3315   3313   3312   3330     1  0.0000000  0.6508444  3
   3315   3316   3317   3321     1  0.0000000  0.6508444  3
   3315   3316   3317   3330     1  0.0000000  0.6508444  3
   3316   3315   3313   3333     1  0.0000000  0.6508444  3
   3317   3316   3315   3322     1  0.0000000  0.6508444  3
   3317   3330   3312   3323     1  180.0000771  0.4184000  2
   3317   3330   3312   3323     1  0.0000000  1.6024720  3
   3321   3317   3316   3335     1  0.0000000  0.6508444  3
   3322   3315   3313   3333     1  0.0000000  4.9162000  2
   3322   3315   3313   3333     1  0.0000000  0.6024960  3
   3322   3315   3316   3335     1  0.0000000  0.6508444  3
   3323   3312   3313   3333     1  0.0000000  0.6508444  3
   3328   3323   3312   3330     1  0.0000000  4.9162000  2
   3328   3323   3312   3330     1  0.0000000  0.6024960  3
   3330   3312   3313   3333     1  0.0000000  4.9162000  2
   3330   3312   3313   3333     1  0.0000000  0.6024960  3
   3330   3317   3316   3335     1  0.0000000  0.6508444  3
   3336   3337   3339   3340     1  180.0000771  0.8368000  1
   3336   3337   3339   3340     1  180.0000771  1.0460000  2
   3336   3337   3339   3340     1  0.0000000  0.7531200  3
   3336   3337   3339   3346     1  0.0000000  0.6508444  3
   3336   3354   3341   3340     1  180.0000771  0.4184000  2
   3336   3354   3341   3340     1  0.0000000  1.6024720  3
   3336   3354   3341   3345     1  0.0000000  1.6038667  3
   3337   3336   3347   3352     1  0.0000000  0.6508444  3
   3337   3336   3354   3341     1  180.0000771  0.4184000  2
   3337   3336   3354   3341     1  0.0000000  1.6024720  3
   3337   3339   3340   3341     1  180.0000771  0.8368000  1
   3337   3339   3340   3341     1  180.0000771  1.0460000  2
   3337   3339   3340   3341     1  0.0000000  0.7531200  3
   3337   3339   3340   3359     1  0.0000000  0.6508444  3
   3339   3337   3336   3347     1  180.0000771  0.8368000  1
   3339   3337   3336   3347     1  180.0000771  1.0460000  2
   3339   3337   3336   3347     1  0.0000000  0.7531200  3
   3339   3337   3336   3354     1  0.0000000  0.6508444  3
   3339   3340   3341   3345     1  0.0000000  0.6508444  3
   3339   3340   3341   3354     1  0.0000000  0.6508444  3
   3340   3339   3337   3357     1  0.0000000  0.6508444  3
   3341   3340   3339   3346     1  0.0000000  0.6508444  3
   3341   3354   3336   3347     1  180.0000771  0.4184000  2
   3341   3354   3336   3347     1  0.0000000  1.6024720  3
   3345   3341   3340   3359     1  0.0000000  0.6508444  3
   3346   3339   3337   3357     1  0.0000000  4.9162000  2
   3346   3339   3337   3357     1  0.0000000  0.6024960  3
   3346   3339   3340   3359     1  0.0000000  0.6508444  3
   3347   3336   3337   3357     1  0.0000000  0.6508444  3
   3352   3347   3336   3354     1  0.0000000  4.9162000  2
   3352   3347   3336   3354     1  0.0000000  0.6024960  3
   3354   3336   3337   3357     1  0.0000000  4.9162000  2
   3354   3336   3337   3357     1  0.0000000  0.6024960  3
   3354   3341   3340   3359     1  0.0000000  0.6508444  3
   3360   3362   3364   3368     1  0.0000000  0.6508444  3
   3362   3364   3368   3369     1  180.0000771  2.0083200  2
   3362   3364   3368   3369     1  0.0000000  1.2552000  3
   3362   3364   3368   3370     1  180.0000771  2.0083200  2
   3362   3364   3368   3370     1  0.0000000  1.2552000  3
   3364   3368   3369   3380     1  180.0000771  2.0083200  2
   3364   3368   3369   3380     1  0.0000000  1.2552000  3
   3364   3368   3370   3372     1  180.0000771  2.0083200  2
   3364   3368   3370   3372     1  0.0000000  1.2552000  3
   3368   3369   3380   3383     1  0.0000000  0.6508444  3
   3368   3370   3372   3376     1  0.0000000  0.6508444  3
   3369   3380   3383   3384     1  180.0000771  0.0000000  2
   3369   3380   3383   3432     1  180.0000771  0.0000000  2
   3369   3368   3370   3372     1  180.0000771  2.0083200  2
   3369   3368   3370   3372     1  0.0000000  1.2552000  3
   3370   3372   3376   3377     1  180.0000771  0.0000000  2
   3370   3372   3376   3408     1  180.0000771  0.0000000  2
   3370   3368   3369   3380     1  180.0000771  2.0083200  2
   3370   3368   3369   3380     1  0.0000000  1.2552000  3
   3372   3376   3408   3389     1  180.0000771  6.0668000  2
   3372   3376   3408   3389     1  180.0000771  1.4644000  4
   3376   3408   3389   3390     1  0.0000000  1.2552000  3
   3376   3408   3389   3388     1  0.0000000  1.2552000  3
   3377   3376   3408   3389     1  180.0000771  6.0668000  2
   3377   3376   3408   3389     1  180.0000771  1.4644000  4
   3380   3383   3432   3413     1  180.0000771  6.0668000  2
   3380   3383   3432   3413     1  180.0000771  1.4644000  4
   3383   3432   3413   3414     1  0.0000000  1.2552000  3
   3383   3432   3413   3412     1  0.0000000  1.2552000  3
   3384   3383   3432   3413     1  180.0000771  6.0668000  2
   3384   3383   3432   3413     1  180.0000771  1.4644000  4
   3385   3386   3388   3389     1  180.0000771  0.8368000  1
   3385   3386   3388   3389     1  180.0000771  1.0460000  2
   3385   3386   3388   3389     1  0.0000000  0.7531200  3
   3385   3386   3388   3395     1  0.0000000  0.6508444  3
   3385   3403   3390   3394     1  0.0000000  1.6038667  3
   3385   3403   3390   3389     1  180.0000771  0.4184000  2
   3385   3403   3390   3389     1  0.0000000  1.6024720  3
   3386   3388   3389   3390     1  180.0000771  0.8368000  1
   3386   3388   3389   3390     1  180.0000771  1.0460000  2
   3386   3388   3389   3390     1  0.0000000  0.7531200  3
   3386   3388   3389   3408     1  0.0000000  0.6508444  3
   3386   3385   3396   3401     1  0.0000000  0.6508444  3
   3386   3385   3403   3390     1  180.0000771  0.4184000  2
   3386   3385   3403   3390     1  0.0000000  1.6024720  3
   3388   3389   3390   3394     1  0.0000000  0.6508444  3
   3388   3389   3390   3403     1  0.0000000  0.6508444  3
   3388   3386   3385   3396     1  180.0000771  0.8368000  1
   3388   3386   3385   3396     1  180.0000771  1.0460000  2
   3388   3386   3385   3396     1  0.0000000  0.7531200  3
   3388   3386   3385   3403     1  0.0000000  0.6508444  3
   3389   3388   3386   3406     1  0.0000000  0.6508444  3
   3390   3403   3385   3396     1  180.0000771  0.4184000  2
   3390   3403   3385   3396     1  0.0000000  1.6024720  3
   3390   3389   3388   3395     1  0.0000000  0.6508444  3
   3394   3390   3389   3408     1  0.0000000  0.6508444  3
   3395   3388   3389   3408     1  0.0000000  0.6508444  3
   3395   3388   3386   3406     1  0.0000000  4.9162000  2
   3395   3388   3386   3406     1  0.0000000  0.6024960  3
   3396   3385   3386   3406     1  0.0000000  0.6508444  3
   3401   3396   3385   3403     1  0.0000000  4.9162000  2
   3401   3396   3385   3403     1  0.0000000  0.6024960  3
   3403   3390   3389   3408     1  0.0000000  0.6508444  3
   3403   3385   3386   3406     1  0.0000000  4.9162000  2
   3403   3385   3386   3406     1  0.0000000  0.6024960  3
   3409   3410   3412   3413     1  180.0000771  0.8368000  1
   3409   3410   3412   3413     1  180.0000771  1.0460000  2
   3409   3410   3412   3413     1  0.0000000  0.7531200  3
   3409   3410   3412   3419     1  0.0000000  0.6508444  3
   3409   3427   3414   3418     1  0.0000000  1.6038667  3
   3409   3427   3414   3413     1  180.0000771  0.4184000  2
   3409   3427   3414   3413     1  0.0000000  1.6024720  3
   3410   3412   3413   3414     1  180.0000771  0.8368000  1
   3410   3412   3413   3414     1  180.0000771  1.0460000  2
   3410   3412   3413   3414     1  0.0000000  0.7531200  3
   3410   3412   3413   3432     1  0.0000000  0.6508444  3
   3410   3409   3420   3425     1  0.0000000  0.6508444  3
   3410   3409   3427   3414     1  180.0000771  0.4184000  2
   3410   3409   3427   3414     1  0.0000000  1.6024720  3
   3412   3413   3414   3418     1  0.0000000  0.6508444  3
   3412   3413   3414   3427     1  0.0000000  0.6508444  3
   3412   3410   3409   3420     1  180.0000771  0.8368000  1
   3412   3410   3409   3420     1  180.0000771  1.0460000  2
   3412   3410   3409   3420     1  0.0000000  0.7531200  3
   3412   3410   3409   3427     1  0.0000000  0.6508444  3
   3413   3412   3410   3430     1  0.0000000  0.6508444  3
   3414   3427   3409   3420     1  180.0000771  0.4184000  2
   3414   3427   3409   3420     1  0.0000000  1.6024720  3
   3414   3413   3412   3419     1  0.0000000  0.6508444  3
   3418   3414   3413   3432     1  0.0000000  0.6508444  3
   3419   3412   3413   3432     1  0.0000000  0.6508444  3
   3419   3412   3410   3430     1  0.0000000  4.9162000  2
   3419   3412   3410   3430     1  0.0000000  0.6024960  3
   3420   3409   3410   3430     1  0.0000000  0.6508444  3
   3425   3420   3409   3427     1  0.0000000  4.9162000  2
   3425   3420   3409   3427     1  0.0000000  0.6024960  3
   3427   3414   3413   3432     1  0.0000000  0.6508444  3
   3427   3409   3410   3430     1  0.0000000  4.9162000  2
   3427   3409   3410   3430     1  0.0000000  0.6024960  3
   3433   3435   3437   3441     1  0.0000000  0.6508444  3
   3435   3437   3441   3442     1  180.0000771  2.0083200  2
   3435   3437   3441   3442     1  0.0000000  1.2552000  3
   3435   3437   3441   3443     1  180.0000771  2.0083200  2
   3435   3437   3441   3443     1  0.0000000  1.2552000  3
   3437   3441   3442   3453     1  180.0000771  2.0083200  2
   3437   3441   3442   3453     1  0.0000000  1.2552000  3
   3437   3441   3443   3445     1  180.0000771  2.0083200  2
   3437   3441   3443   3445     1  0.0000000  1.2552000  3
   3441   3442   3453   3456     1  0.0000000  0.6508444  3
   3441   3443   3445   3449     1  0.0000000  0.6508444  3
   3442   3441   3443   3445     1  180.0000771  2.0083200  2
   3442   3441   3443   3445     1  0.0000000  1.2552000  3
   3442   3453   3456   3457     1  180.0000771  0.0000000  2
   3442   3453   3456   3505     1  180.0000771  0.0000000  2
   3443   3441   3442   3453     1  180.0000771  2.0083200  2
   3443   3441   3442   3453     1  0.0000000  1.2552000  3
   3443   3445   3449   3450     1  180.0000771  0.0000000  2
   3443   3445   3449   3481     1  180.0000771  0.0000000  2
   3445   3449   3481   3462     1  180.0000771  6.0668000  2
   3445   3449   3481   3462     1  180.0000771  1.4644000  4
   3449   3481   3462   3461     1  0.0000000  1.2552000  3
   3449   3481   3462   3463     1  0.0000000  1.2552000  3
   3450   3449   3481   3462     1  180.0000771  6.0668000  2
   3450   3449   3481   3462     1  180.0000771  1.4644000  4
   3453   3456   3505   3486     1  180.0000771  6.0668000  2
   3453   3456   3505   3486     1  180.0000771  1.4644000  4
   3456   3505   3486   3485     1  0.0000000  1.2552000  3
   3456   3505   3486   3487     1  0.0000000  1.2552000  3
   3457   3456   3505   3486     1  180.0000771  6.0668000  2
   3457   3456   3505   3486     1  180.0000771  1.4644000  4
   3458   3459   3461   3462     1  180.0000771  0.8368000  1
   3458   3459   3461   3462     1  180.0000771  1.0460000  2
   3458   3459   3461   3462     1  0.0000000  0.7531200  3
   3458   3459   3461   3468     1  0.0000000  0.6508444  3
   3458   3476   3463   3462     1  180.0000771  0.4184000  2
   3458   3476   3463   3462     1  0.0000000  1.6024720  3
   3458   3476   3463   3467     1  0.0000000  1.6038667  3
   3459   3458   3469   3474     1  0.0000000  0.6508444  3
   3459   3458   3476   3463     1  180.0000771  0.4184000  2
   3459   3458   3476   3463     1  0.0000000  1.6024720  3
   3459   3461   3462   3463     1  180.0000771  0.8368000  1
   3459   3461   3462   3463     1  180.0000771  1.0460000  2
   3459   3461   3462   3463     1  0.0000000  0.7531200  3
   3459   3461   3462   3481     1  0.0000000  0.6508444  3
   3461   3459   3458   3469     1  180.0000771  0.8368000  1
   3461   3459   3458   3469     1  180.0000771  1.0460000  2
   3461   3459   3458   3469     1  0.0000000  0.7531200  3
   3461   3459   3458   3476     1  0.0000000  0.6508444  3
   3461   3462   3463   3467     1  0.0000000  0.6508444  3
   3461   3462   3463   3476     1  0.0000000  0.6508444  3
   3462   3461   3459   3479     1  0.0000000  0.6508444  3
   3463   3462   3461   3468     1  0.0000000  0.6508444  3
   3463   3476   3458   3469     1  180.0000771  0.4184000  2
   3463   3476   3458   3469     1  0.0000000  1.6024720  3
   3467   3463   3462   3481     1  0.0000000  0.6508444  3
   3468   3461   3459   3479     1  0.0000000  4.9162000  2
   3468   3461   3459   3479     1  0.0000000  0.6024960  3
   3468   3461   3462   3481     1  0.0000000  0.6508444  3
   3469   3458   3459   3479     1  0.0000000  0.6508444  3
   3474   3469   3458   3476     1  0.0000000  4.9162000  2
   3474   3469   3458   3476     1  0.0000000  0.6024960  3
   3476   3458   3459   3479     1  0.0000000  4.9162000  2
   3476   3458   3459   3479     1  0.0000000  0.6024960  3
   3476   3463   3462   3481     1  0.0000000  0.6508444  3
   3482   3483   3485   3486     1  180.0000771  0.8368000  1
   3482   3483   3485   3486     1  180.0000771  1.0460000  2
   3482   3483   3485   3486     1  0.0000000  0.7531200  3
   3482   3483   3485   3492     1  0.0000000  0.6508444  3
   3482   3500   3487   3486     1  180.0000771  0.4184000  2
   3482   3500   3487   3486     1  0.0000000  1.6024720  3
   3482   3500   3487   3491     1  0.0000000  1.6038667  3
   3483   3482   3493   3498     1  0.0000000  0.6508444  3
   3483   3482   3500   3487     1  180.0000771  0.4184000  2
   3483   3482   3500   3487     1  0.0000000  1.6024720  3
   3483   3485   3486   3487     1  180.0000771  0.8368000  1
   3483   3485   3486   3487     1  180.0000771  1.0460000  2
   3483   3485   3486   3487     1  0.0000000  0.7531200  3
   3483   3485   3486   3505     1  0.0000000  0.6508444  3
   3485   3483   3482   3493     1  180.0000771  0.8368000  1
   3485   3483   3482   3493     1  180.0000771  1.0460000  2
   3485   3483   3482   3493     1  0.0000000  0.7531200  3
   3485   3483   3482   3500     1  0.0000000  0.6508444  3
   3485   3486   3487   3491     1  0.0000000  0.6508444  3
   3485   3486   3487   3500     1  0.0000000  0.6508444  3
   3486   3485   3483   3503     1  0.0000000  0.6508444  3
   3487   3486   3485   3492     1  0.0000000  0.6508444  3
   3487   3500   3482   3493     1  180.0000771  0.4184000  2
   3487   3500   3482   3493     1  0.0000000  1.6024720  3
   3491   3487   3486   3505     1  0.0000000  0.6508444  3
   3492   3485   3483   3503     1  0.0000000  4.9162000  2
   3492   3485   3483   3503     1  0.0000000  0.6024960  3
   3492   3485   3486   3505     1  0.0000000  0.6508444  3
   3493   3482   3483   3503     1  0.0000000  0.6508444  3
   3498   3493   3482   3500     1  0.0000000  4.9162000  2
   3498   3493   3482   3500     1  0.0000000  0.6024960  3
   3500   3482   3483   3503     1  0.0000000  4.9162000  2
   3500   3482   3483   3503     1  0.0000000  0.6024960  3
   3500   3487   3486   3505     1  0.0000000  0.6508444  3
   3506   3508   3510   3514     1  0.0000000  0.6508444  3
   3508   3510   3514   3515     1  180.0000771  2.0083200  2
   3508   3510   3514   3515     1  0.0000000  1.2552000  3
   3508   3510   3514   3516     1  180.0000771  2.0083200  2
   3508   3510   3514   3516     1  0.0000000  1.2552000  3
   3510   3514   3515   3526     1  180.0000771  2.0083200  2
   3510   3514   3515   3526     1  0.0000000  1.2552000  3
   3510   3514   3516   3518     1  180.0000771  2.0083200  2
   3510   3514   3516   3518     1  0.0000000  1.2552000  3
   3514   3515   3526   3529     1  0.0000000  0.6508444  3
   3514   3516   3518   3522     1  0.0000000  0.6508444  3
   3515   3526   3529   3530     1  180.0000771  0.0000000  2
   3515   3526   3529   3578     1  180.0000771  0.0000000  2
   3515   3514   3516   3518     1  180.0000771  2.0083200  2
   3515   3514   3516   3518     1  0.0000000  1.2552000  3
   3516   3518   3522   3523     1  180.0000771  0.0000000  2
   3516   3518   3522   3554     1  180.0000771  0.0000000  2
   3516   3514   3515   3526     1  180.0000771  2.0083200  2
   3516   3514   3515   3526     1  0.0000000  1.2552000  3
   3518   3522   3554   3535     1  180.0000771  6.0668000  2
   3518   3522   3554   3535     1  180.0000771  1.4644000  4
   3522   3554   3535   3536     1  0.0000000  1.2552000  3
   3522   3554   3535   3534     1  0.0000000  1.2552000  3
   3523   3522   3554   3535     1  180.0000771  6.0668000  2
   3523   3522   3554   3535     1  180.0000771  1.4644000  4
   3526   3529   3578   3559     1  180.0000771  6.0668000  2
   3526   3529   3578   3559     1  180.0000771  1.4644000  4
   3529   3578   3559   3560     1  0.0000000  1.2552000  3
   3529   3578   3559   3558     1  0.0000000  1.2552000  3
   3530   3529   3578   3559     1  180.0000771  6.0668000  2
   3530   3529   3578   3559     1  180.0000771  1.4644000  4
   3531   3532   3534   3535     1  180.0000771  0.8368000  1
   3531   3532   3534   3535     1  180.0000771  1.0460000  2
   3531   3532   3534   3535     1  0.0000000  0.7531200  3
   3531   3532   3534   3541     1  0.0000000  0.6508444  3
   3531   3549   3536   3540     1  0.0000000  1.6038667  3
   3531   3549   3536   3535     1  180.0000771  0.4184000  2
   3531   3549   3536   3535     1  0.0000000  1.6024720  3
   3532   3534   3535   3536     1  180.0000771  0.8368000  1
   3532   3534   3535   3536     1  180.0000771  1.0460000  2
   3532   3534   3535   3536     1  0.0000000  0.7531200  3
   3532   3534   3535   3554     1  0.0000000  0.6508444  3
   3532   3531   3542   3547     1  0.0000000  0.6508444  3
   3532   3531   3549   3536     1  180.0000771  0.4184000  2
   3532   3531   3549   3536     1  0.0000000  1.6024720  3
   3534   3535   3536   3540     1  0.0000000  0.6508444  3
   3534   3535   3536   3549     1  0.0000000  0.6508444  3
   3534   3532   3531   3542     1  180.0000771  0.8368000  1
   3534   3532   3531   3542     1  180.0000771  1.0460000  2
   3534   3532   3531   3542     1  0.0000000  0.7531200  3
   3534   3532   3531   3549     1  0.0000000  0.6508444  3
   3535   3534   3532   3552     1  0.0000000  0.6508444  3
   3536   3549   3531   3542     1  180.0000771  0.4184000  2
   3536   3549   3531   3542     1  0.0000000  1.6024720  3
   3536   3535   3534   3541     1  0.0000000  0.6508444  3
   3540   3536   3535   3554     1  0.0000000  0.6508444  3
   3541   3534   3535   3554     1  0.0000000  0.6508444  3
   3541   3534   3532   3552     1  0.0000000  4.9162000  2
   3541   3534   3532   3552     1  0.0000000  0.6024960  3
   3542   3531   3532   3552     1  0.0000000  0.6508444  3
   3547   3542   3531   3549     1  0.0000000  4.9162000  2
   3547   3542   3531   3549     1  0.0000000  0.6024960  3
   3549   3536   3535   3554     1  0.0000000  0.6508444  3
   3549   3531   3532   3552     1  0.0000000  4.9162000  2
   3549   3531   3532   3552     1  0.0000000  0.6024960  3
   3555   3556   3558   3559     1  180.0000771  0.8368000  1
   3555   3556   3558   3559     1  180.0000771  1.0460000  2
   3555   3556   3558   3559     1  0.0000000  0.7531200  3
   3555   3556   3558   3565     1  0.0000000  0.6508444  3
   3555   3573   3560   3564     1  0.0000000  1.6038667  3
   3555   3573   3560   3559     1  180.0000771  0.4184000  2
   3555   3573   3560   3559     1  0.0000000  1.6024720  3
   3556   3558   3559   3560     1  180.0000771  0.8368000  1
   3556   3558   3559   3560     1  180.0000771  1.0460000  2
   3556   3558   3559   3560     1  0.0000000  0.7531200  3
   3556   3558   3559   3578     1  0.0000000  0.6508444  3
   3556   3555   3566   3571     1  0.0000000  0.6508444  3
   3556   3555   3573   3560     1  180.0000771  0.4184000  2
   3556   3555   3573   3560     1  0.0000000  1.6024720  3
   3558   3559   3560   3564     1  0.0000000  0.6508444  3
   3558   3559   3560   3573     1  0.0000000  0.6508444  3
   3558   3556   3555   3566     1  180.0000771  0.8368000  1
   3558   3556   3555   3566     1  180.0000771  1.0460000  2
   3558   3556   3555   3566     1  0.0000000  0.7531200  3
   3558   3556   3555   3573     1  0.0000000  0.6508444  3
   3559   3558   3556   3576     1  0.0000000  0.6508444  3
   3560   3573   3555   3566     1  180.0000771  0.4184000  2
   3560   3573   3555   3566     1  0.0000000  1.6024720  3
   3560   3559   3558   3565     1  0.0000000  0.6508444  3
   3564   3560   3559   3578     1  0.0000000  0.6508444  3
   3565   3558   3559   3578     1  0.0000000  0.6508444  3
   3565   3558   3556   3576     1  0.0000000  4.9162000  2
   3565   3558   3556   3576     1  0.0000000  0.6024960  3
   3566   3555   3556   3576     1  0.0000000  0.6508444  3
   3571   3566   3555   3573     1  0.0000000  4.9162000  2
   3571   3566   3555   3573     1  0.0000000  0.6024960  3
   3573   3560   3559   3578     1  0.0000000  0.6508444  3
   3573   3555   3556   3576     1  0.0000000  4.9162000  2
   3573   3555   3556   3576     1  0.0000000  0.6024960  3
   3579   3581   3583   3587     1  0.0000000  0.6508444  3
   3581   3583   3587   3588     1  180.0000771  2.0083200  2
   3581   3583   3587   3588     1  0.0000000  1.2552000  3
   3581   3583   3587   3589     1  180.0000771  2.0083200  2
   3581   3583   3587   3589     1  0.0000000  1.2552000  3
   3583   3587   3588   3599     1  180.0000771  2.0083200  2
   3583   3587   3588   3599     1  0.0000000  1.2552000  3
   3583   3587   3589   3591     1  180.0000771  2.0083200  2
   3583   3587   3589   3591     1  0.0000000  1.2552000  3
   3587   3588   3599   3602     1  0.0000000  0.6508444  3
   3587   3589   3591   3595     1  0.0000000  0.6508444  3
   3588   3587   3589   3591     1  180.0000771  2.0083200  2
   3588   3587   3589   3591     1  0.0000000  1.2552000  3
   3588   3599   3602   3603     1  180.0000771  0.0000000  2
   3588   3599   3602   3651     1  180.0000771  0.0000000  2
   3589   3587   3588   3599     1  180.0000771  2.0083200  2
   3589   3587   3588   3599     1  0.0000000  1.2552000  3
   3589   3591   3595   3596     1  180.0000771  0.0000000  2
   3589   3591   3595   3627     1  180.0000771  0.0000000  2
   3591   3595   3627   3608     1  180.0000771  6.0668000  2
   3591   3595   3627   3608     1  180.0000771  1.4644000  4
   3595   3627   3608   3607     1  0.0000000  1.2552000  3
   3595   3627   3608   3609     1  0.0000000  1.2552000  3
   3596   3595   3627   3608     1  180.0000771  6.0668000  2
   3596   3595   3627   3608     1  180.0000771  1.4644000  4
   3599   3602   3651   3632     1  180.0000771  6.0668000  2
   3599   3602   3651   3632     1  180.0000771  1.4644000  4
   3602   3651   3632   3631     1  0.0000000  1.2552000  3
   3602   3651   3632   3633     1  0.0000000  1.2552000  3
   3603   3602   3651   3632     1  180.0000771  6.0668000  2
   3603   3602   3651   3632     1  180.0000771  1.4644000  4
   3604   3605   3607   3608     1  180.0000771  0.8368000  1
   3604   3605   3607   3608     1  180.0000771  1.0460000  2
   3604   3605   3607   3608     1  0.0000000  0.7531200  3
   3604   3605   3607   3614     1  0.0000000  0.6508444  3
   3604   3622   3609   3608     1  180.0000771  0.4184000  2
   3604   3622   3609   3608     1  0.0000000  1.6024720  3
   3604   3622   3609   3613     1  0.0000000  1.6038667  3
   3605   3604   3615   3620     1  0.0000000  0.6508444  3
   3605   3604   3622   3609     1  180.0000771  0.4184000  2
   3605   3604   3622   3609     1  0.0000000  1.6024720  3
   3605   3607   3608   3609     1  180.0000771  0.8368000  1
   3605   3607   3608   3609     1  180.0000771  1.0460000  2
   3605   3607   3608   3609     1  0.0000000  0.7531200  3
   3605   3607   3608   3627     1  0.0000000  0.6508444  3
   3607   3605   3604   3615     1  180.0000771  0.8368000  1
   3607   3605   3604   3615     1  180.0000771  1.0460000  2
   3607   3605   3604   3615     1  0.0000000  0.7531200  3
   3607   3605   3604   3622     1  0.0000000  0.6508444  3
   3607   3608   3609   3613     1  0.0000000  0.6508444  3
   3607   3608   3609   3622     1  0.0000000  0.6508444  3
   3608   3607   3605   3625     1  0.0000000  0.6508444  3
   3609   3608   3607   3614     1  0.0000000  0.6508444  3
   3609   3622   3604   3615     1  180.0000771  0.4184000  2
   3609   3622   3604   3615     1  0.0000000  1.6024720  3
   3613   3609   3608   3627     1  0.0000000  0.6508444  3
   3614   3607   3605   3625     1  0.0000000  4.9162000  2
   3614   3607   3605   3625     1  0.0000000  0.6024960  3
   3614   3607   3608   3627     1  0.0000000  0.6508444  3
   3615   3604   3605   3625     1  0.0000000  0.6508444  3
   3620   3615   3604   3622     1  0.0000000  4.9162000  2
   3620   3615   3604   3622     1  0.0000000  0.6024960  3
   3622   3604   3605   3625     1  0.0000000  4.9162000  2
   3622   3604   3605   3625     1  0.0000000  0.6024960  3
   3622   3609   3608   3627     1  0.0000000  0.6508444  3
   3628   3629   3631   3632     1  180.0000771  0.8368000  1
   3628   3629   3631   3632     1  180.0000771  1.0460000  2
   3628   3629   3631   3632     1  0.0000000  0.7531200  3
   3628   3629   3631   3638     1  0.0000000  0.6508444  3
   3628   3646   3633   3632     1  180.0000771  0.4184000  2
   3628   3646   3633   3632     1  0.0000000  1.6024720  3
   3628   3646   3633   3637     1  0.0000000  1.6038667  3
   3629   3628   3639   3644     1  0.0000000  0.6508444  3
   3629   3628   3646   3633     1  180.0000771  0.4184000  2
   3629   3628   3646   3633     1  0.0000000  1.6024720  3
   3629   3631   3632   3633     1  180.0000771  0.8368000  1
   3629   3631   3632   3633     1  180.0000771  1.0460000  2
   3629   3631   3632   3633     1  0.0000000  0.7531200  3
   3629   3631   3632   3651     1  0.0000000  0.6508444  3
   3631   3629   3628   3639     1  180.0000771  0.8368000  1
   3631   3629   3628   3639     1  180.0000771  1.0460000  2
   3631   3629   3628   3639     1  0.0000000  0.7531200  3
   3631   3629   3628   3646     1  0.0000000  0.6508444  3
   3631   3632   3633   3637     1  0.0000000  0.6508444  3
   3631   3632   3633   3646     1  0.0000000  0.6508444  3
   3632   3631   3629   3649     1  0.0000000  0.6508444  3
   3633   3632   3631   3638     1  0.0000000  0.6508444  3
   3633   3646   3628   3639     1  180.0000771  0.4184000  2
   3633   3646   3628   3639     1  0.0000000  1.6024720  3
   3637   3633   3632   3651     1  0.0000000  0.6508444  3
   3638   3631   3629   3649     1  0.0000000  4.9162000  2
   3638   3631   3629   3649     1  0.0000000  0.6024960  3
   3638   3631   3632   3651     1  0.0000000  0.6508444  3
   3639   3628   3629   3649     1  0.0000000  0.6508444  3
   3644   3639   3628   3646     1  0.0000000  4.9162000  2
   3644   3639   3628   3646     1  0.0000000  0.6024960  3
   3646   3628   3629   3649     1  0.0000000  4.9162000  2
   3646   3628   3629   3649     1  0.0000000  0.6024960  3
   3646   3633   3632   3651     1  0.0000000  0.6508444  3
   3652   3654   3656   3660     1  0.0000000  0.6508444  3
   3654   3656   3660   3661     1  180.0000771  2.0083200  2
   3654   3656   3660   3661     1  0.0000000  1.2552000  3
   3654   3656   3660   3662     1  180.0000771  2.0083200  2
   3654   3656   3660   3662     1  0.0000000  1.2552000  3
   3656   3660   3661   3672     1  180.0000771  2.0083200  2
   3656   3660   3661   3672     1  0.0000000  1.2552000  3
   3656   3660   3662   3664     1  180.0000771  2.0083200  2
   3656   3660   3662   3664     1  0.0000000  1.2552000  3
   3660   3661   3672   3675     1  0.0000000  0.6508444  3
   3660   3662   3664   3668     1  0.0000000  0.6508444  3
   3661   3672   3675   3676     1  180.0000771  0.0000000  2
   3661   3672   3675   3724     1  180.0000771  0.0000000  2
   3661   3660   3662   3664     1  180.0000771  2.0083200  2
   3661   3660   3662   3664     1  0.0000000  1.2552000  3
   3662   3664   3668   3669     1  180.0000771  0.0000000  2
   3662   3664   3668   3700     1  180.0000771  0.0000000  2
   3662   3660   3661   3672     1  180.0000771  2.0083200  2
   3662   3660   3661   3672     1  0.0000000  1.2552000  3
   3664   3668   3700   3681     1  180.0000771  6.0668000  2
   3664   3668   3700   3681     1  180.0000771  1.4644000  4
   3668   3700   3681   3682     1  0.0000000  1.2552000  3
   3668   3700   3681   3680     1  0.0000000  1.2552000  3
   3669   3668   3700   3681     1  180.0000771  6.0668000  2
   3669   3668   3700   3681     1  180.0000771  1.4644000  4
   3672   3675   3724   3705     1  180.0000771  6.0668000  2
   3672   3675   3724   3705     1  180.0000771  1.4644000  4
   3675   3724   3705   3706     1  0.0000000  1.2552000  3
   3675   3724   3705   3704     1  0.0000000  1.2552000  3
   3676   3675   3724   3705     1  180.0000771  6.0668000  2
   3676   3675   3724   3705     1  180.0000771  1.4644000  4
   3677   3678   3680   3681     1  180.0000771  0.8368000  1
   3677   3678   3680   3681     1  180.0000771  1.0460000  2
   3677   3678   3680   3681     1  0.0000000  0.7531200  3
   3677   3678   3680   3687     1  0.0000000  0.6508444  3
   3677   3695   3682   3686     1  0.0000000  1.6038667  3
   3677   3695   3682   3681     1  180.0000771  0.4184000  2
   3677   3695   3682   3681     1  0.0000000  1.6024720  3
   3678   3680   3681   3682     1  180.0000771  0.8368000  1
   3678   3680   3681   3682     1  180.0000771  1.0460000  2
   3678   3680   3681   3682     1  0.0000000  0.7531200  3
   3678   3680   3681   3700     1  0.0000000  0.6508444  3
   3678   3677   3688   3693     1  0.0000000  0.6508444  3
   3678   3677   3695   3682     1  180.0000771  0.4184000  2
   3678   3677   3695   3682     1  0.0000000  1.6024720  3
   3680   3681   3682   3686     1  0.0000000  0.6508444  3
   3680   3681   3682   3695     1  0.0000000  0.6508444  3
   3680   3678   3677   3688     1  180.0000771  0.8368000  1
   3680   3678   3677   3688     1  180.0000771  1.0460000  2
   3680   3678   3677   3688     1  0.0000000  0.7531200  3
   3680   3678   3677   3695     1  0.0000000  0.6508444  3
   3681   3680   3678   3698     1  0.0000000  0.6508444  3
   3682   3695   3677   3688     1  180.0000771  0.4184000  2
   3682   3695   3677   3688     1  0.0000000  1.6024720  3
   3682   3681   3680   3687     1  0.0000000  0.6508444  3
   3686   3682   3681   3700     1  0.0000000  0.6508444  3
   3687   3680   3681   3700     1  0.0000000  0.6508444  3
   3687   3680   3678   3698     1  0.0000000  4.9162000  2
   3687   3680   3678   3698     1  0.0000000  0.6024960  3
   3688   3677   3678   3698     1  0.0000000  0.6508444  3
   3693   3688   3677   3695     1  0.0000000  4.9162000  2
   3693   3688   3677   3695     1  0.0000000  0.6024960  3
   3695   3682   3681   3700     1  0.0000000  0.6508444  3
   3695   3677   3678   3698     1  0.0000000  4.9162000  2
   3695   3677   3678   3698     1  0.0000000  0.6024960  3
   3701   3702   3704   3705     1  180.0000771  0.8368000  1
   3701   3702   3704   3705     1  180.0000771  1.0460000  2
   3701   3702   3704   3705     1  0.0000000  0.7531200  3
   3701   3702   3704   3711     1  0.0000000  0.6508444  3
   3701   3719   3706   3710     1  0.0000000  1.6038667  3
   3701   3719   3706   3705     1  180.0000771  0.4184000  2
   3701   3719   3706   3705     1  0.0000000  1.6024720  3
   3702   3704   3705   3706     1  180.0000771  0.8368000  1
   3702   3704   3705   3706     1  180.0000771  1.0460000  2
   3702   3704   3705   3706     1  0.0000000  0.7531200  3
   3702   3704   3705   3724     1  0.0000000  0.6508444  3
   3702   3701   3712   3717     1  0.0000000  0.6508444  3
   3702   3701   3719   3706     1  180.0000771  0.4184000  2
   3702   3701   3719   3706     1  0.0000000  1.6024720  3
   3704   3705   3706   3710     1  0.0000000  0.6508444  3
   3704   3705   3706   3719     1  0.0000000  0.6508444  3
   3704   3702   3701   3712     1  180.0000771  0.8368000  1
   3704   3702   3701   3712     1  180.0000771  1.0460000  2
   3704   3702   3701   3712     1  0.0000000  0.7531200  3
   3704   3702   3701   3719     1  0.0000000  0.6508444  3
   3705   3704   3702   3722     1  0.0000000  0.6508444  3
   3706   3719   3701   3712     1  180.0000771  0.4184000  2
   3706   3719   3701   3712     1  0.0000000  1.6024720  3
   3706   3705   3704   3711     1  0.0000000  0.6508444  3
   3710   3706   3705   3724     1  0.0000000  0.6508444  3
   3711   3704   3705   3724     1  0.0000000  0.6508444  3
   3711   3704   3702   3722     1  0.0000000  4.9162000  2
   3711   3704   3702   3722     1  0.0000000  0.6024960  3
   3712   3701   3702   3722     1  0.0000000  0.6508444  3
   3717   3712   3701   3719     1  0.0000000  4.9162000  2
   3717   3712   3701   3719     1  0.0000000  0.6024960  3
   3719   3706   3705   3724     1  0.0000000  0.6508444  3
   3719   3701   3702   3722     1  0.0000000  4.9162000  2
   3719   3701   3702   3722     1  0.0000000  0.6024960  3
   3725   3727   3729   3733     1  0.0000000  0.6508444  3
   3727   3729   3733   3734     1  180.0000771  2.0083200  2
   3727   3729   3733   3734     1  0.0000000  1.2552000  3
   3727   3729   3733   3735     1  180.0000771  2.0083200  2
   3727   3729   3733   3735     1  0.0000000  1.2552000  3
   3729   3733   3734   3745     1  180.0000771  2.0083200  2
   3729   3733   3734   3745     1  0.0000000  1.2552000  3
   3729   3733   3735   3737     1  180.0000771  2.0083200  2
   3729   3733   3735   3737     1  0.0000000  1.2552000  3
   3733   3734   3745   3748     1  0.0000000  0.6508444  3
   3733   3735   3737   3741     1  0.0000000  0.6508444  3
   3734   3733   3735   3737     1  180.0000771  2.0083200  2
   3734   3733   3735   3737     1  0.0000000  1.2552000  3
   3734   3745   3748   3749     1  180.0000771  0.0000000  2
   3734   3745   3748   3797     1  180.0000771  0.0000000  2
   3735   3733   3734   3745     1  180.0000771  2.0083200  2
   3735   3733   3734   3745     1  0.0000000  1.2552000  3
   3735   3737   3741   3742     1  180.0000771  0.0000000  2
   3735   3737   3741   3773     1  180.0000771  0.0000000  2
   3737   3741   3773   3754     1  180.0000771  6.0668000  2
   3737   3741   3773   3754     1  180.0000771  1.4644000  4
   3741   3773   3754   3753     1  0.0000000  1.2552000  3
   3741   3773   3754   3755     1  0.0000000  1.2552000  3
   3742   3741   3773   3754     1  180.0000771  6.0668000  2
   3742   3741   3773   3754     1  180.0000771  1.4644000  4
   3745   3748   3797   3778     1  180.0000771  6.0668000  2
   3745   3748   3797   3778     1  180.0000771  1.4644000  4
   3748   3797   3778   3777     1  0.0000000  1.2552000  3
   3748   3797   3778   3779     1  0.0000000  1.2552000  3
   3749   3748   3797   3778     1  180.0000771  6.0668000  2
   3749   3748   3797   3778     1  180.0000771  1.4644000  4
   3750   3751   3753   3754     1  180.0000771  0.8368000  1
   3750   3751   3753   3754     1  180.0000771  1.0460000  2
   3750   3751   3753   3754     1  0.0000000  0.7531200  3
   3750   3751   3753   3760     1  0.0000000  0.6508444  3
   3750   3768   3755   3754     1  180.0000771  0.4184000  2
   3750   3768   3755   3754     1  0.0000000  1.6024720  3
   3750   3768   3755   3759     1  0.0000000  1.6038667  3
   3751   3750   3761   3766     1  0.0000000  0.6508444  3
   3751   3750   3768   3755     1  180.0000771  0.4184000  2
   3751   3750   3768   3755     1  0.0000000  1.6024720  3
   3751   3753   3754   3755     1  180.0000771  0.8368000  1
   3751   3753   3754   3755     1  180.0000771  1.0460000  2
   3751   3753   3754   3755     1  0.0000000  0.7531200  3
   3751   3753   3754   3773     1  0.0000000  0.6508444  3
   3753   3751   3750   3761     1  180.0000771  0.8368000  1
   3753   3751   3750   3761     1  180.0000771  1.0460000  2
   3753   3751   3750   3761     1  0.0000000  0.7531200  3
   3753   3751   3750   3768     1  0.0000000  0.6508444  3
   3753   3754   3755   3759     1  0.0000000  0.6508444  3
   3753   3754   3755   3768     1  0.0000000  0.6508444  3
   3754   3753   3751   3771     1  0.0000000  0.6508444  3
   3755   3754   3753   3760     1  0.0000000  0.6508444  3
   3755   3768   3750   3761     1  180.0000771  0.4184000  2
   3755   3768   3750   3761     1  0.0000000  1.6024720  3
   3759   3755   3754   3773     1  0.0000000  0.6508444  3
   3760   3753   3751   3771     1  0.0000000  4.9162000  2
   3760   3753   3751   3771     1  0.0000000  0.6024960  3
   3760   3753   3754   3773     1  0.0000000  0.6508444  3
   3761   3750   3751   3771     1  0.0000000  0.6508444  3
   3766   3761   3750   3768     1  0.0000000  4.9162000  2
   3766   3761   3750   3768     1  0.0000000  0.6024960  3
   3768   3750   3751   3771     1  0.0000000  4.9162000  2
   3768   3750   3751   3771     1  0.0000000  0.6024960  3
   3768   3755   3754   3773     1  0.0000000  0.6508444  3
   3774   3775   3777   3778     1  180.0000771  0.8368000  1
   3774   3775   3777   3778     1  180.0000771  1.0460000  2
   3774   3775   3777   3778     1  0.0000000  0.7531200  3
   3774   3775   3777   3784     1  0.0000000  0.6508444  3
   3774   3792   3779   3778     1  180.0000771  0.4184000  2
   3774   3792   3779   3778     1  0.0000000  1.6024720  3
   3774   3792   3779   3783     1  0.0000000  1.6038667  3
   3775   3774   3785   3790     1  0.0000000  0.6508444  3
   3775   3774   3792   3779     1  180.0000771  0.4184000  2
   3775   3774   3792   3779     1  0.0000000  1.6024720  3
   3775   3777   3778   3779     1  180.0000771  0.8368000  1
   3775   3777   3778   3779     1  180.0000771  1.0460000  2
   3775   3777   3778   3779     1  0.0000000  0.7531200  3
   3775   3777   3778   3797     1  0.0000000  0.6508444  3
   3777   3775   3774   3785     1  180.0000771  0.8368000  1
   3777   3775   3774   3785     1  180.0000771  1.0460000  2
   3777   3775   3774   3785     1  0.0000000  0.7531200  3
   3777   3775   3774   3792     1  0.0000000  0.6508444  3
   3777   3778   3779   3783     1  0.0000000  0.6508444  3
   3777   3778   3779   3792     1  0.0000000  0.6508444  3
   3778   3777   3775   3795     1  0.0000000  0.6508444  3
   3779   3778   3777   3784     1  0.0000000  0.6508444  3
   3779   3792   3774   3785     1  180.0000771  0.4184000  2
   3779   3792   3774   3785     1  0.0000000  1.6024720  3
   3783   3779   3778   3797     1  0.0000000  0.6508444  3
   3784   3777   3775   3795     1  0.0000000  4.9162000  2
   3784   3777   3775   3795     1  0.0000000  0.6024960  3
   3784   3777   3778   3797     1  0.0000000  0.6508444  3
   3785   3774   3775   3795     1  0.0000000  0.6508444  3
   3790   3785   3774   3792     1  0.0000000  4.9162000  2
   3790   3785   3774   3792     1  0.0000000  0.6024960  3
   3792   3774   3775   3795     1  0.0000000  4.9162000  2
   3792   3774   3775   3795     1  0.0000000  0.6024960  3
   3792   3779   3778   3797     1  0.0000000  0.6508444  3
   3798   3800   3802   3806     1  0.0000000  0.6508444  3
   3800   3802   3806   3807     1  180.0000771  2.0083200  2
   3800   3802   3806   3807     1  0.0000000  1.2552000  3
   3800   3802   3806   3808     1  180.0000771  2.0083200  2
   3800   3802   3806   3808     1  0.0000000  1.2552000  3
   3802   3806   3807   3818     1  180.0000771  2.0083200  2
   3802   3806   3807   3818     1  0.0000000  1.2552000  3
   3802   3806   3808   3810     1  180.0000771  2.0083200  2
   3802   3806   3808   3810     1  0.0000000  1.2552000  3
   3806   3807   3818   3821     1  0.0000000  0.6508444  3
   3806   3808   3810   3814     1  0.0000000  0.6508444  3
   3807   3818   3821   3822     1  180.0000771  0.0000000  2
   3807   3818   3821   3870     1  180.0000771  0.0000000  2
   3807   3806   3808   3810     1  180.0000771  2.0083200  2
   3807   3806   3808   3810     1  0.0000000  1.2552000  3
   3808   3810   3814   3815     1  180.0000771  0.0000000  2
   3808   3810   3814   3846     1  180.0000771  0.0000000  2
   3808   3806   3807   3818     1  180.0000771  2.0083200  2
   3808   3806   3807   3818     1  0.0000000  1.2552000  3
   3810   3814   3846   3827     1  180.0000771  6.0668000  2
   3810   3814   3846   3827     1  180.0000771  1.4644000  4
   3814   3846   3827   3828     1  0.0000000  1.2552000  3
   3814   3846   3827   3826     1  0.0000000  1.2552000  3
   3815   3814   3846   3827     1  180.0000771  6.0668000  2
   3815   3814   3846   3827     1  180.0000771  1.4644000  4
   3818   3821   3870   3851     1  180.0000771  6.0668000  2
   3818   3821   3870   3851     1  180.0000771  1.4644000  4
   3821   3870   3851   3852     1  0.0000000  1.2552000  3
   3821   3870   3851   3850     1  0.0000000  1.2552000  3
   3822   3821   3870   3851     1  180.0000771  6.0668000  2
   3822   3821   3870   3851     1  180.0000771  1.4644000  4
   3823   3824   3826   3827     1  180.0000771  0.8368000  1
   3823   3824   3826   3827     1  180.0000771  1.0460000  2
   3823   3824   3826   3827     1  0.0000000  0.7531200  3
   3823   3824   3826   3833     1  0.0000000  0.6508444  3
   3823   3841   3828   3832     1  0.0000000  1.6038667  3
   3823   3841   3828   3827     1  180.0000771  0.4184000  2
   3823   3841   3828   3827     1  0.0000000  1.6024720  3
   3824   3826   3827   3828     1  180.0000771  0.8368000  1
   3824   3826   3827   3828     1  180.0000771  1.0460000  2
   3824   3826   3827   3828     1  0.0000000  0.7531200  3
   3824   3826   3827   3846     1  0.0000000  0.6508444  3
   3824   3823   3834   3839     1  0.0000000  0.6508444  3
   3824   3823   3841   3828     1  180.0000771  0.4184000  2
   3824   3823   3841   3828     1  0.0000000  1.6024720  3
   3826   3827   3828   3832     1  0.0000000  0.6508444  3
   3826   3827   3828   3841     1  0.0000000  0.6508444  3
   3826   3824   3823   3834     1  180.0000771  0.8368000  1
   3826   3824   3823   3834     1  180.0000771  1.0460000  2
   3826   3824   3823   3834     1  0.0000000  0.7531200  3
   3826   3824   3823   3841     1  0.0000000  0.6508444  3
   3827   3826   3824   3844     1  0.0000000  0.6508444  3
   3828   3841   3823   3834     1  180.0000771  0.4184000  2
   3828   3841   3823   3834     1  0.0000000  1.6024720  3
   3828   3827   3826   3833     1  0.0000000  0.6508444  3
   3832   3828   3827   3846     1  0.0000000  0.6508444  3
   3833   3826   3827   3846     1  0.0000000  0.6508444  3
   3833   3826   3824   3844     1  0.0000000  4.9162000  2
   3833   3826   3824   3844     1  0.0000000  0.6024960  3
   3834   3823   3824   3844     1  0.0000000  0.6508444  3
   3839   3834   3823   3841     1  0.0000000  4.9162000  2
   3839   3834   3823   3841     1  0.0000000  0.6024960  3
   3841   3828   3827   3846     1  0.0000000  0.6508444  3
   3841   3823   3824   3844     1  0.0000000  4.9162000  2
   3841   3823   3824   3844     1  0.0000000  0.6024960  3
   3847   3848   3850   3851     1  180.0000771  0.8368000  1
   3847   3848   3850   3851     1  180.0000771  1.0460000  2
   3847   3848   3850   3851     1  0.0000000  0.7531200  3
   3847   3848   3850   3857     1  0.0000000  0.6508444  3
   3847   3865   3852   3856     1  0.0000000  1.6038667  3
   3847   3865   3852   3851     1  180.0000771  0.4184000  2
   3847   3865   3852   3851     1  0.0000000  1.6024720  3
   3848   3850   3851   3852     1  180.0000771  0.8368000  1
   3848   3850   3851   3852     1  180.0000771  1.0460000  2
   3848   3850   3851   3852     1  0.0000000  0.7531200  3
   3848   3850   3851   3870     1  0.0000000  0.6508444  3
   3848   3847   3858   3863     1  0.0000000  0.6508444  3
   3848   3847   3865   3852     1  180.0000771  0.4184000  2
   3848   3847   3865   3852     1  0.0000000  1.6024720  3
   3850   3851   3852   3856     1  0.0000000  0.6508444  3
   3850   3851   3852   3865     1  0.0000000  0.6508444  3
   3850   3848   3847   3858     1  180.0000771  0.8368000  1
   3850   3848   3847   3858     1  180.0000771  1.0460000  2
   3850   3848   3847   3858     1  0.0000000  0.7531200  3
   3850   3848   3847   3865     1  0.0000000  0.6508444  3
   3851   3850   3848   3868     1  0.0000000  0.6508444  3
   3852   3865   3847   3858     1  180.0000771  0.4184000  2
   3852   3865   3847   3858     1  0.0000000  1.6024720  3
   3852   3851   3850   3857     1  0.0000000  0.6508444  3
   3856   3852   3851   3870     1  0.0000000  0.6508444  3
   3857   3850   3851   3870     1  0.0000000  0.6508444  3
   3857   3850   3848   3868     1  0.0000000  4.9162000  2
   3857   3850   3848   3868     1  0.0000000  0.6024960  3
   3858   3847   3848   3868     1  0.0000000  0.6508444  3
   3863   3858   3847   3865     1  0.0000000  4.9162000  2
   3863   3858   3847   3865     1  0.0000000  0.6024960  3
   3865   3852   3851   3870     1  0.0000000  0.6508444  3
   3865   3847   3848   3868     1  0.0000000  4.9162000  2
   3865   3847   3848   3868     1  0.0000000  0.6024960  3
   3871   3873   3875   3879     1  0.0000000  0.6508444  3
   3873   3875   3879   3880     1  180.0000771  2.0083200  2
   3873   3875   3879   3880     1  0.0000000  1.2552000  3
   3873   3875   3879   3881     1  180.0000771  2.0083200  2
   3873   3875   3879   3881     1  0.0000000  1.2552000  3
   3875   3879   3880   3891     1  180.0000771  2.0083200  2
   3875   3879   3880   3891     1  0.0000000  1.2552000  3
   3875   3879   3881   3883     1  180.0000771  2.0083200  2
   3875   3879   3881   3883     1  0.0000000  1.2552000  3
   3879   3880   3891   3894     1  0.0000000  0.6508444  3
   3879   3881   3883   3887     1  0.0000000  0.6508444  3
   3880   3879   3881   3883     1  180.0000771  2.0083200  2
   3880   3879   3881   3883     1  0.0000000  1.2552000  3
   3880   3891   3894   3895     1  180.0000771  0.0000000  2
   3880   3891   3894   3943     1  180.0000771  0.0000000  2
   3881   3879   3880   3891     1  180.0000771  2.0083200  2
   3881   3879   3880   3891     1  0.0000000  1.2552000  3
   3881   3883   3887   3888     1  180.0000771  0.0000000  2
   3881   3883   3887   3919     1  180.0000771  0.0000000  2
   3883   3887   3919   3900     1  180.0000771  6.0668000  2
   3883   3887   3919   3900     1  180.0000771  1.4644000  4
   3887   3919   3900   3899     1  0.0000000  1.2552000  3
   3887   3919   3900   3901     1  0.0000000  1.2552000  3
   3888   3887   3919   3900     1  180.0000771  6.0668000  2
   3888   3887   3919   3900     1  180.0000771  1.4644000  4
   3891   3894   3943   3924     1  180.0000771  6.0668000  2
   3891   3894   3943   3924     1  180.0000771  1.4644000  4
   3894   3943   3924   3923     1  0.0000000  1.2552000  3
   3894   3943   3924   3925     1  0.0000000  1.2552000  3
   3895   3894   3943   3924     1  180.0000771  6.0668000  2
   3895   3894   3943   3924     1  180.0000771  1.4644000  4
   3896   3897   3899   3900     1  180.0000771  0.8368000  1
   3896   3897   3899   3900     1  180.0000771  1.0460000  2
   3896   3897   3899   3900     1  0.0000000  0.7531200  3
   3896   3897   3899   3906     1  0.0000000  0.6508444  3
   3896   3914   3901   3900     1  180.0000771  0.4184000  2
   3896   3914   3901   3900     1  0.0000000  1.6024720  3
   3896   3914   3901   3905     1  0.0000000  1.6038667  3
   3897   3896   3907   3912     1  0.0000000  0.6508444  3
   3897   3896   3914   3901     1  180.0000771  0.4184000  2
   3897   3896   3914   3901     1  0.0000000  1.6024720  3
   3897   3899   3900   3901     1  180.0000771  0.8368000  1
   3897   3899   3900   3901     1  180.0000771  1.0460000  2
   3897   3899   3900   3901     1  0.0000000  0.7531200  3
   3897   3899   3900   3919     1  0.0000000  0.6508444  3
   3899   3897   3896   3907     1  180.0000771  0.8368000  1
   3899   3897   3896   3907     1  180.0000771  1.0460000  2
   3899   3897   3896   3907     1  0.0000000  0.7531200  3
   3899   3897   3896   3914     1  0.0000000  0.6508444  3
   3899   3900   3901   3905     1  0.0000000  0.6508444  3
   3899   3900   3901   3914     1  0.0000000  0.6508444  3
   3900   3899   3897   3917     1  0.0000000  0.6508444  3
   3901   3900   3899   3906     1  0.0000000  0.6508444  3
   3901   3914   3896   3907     1  180.0000771  0.4184000  2
   3901   3914   3896   3907     1  0.0000000  1.6024720  3
   3905   3901   3900   3919     1  0.0000000  0.6508444  3
   3906   3899   3897   3917     1  0.0000000  4.9162000  2
   3906   3899   3897   3917     1  0.0000000  0.6024960  3
   3906   3899   3900   3919     1  0.0000000  0.6508444  3
   3907   3896   3897   3917     1  0.0000000  0.6508444  3
   3912   3907   3896   3914     1  0.0000000  4.9162000  2
   3912   3907   3896   3914     1  0.0000000  0.6024960  3
   3914   3896   3897   3917     1  0.0000000  4.9162000  2
   3914   3896   3897   3917     1  0.0000000  0.6024960  3
   3914   3901   3900   3919     1  0.0000000  0.6508444  3
   3920   3921   3923   3924     1  180.0000771  0.8368000  1
   3920   3921   3923   3924     1  180.0000771  1.0460000  2
   3920   3921   3923   3924     1  0.0000000  0.7531200  3
   3920   3921   3923   3930     1  0.0000000  0.6508444  3
   3920   3938   3925   3924     1  180.0000771  0.4184000  2
   3920   3938   3925   3924     1  0.0000000  1.6024720  3
   3920   3938   3925   3929     1  0.0000000  1.6038667  3
   3921   3920   3931   3936     1  0.0000000  0.6508444  3
   3921   3920   3938   3925     1  180.0000771  0.4184000  2
   3921   3920   3938   3925     1  0.0000000  1.6024720  3
   3921   3923   3924   3925     1  180.0000771  0.8368000  1
   3921   3923   3924   3925     1  180.0000771  1.0460000  2
   3921   3923   3924   3925     1  0.0000000  0.7531200  3
   3921   3923   3924   3943     1  0.0000000  0.6508444  3
   3923   3921   3920   3931     1  180.0000771  0.8368000  1
   3923   3921   3920   3931     1  180.0000771  1.0460000  2
   3923   3921   3920   3931     1  0.0000000  0.7531200  3
   3923   3921   3920   3938     1  0.0000000  0.6508444  3
   3923   3924   3925   3929     1  0.0000000  0.6508444  3
   3923   3924   3925   3938     1  0.0000000  0.6508444  3
   3924   3923   3921   3941     1  0.0000000  0.6508444  3
   3925   3924   3923   3930     1  0.0000000  0.6508444  3
   3925   3938   3920   3931     1  180.0000771  0.4184000  2
   3925   3938   3920   3931     1  0.0000000  1.6024720  3
   3929   3925   3924   3943     1  0.0000000  0.6508444  3
   3930   3923   3921   3941     1  0.0000000  4.9162000  2
   3930   3923   3921   3941     1  0.0000000  0.6024960  3
   3930   3923   3924   3943     1  0.0000000  0.6508444  3
   3931   3920   3921   3941     1  0.0000000  0.6508444  3
   3936   3931   3920   3938     1  0.0000000  4.9162000  2
   3936   3931   3920   3938     1  0.0000000  0.6024960  3
   3938   3920   3921   3941     1  0.0000000  4.9162000  2
   3938   3920   3921   3941     1  0.0000000  0.6024960  3
   3938   3925   3924   3943     1  0.0000000  0.6508444  3
   3944   3946   3948   3952     1  0.0000000  0.6508444  3
   3946   3948   3952   3953     1  180.0000771  2.0083200  2
   3946   3948   3952   3953     1  0.0000000  1.2552000  3
   3946   3948   3952   3954     1  180.0000771  2.0083200  2
   3946   3948   3952   3954     1  0.0000000  1.2552000  3
   3948   3952   3953   3964     1  180.0000771  2.0083200  2
   3948   3952   3953   3964     1  0.0000000  1.2552000  3
   3948   3952   3954   3956     1  180.0000771  2.0083200  2
   3948   3952   3954   3956     1  0.0000000  1.2552000  3
   3952   3953   3964   3967     1  0.0000000  0.6508444  3
   3952   3954   3956   3960     1  0.0000000  0.6508444  3
   3953   3964   3967   3968     1  180.0000771  0.0000000  2
   3953   3964   3967   4016     1  180.0000771  0.0000000  2
   3953   3952   3954   3956     1  180.0000771  2.0083200  2
   3953   3952   3954   3956     1  0.0000000  1.2552000  3
   3954   3956   3960   3961     1  180.0000771  0.0000000  2
   3954   3956   3960   3992     1  180.0000771  0.0000000  2
   3954   3952   3953   3964     1  180.0000771  2.0083200  2
   3954   3952   3953   3964     1  0.0000000  1.2552000  3
   3956   3960   3992   3973     1  180.0000771  6.0668000  2
   3956   3960   3992   3973     1  180.0000771  1.4644000  4
   3960   3992   3973   3974     1  0.0000000  1.2552000  3
   3960   3992   3973   3972     1  0.0000000  1.2552000  3
   3961   3960   3992   3973     1  180.0000771  6.0668000  2
   3961   3960   3992   3973     1  180.0000771  1.4644000  4
   3964   3967   4016   3997     1  180.0000771  6.0668000  2
   3964   3967   4016   3997     1  180.0000771  1.4644000  4
   3967   4016   3997   3998     1  0.0000000  1.2552000  3
   3967   4016   3997   3996     1  0.0000000  1.2552000  3
   3968   3967   4016   3997     1  180.0000771  6.0668000  2
   3968   3967   4016   3997     1  180.0000771  1.4644000  4
   3969   3970   3972   3973     1  180.0000771  0.8368000  1
   3969   3970   3972   3973     1  180.0000771  1.0460000  2
   3969   3970   3972   3973     1  0.0000000  0.7531200  3
   3969   3970   3972   3979     1  0.0000000  0.6508444  3
   3969   3987   3974   3978     1  0.0000000  1.6038667  3
   3969   3987   3974   3973     1  180.0000771  0.4184000  2
   3969   3987   3974   3973     1  0.0000000  1.6024720  3
   3970   3972   3973   3974     1  180.0000771  0.8368000  1
   3970   3972   3973   3974     1  180.0000771  1.0460000  2
   3970   3972   3973   3974     1  0.0000000  0.7531200  3
   3970   3972   3973   3992     1  0.0000000  0.6508444  3
   3970   3969   3980   3985     1  0.0000000  0.6508444  3
   3970   3969   3987   3974     1  180.0000771  0.4184000  2
   3970   3969   3987   3974     1  0.0000000  1.6024720  3
   3972   3973   3974   3978     1  0.0000000  0.6508444  3
   3972   3973   3974   3987     1  0.0000000  0.6508444  3
   3972   3970   3969   3980     1  180.0000771  0.8368000  1
   3972   3970   3969   3980     1  180.0000771  1.0460000  2
   3972   3970   3969   3980     1  0.0000000  0.7531200  3
   3972   3970   3969   3987     1  0.0000000  0.6508444  3
   3973   3972   3970   3990     1  0.0000000  0.6508444  3
   3974   3987   3969   3980     1  180.0000771  0.4184000  2
   3974   3987   3969   3980     1  0.0000000  1.6024720  3
   3974   3973   3972   3979     1  0.0000000  0.6508444  3
   3978   3974   3973   3992     1  0.0000000  0.6508444  3
   3979   3972   3973   3992     1  0.0000000  0.6508444  3
   3979   3972   3970   3990     1  0.0000000  4.9162000  2
   3979   3972   3970   3990     1  0.0000000  0.6024960  3
   3980   3969   3970   3990     1  0.0000000  0.6508444  3
   3985   3980   3969   3987     1  0.0000000  4.9162000  2
   3985   3980   3969   3987     1  0.0000000  0.6024960  3
   3987   3974   3973   3992     1  0.0000000  0.6508444  3
   3987   3969   3970   3990     1  0.0000000  4.9162000  2
   3987   3969   3970   3990     1  0.0000000  0.6024960  3
   3993   3994   3996   3997     1  180.0000771  0.8368000  1
   3993   3994   3996   3997     1  180.0000771  1.0460000  2
   3993   3994   3996   3997     1  0.0000000  0.7531200  3
   3993   3994   3996   4003     1  0.0000000  0.6508444  3
   3993   4011   3998   4002     1  0.0000000  1.6038667  3
   3993   4011   3998   3997     1  180.0000771  0.4184000  2
   3993   4011   3998   3997     1  0.0000000  1.6024720  3
   3994   3996   3997   3998     1  180.0000771  0.8368000  1
   3994   3996   3997   3998     1  180.0000771  1.0460000  2
   3994   3996   3997   3998     1  0.0000000  0.7531200  3
   3994   3996   3997   4016     1  0.0000000  0.6508444  3
   3994   3993   4004   4009     1  0.0000000  0.6508444  3
   3994   3993   4011   3998     1  180.0000771  0.4184000  2
   3994   3993   4011   3998     1  0.0000000  1.6024720  3
   3996   3997   3998   4002     1  0.0000000  0.6508444  3
   3996   3997   3998   4011     1  0.0000000  0.6508444  3
   3996   3994   3993   4004     1  180.0000771  0.8368000  1
   3996   3994   3993   4004     1  180.0000771  1.0460000  2
   3996   3994   3993   4004     1  0.0000000  0.7531200  3
   3996   3994   3993   4011     1  0.0000000  0.6508444  3
   3997   3996   3994   4014     1  0.0000000  0.6508444  3
   3998   4011   3993   4004     1  180.0000771  0.4184000  2
   3998   4011   3993   4004     1  0.0000000  1.6024720  3
   3998   3997   3996   4003     1  0.0000000  0.6508444  3
   4002   3998   3997   4016     1  0.0000000  0.6508444  3
   4003   3996   3997   4016     1  0.0000000  0.6508444  3
   4003   3996   3994   4014     1  0.0000000  4.9162000  2
   4003   3996   3994   4014     1  0.0000000  0.6024960  3
   4004   3993   3994   4014     1  0.0000000  0.6508444  3
   4009   4004   3993   4011     1  0.0000000  4.9162000  2
   4009   4004   3993   4011     1  0.0000000  0.6024960  3
   4011   3998   3997   4016     1  0.0000000  0.6508444  3
   4011   3993   3994   4014     1  0.0000000  4.9162000  2
   4011   3993   3994   4014     1  0.0000000  0.6024960  3
   4017   4019   4021   4025     1  0.0000000  0.6508444  3
   4019   4021   4025   4026     1  180.0000771  2.0083200  2
   4019   4021   4025   4026     1  0.0000000  1.2552000  3
   4019   4021   4025   4027     1  180.0000771  2.0083200  2
   4019   4021   4025   4027     1  0.0000000  1.2552000  3
   4021   4025   4026   4037     1  180.0000771  2.0083200  2
   4021   4025   4026   4037     1  0.0000000  1.2552000  3
   4021   4025   4027   4029     1  180.0000771  2.0083200  2
   4021   4025   4027   4029     1  0.0000000  1.2552000  3
   4025   4026   4037   4040     1  0.0000000  0.6508444  3
   4025   4027   4029   4033     1  0.0000000  0.6508444  3
   4026   4025   4027   4029     1  180.0000771  2.0083200  2
   4026   4025   4027   4029     1  0.0000000  1.2552000  3
   4026   4037   4040   4041     1  180.0000771  0.0000000  2
   4026   4037   4040   4089     1  180.0000771  0.0000000  2
   4027   4025   4026   4037     1  180.0000771  2.0083200  2
   4027   4025   4026   4037     1  0.0000000  1.2552000  3
   4027   4029   4033   4034     1  180.0000771  0.0000000  2
   4027   4029   4033   4065     1  180.0000771  0.0000000  2
   4029   4033   4065   4046     1  180.0000771  6.0668000  2
   4029   4033   4065   4046     1  180.0000771  1.4644000  4
   4033   4065   4046   4045     1  0.0000000  1.2552000  3
   4033   4065   4046   4047     1  0.0000000  1.2552000  3
   4034   4033   4065   4046     1  180.0000771  6.0668000  2
   4034   4033   4065   4046     1  180.0000771  1.4644000  4
   4037   4040   4089   4070     1  180.0000771  6.0668000  2
   4037   4040   4089   4070     1  180.0000771  1.4644000  4
   4040   4089   4070   4069     1  0.0000000  1.2552000  3
   4040   4089   4070   4071     1  0.0000000  1.2552000  3
   4041   4040   4089   4070     1  180.0000771  6.0668000  2
   4041   4040   4089   4070     1  180.0000771  1.4644000  4
   4042   4043   4045   4046     1  180.0000771  0.8368000  1
   4042   4043   4045   4046     1  180.0000771  1.0460000  2
   4042   4043   4045   4046     1  0.0000000  0.7531200  3
   4042   4043   4045   4052     1  0.0000000  0.6508444  3
   4042   4060   4047   4046     1  180.0000771  0.4184000  2
   4042   4060   4047   4046     1  0.0000000  1.6024720  3
   4042   4060   4047   4051     1  0.0000000  1.6038667  3
   4043   4042   4053   4058     1  0.0000000  0.6508444  3
   4043   4042   4060   4047     1  180.0000771  0.4184000  2
   4043   4042   4060   4047     1  0.0000000  1.6024720  3
   4043   4045   4046   4047     1  180.0000771  0.8368000  1
   4043   4045   4046   4047     1  180.0000771  1.0460000  2
   4043   4045   4046   4047     1  0.0000000  0.7531200  3
   4043   4045   4046   4065     1  0.0000000  0.6508444  3
   4045   4043   4042   4053     1  180.0000771  0.8368000  1
   4045   4043   4042   4053     1  180.0000771  1.0460000  2
   4045   4043   4042   4053     1  0.0000000  0.7531200  3
   4045   4043   4042   4060     1  0.0000000  0.6508444  3
   4045   4046   4047   4051     1  0.0000000  0.6508444  3
   4045   4046   4047   4060     1  0.0000000  0.6508444  3
   4046   4045   4043   4063     1  0.0000000  0.6508444  3
   4047   4046   4045   4052     1  0.0000000  0.6508444  3
   4047   4060   4042   4053     1  180.0000771  0.4184000  2
   4047   4060   4042   4053     1  0.0000000  1.6024720  3
   4051   4047   4046   4065     1  0.0000000  0.6508444  3
   4052   4045   4043   4063     1  0.0000000  4.9162000  2
   4052   4045   4043   4063     1  0.0000000  0.6024960  3
   4052   4045   4046   4065     1  0.0000000  0.6508444  3
   4053   4042   4043   4063     1  0.0000000  0.6508444  3
   4058   4053   4042   4060     1  0.0000000  4.9162000  2
   4058   4053   4042   4060     1  0.0000000  0.6024960  3
   4060   4042   4043   4063     1  0.0000000  4.9162000  2
   4060   4042   4043   4063     1  0.0000000  0.6024960  3
   4060   4047   4046   4065     1  0.0000000  0.6508444  3
   4066   4067   4069   4070     1  180.0000771  0.8368000  1
   4066   4067   4069   4070     1  180.0000771  1.0460000  2
   4066   4067   4069   4070     1  0.0000000  0.7531200  3
   4066   4067   4069   4076     1  0.0000000  0.6508444  3
   4066   4084   4071   4070     1  180.0000771  0.4184000  2
   4066   4084   4071   4070     1  0.0000000  1.6024720  3
   4066   4084   4071   4075     1  0.0000000  1.6038667  3
   4067   4066   4077   4082     1  0.0000000  0.6508444  3
   4067   4066   4084   4071     1  180.0000771  0.4184000  2
   4067   4066   4084   4071     1  0.0000000  1.6024720  3
   4067   4069   4070   4071     1  180.0000771  0.8368000  1
   4067   4069   4070   4071     1  180.0000771  1.0460000  2
   4067   4069   4070   4071     1  0.0000000  0.7531200  3
   4067   4069   4070   4089     1  0.0000000  0.6508444  3
   4069   4067   4066   4077     1  180.0000771  0.8368000  1
   4069   4067   4066   4077     1  180.0000771  1.0460000  2
   4069   4067   4066   4077     1  0.0000000  0.7531200  3
   4069   4067   4066   4084     1  0.0000000  0.6508444  3
   4069   4070   4071   4075     1  0.0000000  0.6508444  3
   4069   4070   4071   4084     1  0.0000000  0.6508444  3
   4070   4069   4067   4087     1  0.0000000  0.6508444  3
   4071   4070   4069   4076     1  0.0000000  0.6508444  3
   4071   4084   4066   4077     1  180.0000771  0.4184000  2
   4071   4084   4066   4077     1  0.0000000  1.6024720  3
   4075   4071   4070   4089     1  0.0000000  0.6508444  3
   4076   4069   4067   4087     1  0.0000000  4.9162000  2
   4076   4069   4067   4087     1  0.0000000  0.6024960  3
   4076   4069   4070   4089     1  0.0000000  0.6508444  3
   4077   4066   4067   4087     1  0.0000000  0.6508444  3
   4082   4077   4066   4084     1  0.0000000  4.9162000  2
   4082   4077   4066   4084     1  0.0000000  0.6024960  3
   4084   4066   4067   4087     1  0.0000000  4.9162000  2
   4084   4066   4067   4087     1  0.0000000  0.6024960  3
   4084   4071   4070   4089     1  0.0000000  0.6508444  3
   4090   4092   4094   4098     1  0.0000000  0.6508444  3
   4092   4094   4098   4099     1  180.0000771  2.0083200  2
   4092   4094   4098   4099     1  0.0000000  1.2552000  3
   4092   4094   4098   4100     1  180.0000771  2.0083200  2
   4092   4094   4098   4100     1  0.0000000  1.2552000  3
   4094   4098   4099   4110     1  180.0000771  2.0083200  2
   4094   4098   4099   4110     1  0.0000000  1.2552000  3
   4094   4098   4100   4102     1  180.0000771  2.0083200  2
   4094   4098   4100   4102     1  0.0000000  1.2552000  3
   4098   4099   4110   4113     1  0.0000000  0.6508444  3
   4098   4100   4102   4106     1  0.0000000  0.6508444  3
   4099   4110   4113   4114     1  180.0000771  0.0000000  2
   4099   4110   4113   4162     1  180.0000771  0.0000000  2
   4099   4098   4100   4102     1  180.0000771  2.0083200  2
   4099   4098   4100   4102     1  0.0000000  1.2552000  3
   4100   4102   4106   4107     1  180.0000771  0.0000000  2
   4100   4102   4106   4138     1  180.0000771  0.0000000  2
   4100   4098   4099   4110     1  180.0000771  2.0083200  2
   4100   4098   4099   4110     1  0.0000000  1.2552000  3
   4102   4106   4138   4119     1  180.0000771  6.0668000  2
   4102   4106   4138   4119     1  180.0000771  1.4644000  4
   4106   4138   4119   4120     1  0.0000000  1.2552000  3
   4106   4138   4119   4118     1  0.0000000  1.2552000  3
   4107   4106   4138   4119     1  180.0000771  6.0668000  2
   4107   4106   4138   4119     1  180.0000771  1.4644000  4
   4110   4113   4162   4143     1  180.0000771  6.0668000  2
   4110   4113   4162   4143     1  180.0000771  1.4644000  4
   4113   4162   4143   4144     1  0.0000000  1.2552000  3
   4113   4162   4143   4142     1  0.0000000  1.2552000  3
   4114   4113   4162   4143     1  180.0000771  6.0668000  2
   4114   4113   4162   4143     1  180.0000771  1.4644000  4
   4115   4116   4118   4119     1  180.0000771  0.8368000  1
   4115   4116   4118   4119     1  180.0000771  1.0460000  2
   4115   4116   4118   4119     1  0.0000000  0.7531200  3
   4115   4116   4118   4125     1  0.0000000  0.6508444  3
   4115   4133   4120   4124     1  0.0000000  1.6038667  3
   4115   4133   4120   4119     1  180.0000771  0.4184000  2
   4115   4133   4120   4119     1  0.0000000  1.6024720  3
   4116   4118   4119   4120     1  180.0000771  0.8368000  1
   4116   4118   4119   4120     1  180.0000771  1.0460000  2
   4116   4118   4119   4120     1  0.0000000  0.7531200  3
   4116   4118   4119   4138     1  0.0000000  0.6508444  3
   4116   4115   4126   4131     1  0.0000000  0.6508444  3
   4116   4115   4133   4120     1  180.0000771  0.4184000  2
   4116   4115   4133   4120     1  0.0000000  1.6024720  3
   4118   4119   4120   4124     1  0.0000000  0.6508444  3
   4118   4119   4120   4133     1  0.0000000  0.6508444  3
   4118   4116   4115   4126     1  180.0000771  0.8368000  1
   4118   4116   4115   4126     1  180.0000771  1.0460000  2
   4118   4116   4115   4126     1  0.0000000  0.7531200  3
   4118   4116   4115   4133     1  0.0000000  0.6508444  3
   4119   4118   4116   4136     1  0.0000000  0.6508444  3
   4120   4133   4115   4126     1  180.0000771  0.4184000  2
   4120   4133   4115   4126     1  0.0000000  1.6024720  3
   4120   4119   4118   4125     1  0.0000000  0.6508444  3
   4124   4120   4119   4138     1  0.0000000  0.6508444  3
   4125   4118   4119   4138     1  0.0000000  0.6508444  3
   4125   4118   4116   4136     1  0.0000000  4.9162000  2
   4125   4118   4116   4136     1  0.0000000  0.6024960  3
   4126   4115   4116   4136     1  0.0000000  0.6508444  3
   4131   4126   4115   4133     1  0.0000000  4.9162000  2
   4131   4126   4115   4133     1  0.0000000  0.6024960  3
   4133   4120   4119   4138     1  0.0000000  0.6508444  3
   4133   4115   4116   4136     1  0.0000000  4.9162000  2
   4133   4115   4116   4136     1  0.0000000  0.6024960  3
   4139   4140   4142   4143     1  180.0000771  0.8368000  1
   4139   4140   4142   4143     1  180.0000771  1.0460000  2
   4139   4140   4142   4143     1  0.0000000  0.7531200  3
   4139   4140   4142   4149     1  0.0000000  0.6508444  3
   4139   4157   4144   4148     1  0.0000000  1.6038667  3
   4139   4157   4144   4143     1  180.0000771  0.4184000  2
   4139   4157   4144   4143     1  0.0000000  1.6024720  3
   4140   4142   4143   4144     1  180.0000771  0.8368000  1
   4140   4142   4143   4144     1  180.0000771  1.0460000  2
   4140   4142   4143   4144     1  0.0000000  0.7531200  3
   4140   4142   4143   4162     1  0.0000000  0.6508444  3
   4140   4139   4150   4155     1  0.0000000  0.6508444  3
   4140   4139   4157   4144     1  180.0000771  0.4184000  2
   4140   4139   4157   4144     1  0.0000000  1.6024720  3
   4142   4143   4144   4148     1  0.0000000  0.6508444  3
   4142   4143   4144   4157     1  0.0000000  0.6508444  3
   4142   4140   4139   4150     1  180.0000771  0.8368000  1
   4142   4140   4139   4150     1  180.0000771  1.0460000  2
   4142   4140   4139   4150     1  0.0000000  0.7531200  3
   4142   4140   4139   4157     1  0.0000000  0.6508444  3
   4143   4142   4140   4160     1  0.0000000  0.6508444  3
   4144   4157   4139   4150     1  180.0000771  0.4184000  2
   4144   4157   4139   4150     1  0.0000000  1.6024720  3
   4144   4143   4142   4149     1  0.0000000  0.6508444  3
   4148   4144   4143   4162     1  0.0000000  0.6508444  3
   4149   4142   4143   4162     1  0.0000000  0.6508444  3
   4149   4142   4140   4160     1  0.0000000  4.9162000  2
   4149   4142   4140   4160     1  0.0000000  0.6024960  3
   4150   4139   4140   4160     1  0.0000000  0.6508444  3
   4155   4150   4139   4157     1  0.0000000  4.9162000  2
   4155   4150   4139   4157     1  0.0000000  0.6024960  3
   4157   4144   4143   4162     1  0.0000000  0.6508444  3
   4157   4139   4140   4160     1  0.0000000  4.9162000  2
   4157   4139   4140   4160     1  0.0000000  0.6024960  3
   4163   4165   4167   4171     1  0.0000000  0.6508444  3
   4165   4167   4171   4172     1  180.0000771  2.0083200  2
   4165   4167   4171   4172     1  0.0000000  1.2552000  3
   4165   4167   4171   4173     1  180.0000771  2.0083200  2
   4165   4167   4171   4173     1  0.0000000  1.2552000  3
   4167   4171   4172   4183     1  180.0000771  2.0083200  2
   4167   4171   4172   4183     1  0.0000000  1.2552000  3
   4167   4171   4173   4175     1  180.0000771  2.0083200  2
   4167   4171   4173   4175     1  0.0000000  1.2552000  3
   4171   4172   4183   4186     1  0.0000000  0.6508444  3
   4171   4173   4175   4179     1  0.0000000  0.6508444  3
   4172   4171   4173   4175     1  180.0000771  2.0083200  2
   4172   4171   4173   4175     1  0.0000000  1.2552000  3
   4172   4183   4186   4187     1  180.0000771  0.0000000  2
   4172   4183   4186   4235     1  180.0000771  0.0000000  2
   4173   4171   4172   4183     1  180.0000771  2.0083200  2
   4173   4171   4172   4183     1  0.0000000  1.2552000  3
   4173   4175   4179   4180     1  180.0000771  0.0000000  2
   4173   4175   4179   4211     1  180.0000771  0.0000000  2
   4175   4179   4211   4192     1  180.0000771  6.0668000  2
   4175   4179   4211   4192     1  180.0000771  1.4644000  4
   4179   4211   4192   4191     1  0.0000000  1.2552000  3
   4179   4211   4192   4193     1  0.0000000  1.2552000  3
   4180   4179   4211   4192     1  180.0000771  6.0668000  2
   4180   4179   4211   4192     1  180.0000771  1.4644000  4
   4183   4186   4235   4216     1  180.0000771  6.0668000  2
   4183   4186   4235   4216     1  180.0000771  1.4644000  4
   4186   4235   4216   4215     1  0.0000000  1.2552000  3
   4186   4235   4216   4217     1  0.0000000  1.2552000  3
   4187   4186   4235   4216     1  180.0000771  6.0668000  2
   4187   4186   4235   4216     1  180.0000771  1.4644000  4
   4188   4189   4191   4192     1  180.0000771  0.8368000  1
   4188   4189   4191   4192     1  180.0000771  1.0460000  2
   4188   4189   4191   4192     1  0.0000000  0.7531200  3
   4188   4189   4191   4198     1  0.0000000  0.6508444  3
   4188   4206   4193   4192     1  180.0000771  0.4184000  2
   4188   4206   4193   4192     1  0.0000000  1.6024720  3
   4188   4206   4193   4197     1  0.0000000  1.6038667  3
   4189   4188   4199   4204     1  0.0000000  0.6508444  3
   4189   4188   4206   4193     1  180.0000771  0.4184000  2
   4189   4188   4206   4193     1  0.0000000  1.6024720  3
   4189   4191   4192   4193     1  180.0000771  0.8368000  1
   4189   4191   4192   4193     1  180.0000771  1.0460000  2
   4189   4191   4192   4193     1  0.0000000  0.7531200  3
   4189   4191   4192   4211     1  0.0000000  0.6508444  3
   4191   4189   4188   4199     1  180.0000771  0.8368000  1
   4191   4189   4188   4199     1  180.0000771  1.0460000  2
   4191   4189   4188   4199     1  0.0000000  0.7531200  3
   4191   4189   4188   4206     1  0.0000000  0.6508444  3
   4191   4192   4193   4197     1  0.0000000  0.6508444  3
   4191   4192   4193   4206     1  0.0000000  0.6508444  3
   4192   4191   4189   4209     1  0.0000000  0.6508444  3
   4193   4192   4191   4198     1  0.0000000  0.6508444  3
   4193   4206   4188   4199     1  180.0000771  0.4184000  2
   4193   4206   4188   4199     1  0.0000000  1.6024720  3
   4197   4193   4192   4211     1  0.0000000  0.6508444  3
   4198   4191   4189   4209     1  0.0000000  4.9162000  2
   4198   4191   4189   4209     1  0.0000000  0.6024960  3
   4198   4191   4192   4211     1  0.0000000  0.6508444  3
   4199   4188   4189   4209     1  0.0000000  0.6508444  3
   4204   4199   4188   4206     1  0.0000000  4.9162000  2
   4204   4199   4188   4206     1  0.0000000  0.6024960  3
   4206   4188   4189   4209     1  0.0000000  4.9162000  2
   4206   4188   4189   4209     1  0.0000000  0.6024960  3
   4206   4193   4192   4211     1  0.0000000  0.6508444  3
   4212   4213   4215   4216     1  180.0000771  0.8368000  1
   4212   4213   4215   4216     1  180.0000771  1.0460000  2
   4212   4213   4215   4216     1  0.0000000  0.7531200  3
   4212   4213   4215   4222     1  0.0000000  0.6508444  3
   4212   4230   4217   4216     1  180.0000771  0.4184000  2
   4212   4230   4217   4216     1  0.0000000  1.6024720  3
   4212   4230   4217   4221     1  0.0000000  1.6038667  3
   4213   4212   4223   4228     1  0.0000000  0.6508444  3
   4213   4212   4230   4217     1  180.0000771  0.4184000  2
   4213   4212   4230   4217     1  0.0000000  1.6024720  3
   4213   4215   4216   4217     1  180.0000771  0.8368000  1
   4213   4215   4216   4217     1  180.0000771  1.0460000  2
   4213   4215   4216   4217     1  0.0000000  0.7531200  3
   4213   4215   4216   4235     1  0.0000000  0.6508444  3
   4215   4213   4212   4223     1  180.0000771  0.8368000  1
   4215   4213   4212   4223     1  180.0000771  1.0460000  2
   4215   4213   4212   4223     1  0.0000000  0.7531200  3
   4215   4213   4212   4230     1  0.0000000  0.6508444  3
   4215   4216   4217   4221     1  0.0000000  0.6508444  3
   4215   4216   4217   4230     1  0.0000000  0.6508444  3
   4216   4215   4213   4233     1  0.0000000  0.6508444  3
   4217   4216   4215   4222     1  0.0000000  0.6508444  3
   4217   4230   4212   4223     1  180.0000771  0.4184000  2
   4217   4230   4212   4223     1  0.0000000  1.6024720  3
   4221   4217   4216   4235     1  0.0000000  0.6508444  3
   4222   4215   4213   4233     1  0.0000000  4.9162000  2
   4222   4215   4213   4233     1  0.0000000  0.6024960  3
   4222   4215   4216   4235     1  0.0000000  0.6508444  3
   4223   4212   4213   4233     1  0.0000000  0.6508444  3
   4228   4223   4212   4230     1  0.0000000  4.9162000  2
   4228   4223   4212   4230     1  0.0000000  0.6024960  3
   4230   4212   4213   4233     1  0.0000000  4.9162000  2
   4230   4212   4213   4233     1  0.0000000  0.6024960  3
   4230   4217   4216   4235     1  0.0000000  0.6508444  3
   4236   4238   4240   4244     1  0.0000000  0.6508444  3
   4238   4240   4244   4245     1  180.0000771  2.0083200  2
   4238   4240   4244   4245     1  0.0000000  1.2552000  3
   4238   4240   4244   4246     1  180.0000771  2.0083200  2
   4238   4240   4244   4246     1  0.0000000  1.2552000  3
   4240   4244   4245   4256     1  180.0000771  2.0083200  2
   4240   4244   4245   4256     1  0.0000000  1.2552000  3
   4240   4244   4246   4248     1  180.0000771  2.0083200  2
   4240   4244   4246   4248     1  0.0000000  1.2552000  3
   4244   4245   4256   4259     1  0.0000000  0.6508444  3
   4244   4246   4248   4252     1  0.0000000  0.6508444  3
   4245   4256   4259   4260     1  180.0000771  0.0000000  2
   4245   4256   4259   4308     1  180.0000771  0.0000000  2
   4245   4244   4246   4248     1  180.0000771  2.0083200  2
   4245   4244   4246   4248     1  0.0000000  1.2552000  3
   4246   4248   4252   4253     1  180.0000771  0.0000000  2
   4246   4248   4252   4284     1  180.0000771  0.0000000  2
   4246   4244   4245   4256     1  180.0000771  2.0083200  2
   4246   4244   4245   4256     1  0.0000000  1.2552000  3
   4248   4252   4284   4265     1  180.0000771  6.0668000  2
   4248   4252   4284   4265     1  180.0000771  1.4644000  4
   4252   4284   4265   4266     1  0.0000000  1.2552000  3
   4252   4284   4265   4264     1  0.0000000  1.2552000  3
   4253   4252   4284   4265     1  180.0000771  6.0668000  2
   4253   4252   4284   4265     1  180.0000771  1.4644000  4
   4256   4259   4308   4289     1  180.0000771  6.0668000  2
   4256   4259   4308   4289     1  180.0000771  1.4644000  4
   4259   4308   4289   4290     1  0.0000000  1.2552000  3
   4259   4308   4289   4288     1  0.0000000  1.2552000  3
   4260   4259   4308   4289     1  180.0000771  6.0668000  2
   4260   4259   4308   4289     1  180.0000771  1.4644000  4
   4261   4262   4264   4265     1  180.0000771  0.8368000  1
   4261   4262   4264   4265     1  180.0000771  1.0460000  2
   4261   4262   4264   4265     1  0.0000000  0.7531200  3
   4261   4262   4264   4271     1  0.0000000  0.6508444  3
   4261   4279   4266   4270     1  0.0000000  1.6038667  3
   4261   4279   4266   4265     1  180.0000771  0.4184000  2
   4261   4279   4266   4265     1  0.0000000  1.6024720  3
   4262   4264   4265   4266     1  180.0000771  0.8368000  1
   4262   4264   4265   4266     1  180.0000771  1.0460000  2
   4262   4264   4265   4266     1  0.0000000  0.7531200  3
   4262   4264   4265   4284     1  0.0000000  0.6508444  3
   4262   4261   4272   4277     1  0.0000000  0.6508444  3
   4262   4261   4279   4266     1  180.0000771  0.4184000  2
   4262   4261   4279   4266     1  0.0000000  1.6024720  3
   4264   4265   4266   4270     1  0.0000000  0.6508444  3
   4264   4265   4266   4279     1  0.0000000  0.6508444  3
   4264   4262   4261   4272     1  180.0000771  0.8368000  1
   4264   4262   4261   4272     1  180.0000771  1.0460000  2
   4264   4262   4261   4272     1  0.0000000  0.7531200  3
   4264   4262   4261   4279     1  0.0000000  0.6508444  3
   4265   4264   4262   4282     1  0.0000000  0.6508444  3
   4266   4279   4261   4272     1  180.0000771  0.4184000  2
   4266   4279   4261   4272     1  0.0000000  1.6024720  3
   4266   4265   4264   4271     1  0.0000000  0.6508444  3
   4270   4266   4265   4284     1  0.0000000  0.6508444  3
   4271   4264   4265   4284     1  0.0000000  0.6508444  3
   4271   4264   4262   4282     1  0.0000000  4.9162000  2
   4271   4264   4262   4282     1  0.0000000  0.6024960  3
   4272   4261   4262   4282     1  0.0000000  0.6508444  3
   4277   4272   4261   4279     1  0.0000000  4.9162000  2
   4277   4272   4261   4279     1  0.0000000  0.6024960  3
   4279   4266   4265   4284     1  0.0000000  0.6508444  3
   4279   4261   4262   4282     1  0.0000000  4.9162000  2
   4279   4261   4262   4282     1  0.0000000  0.6024960  3
   4285   4286   4288   4289     1  180.0000771  0.8368000  1
   4285   4286   4288   4289     1  180.0000771  1.0460000  2
   4285   4286   4288   4289     1  0.0000000  0.7531200  3
   4285   4286   4288   4295     1  0.0000000  0.6508444  3
   4285   4303   4290   4294     1  0.0000000  1.6038667  3
   4285   4303   4290   4289     1  180.0000771  0.4184000  2
   4285   4303   4290   4289     1  0.0000000  1.6024720  3
   4286   4288   4289   4290     1  180.0000771  0.8368000  1
   4286   4288   4289   4290     1  180.0000771  1.0460000  2
   4286   4288   4289   4290     1  0.0000000  0.7531200  3
   4286   4288   4289   4308     1  0.0000000  0.6508444  3
   4286   4285   4296   4301     1  0.0000000  0.6508444  3
   4286   4285   4303   4290     1  180.0000771  0.4184000  2
   4286   4285   4303   4290     1  0.0000000  1.6024720  3
   4288   4289   4290   4294     1  0.0000000  0.6508444  3
   4288   4289   4290   4303     1  0.0000000  0.6508444  3
   4288   4286   4285   4296     1  180.0000771  0.8368000  1
   4288   4286   4285   4296     1  180.0000771  1.0460000  2
   4288   4286   4285   4296     1  0.0000000  0.7531200  3
   4288   4286   4285   4303     1  0.0000000  0.6508444  3
   4289   4288   4286   4306     1  0.0000000  0.6508444  3
   4290   4303   4285   4296     1  180.0000771  0.4184000  2
   4290   4303   4285   4296     1  0.0000000  1.6024720  3
   4290   4289   4288   4295     1  0.0000000  0.6508444  3
   4294   4290   4289   4308     1  0.0000000  0.6508444  3
   4295   4288   4289   4308     1  0.0000000  0.6508444  3
   4295   4288   4286   4306     1  0.0000000  4.9162000  2
   4295   4288   4286   4306     1  0.0000000  0.6024960  3
   4296   4285   4286   4306     1  0.0000000  0.6508444  3
   4301   4296   4285   4303     1  0.0000000  4.9162000  2
   4301   4296   4285   4303     1  0.0000000  0.6024960  3
   4303   4290   4289   4308     1  0.0000000  0.6508444  3
   4303   4285   4286   4306     1  0.0000000  4.9162000  2
   4303   4285   4286   4306     1  0.0000000  0.6024960  3
   4309   4311   4313   4317     1  0.0000000  0.6508444  3
   4311   4313   4317   4318     1  180.0000771  2.0083200  2
   4311   4313   4317   4318     1  0.0000000  1.2552000  3
   4311   4313   4317   4319     1  180.0000771  2.0083200  2
   4311   4313   4317   4319     1  0.0000000  1.2552000  3
   4313   4317   4318   4329     1  180.0000771  2.0083200  2
   4313   4317   4318   4329     1  0.0000000  1.2552000  3
   4313   4317   4319   4321     1  180.0000771  2.0083200  2
   4313   4317   4319   4321     1  0.0000000  1.2552000  3
   4317   4318   4329   4332     1  0.0000000  0.6508444  3
   4317   4319   4321   4325     1  0.0000000  0.6508444  3
   4318   4317   4319   4321     1  180.0000771  2.0083200  2
   4318   4317   4319   4321     1  0.0000000  1.2552000  3
   4318   4329   4332   4333     1  180.0000771  0.0000000  2
   4318   4329   4332   4381     1  180.0000771  0.0000000  2
   4319   4317   4318   4329     1  180.0000771  2.0083200  2
   4319   4317   4318   4329     1  0.0000000  1.2552000  3
   4319   4321   4325   4326     1  180.0000771  0.0000000  2
   4319   4321   4325   4357     1  180.0000771  0.0000000  2
   4321   4325   4357   4338     1  180.0000771  6.0668000  2
   4321   4325   4357   4338     1  180.0000771  1.4644000  4
   4325   4357   4338   4337     1  0.0000000  1.2552000  3
   4325   4357   4338   4339     1  0.0000000  1.2552000  3
   4326   4325   4357   4338     1  180.0000771  6.0668000  2
   4326   4325   4357   4338     1  180.0000771  1.4644000  4
   4329   4332   4381   4362     1  180.0000771  6.0668000  2
   4329   4332   4381   4362     1  180.0000771  1.4644000  4
   4332   4381   4362   4361     1  0.0000000  1.2552000  3
   4332   4381   4362   4363     1  0.0000000  1.2552000  3
   4333   4332   4381   4362     1  180.0000771  6.0668000  2
   4333   4332   4381   4362     1  180.0000771  1.4644000  4
   4334   4335   4337   4338     1  180.0000771  0.8368000  1
   4334   4335   4337   4338     1  180.0000771  1.0460000  2
   4334   4335   4337   4338     1  0.0000000  0.7531200  3
   4334   4335   4337   4344     1  0.0000000  0.6508444  3
   4334   4352   4339   4338     1  180.0000771  0.4184000  2
   4334   4352   4339   4338     1  0.0000000  1.6024720  3
   4334   4352   4339   4343     1  0.0000000  1.6038667  3
   4335   4334   4345   4350     1  0.0000000  0.6508444  3
   4335   4334   4352   4339     1  180.0000771  0.4184000  2
   4335   4334   4352   4339     1  0.0000000  1.6024720  3
   4335   4337   4338   4339     1  180.0000771  0.8368000  1
   4335   4337   4338   4339     1  180.0000771  1.0460000  2
   4335   4337   4338   4339     1  0.0000000  0.7531200  3
   4335   4337   4338   4357     1  0.0000000  0.6508444  3
   4337   4335   4334   4345     1  180.0000771  0.8368000  1
   4337   4335   4334   4345     1  180.0000771  1.0460000  2
   4337   4335   4334   4345     1  0.0000000  0.7531200  3
   4337   4335   4334   4352     1  0.0000000  0.6508444  3
   4337   4338   4339   4343     1  0.0000000  0.6508444  3
   4337   4338   4339   4352     1  0.0000000  0.6508444  3
   4338   4337   4335   4355     1  0.0000000  0.6508444  3
   4339   4338   4337   4344     1  0.0000000  0.6508444  3
   4339   4352   4334   4345     1  180.0000771  0.4184000  2
   4339   4352   4334   4345     1  0.0000000  1.6024720  3
   4343   4339   4338   4357     1  0.0000000  0.6508444  3
   4344   4337   4335   4355     1  0.0000000  4.9162000  2
   4344   4337   4335   4355     1  0.0000000  0.6024960  3
   4344   4337   4338   4357     1  0.0000000  0.6508444  3
   4345   4334   4335   4355     1  0.0000000  0.6508444  3
   4350   4345   4334   4352     1  0.0000000  4.9162000  2
   4350   4345   4334   4352     1  0.0000000  0.6024960  3
   4352   4334   4335   4355     1  0.0000000  4.9162000  2
   4352   4334   4335   4355     1  0.0000000  0.6024960  3
   4352   4339   4338   4357     1  0.0000000  0.6508444  3
   4358   4359   4361   4362     1  180.0000771  0.8368000  1
   4358   4359   4361   4362     1  180.0000771  1.0460000  2
   4358   4359   4361   4362     1  0.0000000  0.7531200  3
   4358   4359   4361   4368     1  0.0000000  0.6508444  3
   4358   4376   4363   4362     1  180.0000771  0.4184000  2
   4358   4376   4363   4362     1  0.0000000  1.6024720  3
   4358   4376   4363   4367     1  0.0000000  1.6038667  3
   4359   4358   4369   4374     1  0.0000000  0.6508444  3
   4359   4358   4376   4363     1  180.0000771  0.4184000  2
   4359   4358   4376   4363     1  0.0000000  1.6024720  3
   4359   4361   4362   4363     1  180.0000771  0.8368000  1
   4359   4361   4362   4363     1  180.0000771  1.0460000  2
   4359   4361   4362   4363     1  0.0000000  0.7531200  3
   4359   4361   4362   4381     1  0.0000000  0.6508444  3
   4361   4359   4358   4369     1  180.0000771  0.8368000  1
   4361   4359   4358   4369     1  180.0000771  1.0460000  2
   4361   4359   4358   4369     1  0.0000000  0.7531200  3
   4361   4359   4358   4376     1  0.0000000  0.6508444  3
   4361   4362   4363   4367     1  0.0000000  0.6508444  3
   4361   4362   4363   4376     1  0.0000000  0.6508444  3
   4362   4361   4359   4379     1  0.0000000  0.6508444  3
   4363   4362   4361   4368     1  0.0000000  0.6508444  3
   4363   4376   4358   4369     1  180.0000771  0.4184000  2
   4363   4376   4358   4369     1  0.0000000  1.6024720  3
   4367   4363   4362   4381     1  0.0000000  0.6508444  3
   4368   4361   4359   4379     1  0.0000000  4.9162000  2
   4368   4361   4359   4379     1  0.0000000  0.6024960  3
   4368   4361   4362   4381     1  0.0000000  0.6508444  3
   4369   4358   4359   4379     1  0.0000000  0.6508444  3
   4374   4369   4358   4376     1  0.0000000  4.9162000  2
   4374   4369   4358   4376     1  0.0000000  0.6024960  3
   4376   4358   4359   4379     1  0.0000000  4.9162000  2
   4376   4358   4359   4379     1  0.0000000  0.6024960  3
   4376   4363   4362   4381     1  0.0000000  0.6508444  3
   4382   4384   4386   4390     1  0.0000000  0.6508444  3
   4384   4386   4390   4391     1  180.0000771  2.0083200  2
   4384   4386   4390   4391     1  0.0000000  1.2552000  3
   4384   4386   4390   4392     1  180.0000771  2.0083200  2
   4384   4386   4390   4392     1  0.0000000  1.2552000  3
   4386   4390   4391   4402     1  180.0000771  2.0083200  2
   4386   4390   4391   4402     1  0.0000000  1.2552000  3
   4386   4390   4392   4394     1  180.0000771  2.0083200  2
   4386   4390   4392   4394     1  0.0000000  1.2552000  3
   4390   4391   4402   4405     1  0.0000000  0.6508444  3
   4390   4392   4394   4398     1  0.0000000  0.6508444  3
   4391   4402   4405   4406     1  180.0000771  0.0000000  2
   4391   4402   4405   4454     1  180.0000771  0.0000000  2
   4391   4390   4392   4394     1  180.0000771  2.0083200  2
   4391   4390   4392   4394     1  0.0000000  1.2552000  3
   4392   4394   4398   4399     1  180.0000771  0.0000000  2
   4392   4394   4398   4430     1  180.0000771  0.0000000  2
   4392   4390   4391   4402     1  180.0000771  2.0083200  2
   4392   4390   4391   4402     1  0.0000000  1.2552000  3
   4394   4398   4430   4411     1  180.0000771  6.0668000  2
   4394   4398   4430   4411     1  180.0000771  1.4644000  4
   4398   4430   4411   4412     1  0.0000000  1.2552000  3
   4398   4430   4411   4410     1  0.0000000  1.2552000  3
   4399   4398   4430   4411     1  180.0000771  6.0668000  2
   4399   4398   4430   4411     1  180.0000771  1.4644000  4
   4402   4405   4454   4435     1  180.0000771  6.0668000  2
   4402   4405   4454   4435     1  180.0000771  1.4644000  4
   4405   4454   4435   4436     1  0.0000000  1.2552000  3
   4405   4454   4435   4434     1  0.0000000  1.2552000  3
   4406   4405   4454   4435     1  180.0000771  6.0668000  2
   4406   4405   4454   4435     1  180.0000771  1.4644000  4
   4407   4408   4410   4411     1  180.0000771  0.8368000  1
   4407   4408   4410   4411     1  180.0000771  1.0460000  2
   4407   4408   4410   4411     1  0.0000000  0.7531200  3
   4407   4408   4410   4417     1  0.0000000  0.6508444  3
   4407   4425   4412   4416     1  0.0000000  1.6038667  3
   4407   4425   4412   4411     1  180.0000771  0.4184000  2
   4407   4425   4412   4411     1  0.0000000  1.6024720  3
   4408   4410   4411   4412     1  180.0000771  0.8368000  1
   4408   4410   4411   4412     1  180.0000771  1.0460000  2
   4408   4410   4411   4412     1  0.0000000  0.7531200  3
   4408   4410   4411   4430     1  0.0000000  0.6508444  3
   4408   4407   4418   4423     1  0.0000000  0.6508444  3
   4408   4407   4425   4412     1  180.0000771  0.4184000  2
   4408   4407   4425   4412     1  0.0000000  1.6024720  3
   4410   4411   4412   4416     1  0.0000000  0.6508444  3
   4410   4411   4412   4425     1  0.0000000  0.6508444  3
   4410   4408   4407   4418     1  180.0000771  0.8368000  1
   4410   4408   4407   4418     1  180.0000771  1.0460000  2
   4410   4408   4407   4418     1  0.0000000  0.7531200  3
   4410   4408   4407   4425     1  0.0000000  0.6508444  3
   4411   4410   4408   4428     1  0.0000000  0.6508444  3
   4412   4425   4407   4418     1  180.0000771  0.4184000  2
   4412   4425   4407   4418     1  0.0000000  1.6024720  3
   4412   4411   4410   4417     1  0.0000000  0.6508444  3
   4416   4412   4411   4430     1  0.0000000  0.6508444  3
   4417   4410   4411   4430     1  0.0000000  0.6508444  3
   4417   4410   4408   4428     1  0.0000000  4.9162000  2
   4417   4410   4408   4428     1  0.0000000  0.6024960  3
   4418   4407   4408   4428     1  0.0000000  0.6508444  3
   4423   4418   4407   4425     1  0.0000000  4.9162000  2
   4423   4418   4407   4425     1  0.0000000  0.6024960  3
   4425   4412   4411   4430     1  0.0000000  0.6508444  3
   4425   4407   4408   4428     1  0.0000000  4.9162000  2
   4425   4407   4408   4428     1  0.0000000  0.6024960  3
   4431   4432   4434   4435     1  180.0000771  0.8368000  1
   4431   4432   4434   4435     1  180.0000771  1.0460000  2
   4431   4432   4434   4435     1  0.0000000  0.7531200  3
   4431   4432   4434   4441     1  0.0000000  0.6508444  3
   4431   4449   4436   4440     1  0.0000000  1.6038667  3
   4431   4449   4436   4435     1  180.0000771  0.4184000  2
   4431   4449   4436   4435     1  0.0000000  1.6024720  3
   4432   4434   4435   4436     1  180.0000771  0.8368000  1
   4432   4434   4435   4436     1  180.0000771  1.0460000  2
   4432   4434   4435   4436     1  0.0000000  0.7531200  3
   4432   4434   4435   4454     1  0.0000000  0.6508444  3
   4432   4431   4442   4447     1  0.0000000  0.6508444  3
   4432   4431   4449   4436     1  180.0000771  0.4184000  2
   4432   4431   4449   4436     1  0.0000000  1.6024720  3
   4434   4435   4436   4440     1  0.0000000  0.6508444  3
   4434   4435   4436   4449     1  0.0000000  0.6508444  3
   4434   4432   4431   4442     1  180.0000771  0.8368000  1
   4434   4432   4431   4442     1  180.0000771  1.0460000  2
   4434   4432   4431   4442     1  0.0000000  0.7531200  3
   4434   4432   4431   4449     1  0.0000000  0.6508444  3
   4435   4434   4432   4452     1  0.0000000  0.6508444  3
   4436   4449   4431   4442     1  180.0000771  0.4184000  2
   4436   4449   4431   4442     1  0.0000000  1.6024720  3
   4436   4435   4434   4441     1  0.0000000  0.6508444  3
   4440   4436   4435   4454     1  0.0000000  0.6508444  3
   4441   4434   4435   4454     1  0.0000000  0.6508444  3
   4441   4434   4432   4452     1  0.0000000  4.9162000  2
   4441   4434   4432   4452     1  0.0000000  0.6024960  3
   4442   4431   4432   4452     1  0.0000000  0.6508444  3
   4447   4442   4431   4449     1  0.0000000  4.9162000  2
   4447   4442   4431   4449     1  0.0000000  0.6024960  3
   4449   4436   4435   4454     1  0.0000000  0.6508444  3
   4449   4431   4432   4452     1  0.0000000  4.9162000  2
   4449   4431   4432   4452     1  0.0000000  0.6024960  3
   4455   4457   4459   4463     1  0.0000000  0.6508444  3
   4457   4459   4463   4464     1  180.0000771  2.0083200  2
   4457   4459   4463   4464     1  0.0000000  1.2552000  3
   4457   4459   4463   4465     1  180.0000771  2.0083200  2
   4457   4459   4463   4465     1  0.0000000  1.2552000  3
   4459   4463   4464   4475     1  180.0000771  2.0083200  2
   4459   4463   4464   4475     1  0.0000000  1.2552000  3
   4459   4463   4465   4467     1  180.0000771  2.0083200  2
   4459   4463   4465   4467     1  0.0000000  1.2552000  3
   4463   4464   4475   4478     1  0.0000000  0.6508444  3
   4463   4465   4467   4471     1  0.0000000  0.6508444  3
   4464   4463   4465   4467     1  180.0000771  2.0083200  2
   4464   4463   4465   4467     1  0.0000000  1.2552000  3
   4464   4475   4478   4479     1  180.0000771  0.0000000  2
   4464   4475   4478   4527     1  180.0000771  0.0000000  2
   4465   4463   4464   4475     1  180.0000771  2.0083200  2
   4465   4463   4464   4475     1  0.0000000  1.2552000  3
   4465   4467   4471   4472     1  180.0000771  0.0000000  2
   4465   4467   4471   4503     1  180.0000771  0.0000000  2
   4467   4471   4503   4484     1  180.0000771  6.0668000  2
   4467   4471   4503   4484     1  180.0000771  1.4644000  4
   4471   4503   4484   4483     1  0.0000000  1.2552000  3
   4471   4503   4484   4485     1  0.0000000  1.2552000  3
   4472   4471   4503   4484     1  180.0000771  6.0668000  2
   4472   4471   4503   4484     1  180.0000771  1.4644000  4
   4475   4478   4527   4508     1  180.0000771  6.0668000  2
   4475   4478   4527   4508     1  180.0000771  1.4644000  4
   4478   4527   4508   4507     1  0.0000000  1.2552000  3
   4478   4527   4508   4509     1  0.0000000  1.2552000  3
   4479   4478   4527   4508     1  180.0000771  6.0668000  2
   4479   4478   4527   4508     1  180.0000771  1.4644000  4
   4480   4481   4483   4484     1  180.0000771  0.8368000  1
   4480   4481   4483   4484     1  180.0000771  1.0460000  2
   4480   4481   4483   4484     1  0.0000000  0.7531200  3
   4480   4481   4483   4490     1  0.0000000  0.6508444  3
   4480   4498   4485   4484     1  180.0000771  0.4184000  2
   4480   4498   4485   4484     1  0.0000000  1.6024720  3
   4480   4498   4485   4489     1  0.0000000  1.6038667  3
   4481   4480   4491   4496     1  0.0000000  0.6508444  3
   4481   4480   4498   4485     1  180.0000771  0.4184000  2
   4481   4480   4498   4485     1  0.0000000  1.6024720  3
   4481   4483   4484   4485     1  180.0000771  0.8368000  1
   4481   4483   4484   4485     1  180.0000771  1.0460000  2
   4481   4483   4484   4485     1  0.0000000  0.7531200  3
   4481   4483   4484   4503     1  0.0000000  0.6508444  3
   4483   4481   4480   4491     1  180.0000771  0.8368000  1
   4483   4481   4480   4491     1  180.0000771  1.0460000  2
   4483   4481   4480   4491     1  0.0000000  0.7531200  3
   4483   4481   4480   4498     1  0.0000000  0.6508444  3
   4483   4484   4485   4489     1  0.0000000  0.6508444  3
   4483   4484   4485   4498     1  0.0000000  0.6508444  3
   4484   4483   4481   4501     1  0.0000000  0.6508444  3
   4485   4484   4483   4490     1  0.0000000  0.6508444  3
   4485   4498   4480   4491     1  180.0000771  0.4184000  2
   4485   4498   4480   4491     1  0.0000000  1.6024720  3
   4489   4485   4484   4503     1  0.0000000  0.6508444  3
   4490   4483   4481   4501     1  0.0000000  4.9162000  2
   4490   4483   4481   4501     1  0.0000000  0.6024960  3
   4490   4483   4484   4503     1  0.0000000  0.6508444  3
   4491   4480   4481   4501     1  0.0000000  0.6508444  3
   4496   4491   4480   4498     1  0.0000000  4.9162000  2
   4496   4491   4480   4498     1  0.0000000  0.6024960  3
   4498   4480   4481   4501     1  0.0000000  4.9162000  2
   4498   4480   4481   4501     1  0.0000000  0.6024960  3
   4498   4485   4484   4503     1  0.0000000  0.6508444  3
   4504   4505   4507   4508     1  180.0000771  0.8368000  1
   4504   4505   4507   4508     1  180.0000771  1.0460000  2
   4504   4505   4507   4508     1  0.0000000  0.7531200  3
   4504   4505   4507   4514     1  0.0000000  0.6508444  3
   4504   4522   4509   4508     1  180.0000771  0.4184000  2
   4504   4522   4509   4508     1  0.0000000  1.6024720  3
   4504   4522   4509   4513     1  0.0000000  1.6038667  3
   4505   4504   4515   4520     1  0.0000000  0.6508444  3
   4505   4504   4522   4509     1  180.0000771  0.4184000  2
   4505   4504   4522   4509     1  0.0000000  1.6024720  3
   4505   4507   4508   4509     1  180.0000771  0.8368000  1
   4505   4507   4508   4509     1  180.0000771  1.0460000  2
   4505   4507   4508   4509     1  0.0000000  0.7531200  3
   4505   4507   4508   4527     1  0.0000000  0.6508444  3
   4507   4505   4504   4515     1  180.0000771  0.8368000  1
   4507   4505   4504   4515     1  180.0000771  1.0460000  2
   4507   4505   4504   4515     1  0.0000000  0.7531200  3
   4507   4505   4504   4522     1  0.0000000  0.6508444  3
   4507   4508   4509   4513     1  0.0000000  0.6508444  3
   4507   4508   4509   4522     1  0.0000000  0.6508444  3
   4508   4507   4505   4525     1  0.0000000  0.6508444  3
   4509   4508   4507   4514     1  0.0000000  0.6508444  3
   4509   4522   4504   4515     1  180.0000771  0.4184000  2
   4509   4522   4504   4515     1  0.0000000  1.6024720  3
   4513   4509   4508   4527     1  0.0000000  0.6508444  3
   4514   4507   4505   4525     1  0.0000000  4.9162000  2
   4514   4507   4505   4525     1  0.0000000  0.6024960  3
   4514   4507   4508   4527     1  0.0000000  0.6508444  3
   4515   4504   4505   4525     1  0.0000000  0.6508444  3
   4520   4515   4504   4522     1  0.0000000  4.9162000  2
   4520   4515   4504   4522     1  0.0000000  0.6024960  3
   4522   4504   4505   4525     1  0.0000000  4.9162000  2
   4522   4504   4505   4525     1  0.0000000  0.6024960  3
   4522   4509   4508   4527     1  0.0000000  0.6508444  3
   4528   4530   4532   4536     1  0.0000000  0.6508444  3
   4530   4532   4536   4537     1  180.0000771  2.0083200  2
   4530   4532   4536   4537     1  0.0000000  1.2552000  3
   4530   4532   4536   4538     1  180.0000771  2.0083200  2
   4530   4532   4536   4538     1  0.0000000  1.2552000  3
   4532   4536   4537   4548     1  180.0000771  2.0083200  2
   4532   4536   4537   4548     1  0.0000000  1.2552000  3
   4532   4536   4538   4540     1  180.0000771  2.0083200  2
   4532   4536   4538   4540     1  0.0000000  1.2552000  3
   4536   4537   4548   4551     1  0.0000000  0.6508444  3
   4536   4538   4540   4544     1  0.0000000  0.6508444  3
   4537   4548   4551   4552     1  180.0000771  0.0000000  2
   4537   4548   4551   4600     1  180.0000771  0.0000000  2
   4537   4536   4538   4540     1  180.0000771  2.0083200  2
   4537   4536   4538   4540     1  0.0000000  1.2552000  3
   4538   4540   4544   4545     1  180.0000771  0.0000000  2
   4538   4540   4544   4576     1  180.0000771  0.0000000  2
   4538   4536   4537   4548     1  180.0000771  2.0083200  2
   4538   4536   4537   4548     1  0.0000000  1.2552000  3
   4540   4544   4576   4557     1  180.0000771  6.0668000  2
   4540   4544   4576   4557     1  180.0000771  1.4644000  4
   4544   4576   4557   4558     1  0.0000000  1.2552000  3
   4544   4576   4557   4556     1  0.0000000  1.2552000  3
   4545   4544   4576   4557     1  180.0000771  6.0668000  2
   4545   4544   4576   4557     1  180.0000771  1.4644000  4
   4548   4551   4600   4581     1  180.0000771  6.0668000  2
   4548   4551   4600   4581     1  180.0000771  1.4644000  4
   4551   4600   4581   4582     1  0.0000000  1.2552000  3
   4551   4600   4581   4580     1  0.0000000  1.2552000  3
   4552   4551   4600   4581     1  180.0000771  6.0668000  2
   4552   4551   4600   4581     1  180.0000771  1.4644000  4
   4553   4554   4556   4557     1  180.0000771  0.8368000  1
   4553   4554   4556   4557     1  180.0000771  1.0460000  2
   4553   4554   4556   4557     1  0.0000000  0.7531200  3
   4553   4554   4556   4563     1  0.0000000  0.6508444  3
   4553   4571   4558   4562     1  0.0000000  1.6038667  3
   4553   4571   4558   4557     1  180.0000771  0.4184000  2
   4553   4571   4558   4557     1  0.0000000  1.6024720  3
   4554   4556   4557   4558     1  180.0000771  0.8368000  1
   4554   4556   4557   4558     1  180.0000771  1.0460000  2
   4554   4556   4557   4558     1  0.0000000  0.7531200  3
   4554   4556   4557   4576     1  0.0000000  0.6508444  3
   4554   4553   4564   4569     1  0.0000000  0.6508444  3
   4554   4553   4571   4558     1  180.0000771  0.4184000  2
   4554   4553   4571   4558     1  0.0000000  1.6024720  3
   4556   4557   4558   4562     1  0.0000000  0.6508444  3
   4556   4557   4558   4571     1  0.0000000  0.6508444  3
   4556   4554   4553   4564     1  180.0000771  0.8368000  1
   4556   4554   4553   4564     1  180.0000771  1.0460000  2
   4556   4554   4553   4564     1  0.0000000  0.7531200  3
   4556   4554   4553   4571     1  0.0000000  0.6508444  3
   4557   4556   4554   4574     1  0.0000000  0.6508444  3
   4558   4571   4553   4564     1  180.0000771  0.4184000  2
   4558   4571   4553   4564     1  0.0000000  1.6024720  3
   4558   4557   4556   4563     1  0.0000000  0.6508444  3
   4562   4558   4557   4576     1  0.0000000  0.6508444  3
   4563   4556   4557   4576     1  0.0000000  0.6508444  3
   4563   4556   4554   4574     1  0.0000000  4.9162000  2
   4563   4556   4554   4574     1  0.0000000  0.6024960  3
   4564   4553   4554   4574     1  0.0000000  0.6508444  3
   4569   4564   4553   4571     1  0.0000000  4.9162000  2
   4569   4564   4553   4571     1  0.0000000  0.6024960  3
   4571   4558   4557   4576     1  0.0000000  0.6508444  3
   4571   4553   4554   4574     1  0.0000000  4.9162000  2
   4571   4553   4554   4574     1  0.0000000  0.6024960  3
   4577   4578   4580   4581     1  180.0000771  0.8368000  1
   4577   4578   4580   4581     1  180.0000771  1.0460000  2
   4577   4578   4580   4581     1  0.0000000  0.7531200  3
   4577   4578   4580   4587     1  0.0000000  0.6508444  3
   4577   4595   4582   4586     1  0.0000000  1.6038667  3
   4577   4595   4582   4581     1  180.0000771  0.4184000  2
   4577   4595   4582   4581     1  0.0000000  1.6024720  3
   4578   4580   4581   4582     1  180.0000771  0.8368000  1
   4578   4580   4581   4582     1  180.0000771  1.0460000  2
   4578   4580   4581   4582     1  0.0000000  0.7531200  3
   4578   4580   4581   4600     1  0.0000000  0.6508444  3
   4578   4577   4588   4593     1  0.0000000  0.6508444  3
   4578   4577   4595   4582     1  180.0000771  0.4184000  2
   4578   4577   4595   4582     1  0.0000000  1.6024720  3
   4580   4581   4582   4586     1  0.0000000  0.6508444  3
   4580   4581   4582   4595     1  0.0000000  0.6508444  3
   4580   4578   4577   4588     1  180.0000771  0.8368000  1
   4580   4578   4577   4588     1  180.0000771  1.0460000  2
   4580   4578   4577   4588     1  0.0000000  0.7531200  3
   4580   4578   4577   4595     1  0.0000000  0.6508444  3
   4581   4580   4578   4598     1  0.0000000  0.6508444  3
   4582   4595   4577   4588     1  180.0000771  0.4184000  2
   4582   4595   4577   4588     1  0.0000000  1.6024720  3
   4582   4581   4580   4587     1  0.0000000  0.6508444  3
   4586   4582   4581   4600     1  0.0000000  0.6508444  3
   4587   4580   4581   4600     1  0.0000000  0.6508444  3
   4587   4580   4578   4598     1  0.0000000  4.9162000  2
   4587   4580   4578   4598     1  0.0000000  0.6024960  3
   4588   4577   4578   4598     1  0.0000000  0.6508444  3
   4593   4588   4577   4595     1  0.0000000  4.9162000  2
   4593   4588   4577   4595     1  0.0000000  0.6024960  3
   4595   4582   4581   4600     1  0.0000000  0.6508444  3
   4595   4577   4578   4598     1  0.0000000  4.9162000  2
   4595   4577   4578   4598     1  0.0000000  0.6024960  3
   4601   4603   4605   4609     1  0.0000000  0.6508444  3
   4603   4605   4609   4610     1  180.0000771  2.0083200  2
   4603   4605   4609   4610     1  0.0000000  1.2552000  3
   4603   4605   4609   4611     1  180.0000771  2.0083200  2
   4603   4605   4609   4611     1  0.0000000  1.2552000  3
   4605   4609   4610   4621     1  180.0000771  2.0083200  2
   4605   4609   4610   4621     1  0.0000000  1.2552000  3
   4605   4609   4611   4613     1  180.0000771  2.0083200  2
   4605   4609   4611   4613     1  0.0000000  1.2552000  3
   4609   4610   4621   4624     1  0.0000000  0.6508444  3
   4609   4611   4613   4617     1  0.0000000  0.6508444  3
   4610   4609   4611   4613     1  180.0000771  2.0083200  2
   4610   4609   4611   4613     1  0.0000000  1.2552000  3
   4610   4621   4624   4625     1  180.0000771  0.0000000  2
   4610   4621   4624   4673     1  180.0000771  0.0000000  2
   4611   4609   4610   4621     1  180.0000771  2.0083200  2
   4611   4609   4610   4621     1  0.0000000  1.2552000  3
   4611   4613   4617   4618     1  180.0000771  0.0000000  2
   4611   4613   4617   4649     1  180.0000771  0.0000000  2
   4613   4617   4649   4630     1  180.0000771  6.0668000  2
   4613   4617   4649   4630     1  180.0000771  1.4644000  4
   4617   4649   4630   4629     1  0.0000000  1.2552000  3
   4617   4649   4630   4631     1  0.0000000  1.2552000  3
   4618   4617   4649   4630     1  180.0000771  6.0668000  2
   4618   4617   4649   4630     1  180.0000771  1.4644000  4
   4621   4624   4673   4654     1  180.0000771  6.0668000  2
   4621   4624   4673   4654     1  180.0000771  1.4644000  4
   4624   4673   4654   4653     1  0.0000000  1.2552000  3
   4624   4673   4654   4655     1  0.0000000  1.2552000  3
   4625   4624   4673   4654     1  180.0000771  6.0668000  2
   4625   4624   4673   4654     1  180.0000771  1.4644000  4
   4626   4627   4629   4630     1  180.0000771  0.8368000  1
   4626   4627   4629   4630     1  180.0000771  1.0460000  2
   4626   4627   4629   4630     1  0.0000000  0.7531200  3
   4626   4627   4629   4636     1  0.0000000  0.6508444  3
   4626   4644   4631   4630     1  180.0000771  0.4184000  2
   4626   4644   4631   4630     1  0.0000000  1.6024720  3
   4626   4644   4631   4635     1  0.0000000  1.6038667  3
   4627   4626   4637   4642     1  0.0000000  0.6508444  3
   4627   4626   4644   4631     1  180.0000771  0.4184000  2
   4627   4626   4644   4631     1  0.0000000  1.6024720  3
   4627   4629   4630   4631     1  180.0000771  0.8368000  1
   4627   4629   4630   4631     1  180.0000771  1.0460000  2
   4627   4629   4630   4631     1  0.0000000  0.7531200  3
   4627   4629   4630   4649     1  0.0000000  0.6508444  3
   4629   4627   4626   4637     1  180.0000771  0.8368000  1
   4629   4627   4626   4637     1  180.0000771  1.0460000  2
   4629   4627   4626   4637     1  0.0000000  0.7531200  3
   4629   4627   4626   4644     1  0.0000000  0.6508444  3
   4629   4630   4631   4635     1  0.0000000  0.6508444  3
   4629   4630   4631   4644     1  0.0000000  0.6508444  3
   4630   4629   4627   4647     1  0.0000000  0.6508444  3
   4631   4630   4629   4636     1  0.0000000  0.6508444  3
   4631   4644   4626   4637     1  180.0000771  0.4184000  2
   4631   4644   4626   4637     1  0.0000000  1.6024720  3
   4635   4631   4630   4649     1  0.0000000  0.6508444  3
   4636   4629   4627   4647     1  0.0000000  4.9162000  2
   4636   4629   4627   4647     1  0.0000000  0.6024960  3
   4636   4629   4630   4649     1  0.0000000  0.6508444  3
   4637   4626   4627   4647     1  0.0000000  0.6508444  3
   4642   4637   4626   4644     1  0.0000000  4.9162000  2
   4642   4637   4626   4644     1  0.0000000  0.6024960  3
   4644   4626   4627   4647     1  0.0000000  4.9162000  2
   4644   4626   4627   4647     1  0.0000000  0.6024960  3
   4644   4631   4630   4649     1  0.0000000  0.6508444  3
   4650   4651   4653   4654     1  180.0000771  0.8368000  1
   4650   4651   4653   4654     1  180.0000771  1.0460000  2
   4650   4651   4653   4654     1  0.0000000  0.7531200  3
   4650   4651   4653   4660     1  0.0000000  0.6508444  3
   4650   4668   4655   4654     1  180.0000771  0.4184000  2
   4650   4668   4655   4654     1  0.0000000  1.6024720  3
   4650   4668   4655   4659     1  0.0000000  1.6038667  3
   4651   4650   4661   4666     1  0.0000000  0.6508444  3
   4651   4650   4668   4655     1  180.0000771  0.4184000  2
   4651   4650   4668   4655     1  0.0000000  1.6024720  3
   4651   4653   4654   4655     1  180.0000771  0.8368000  1
   4651   4653   4654   4655     1  180.0000771  1.0460000  2
   4651   4653   4654   4655     1  0.0000000  0.7531200  3
   4651   4653   4654   4673     1  0.0000000  0.6508444  3
   4653   4651   4650   4661     1  180.0000771  0.8368000  1
   4653   4651   4650   4661     1  180.0000771  1.0460000  2
   4653   4651   4650   4661     1  0.0000000  0.7531200  3
   4653   4651   4650   4668     1  0.0000000  0.6508444  3
   4653   4654   4655   4659     1  0.0000000  0.6508444  3
   4653   4654   4655   4668     1  0.0000000  0.6508444  3
   4654   4653   4651   4671     1  0.0000000  0.6508444  3
   4655   4654   4653   4660     1  0.0000000  0.6508444  3
   4655   4668   4650   4661     1  180.0000771  0.4184000  2
   4655   4668   4650   4661     1  0.0000000  1.6024720  3
   4659   4655   4654   4673     1  0.0000000  0.6508444  3
   4660   4653   4651   4671     1  0.0000000  4.9162000  2
   4660   4653   4651   4671     1  0.0000000  0.6024960  3
   4660   4653   4654   4673     1  0.0000000  0.6508444  3
   4661   4650   4651   4671     1  0.0000000  0.6508444  3
   4666   4661   4650   4668     1  0.0000000  4.9162000  2
   4666   4661   4650   4668     1  0.0000000  0.6024960  3
   4668   4650   4651   4671     1  0.0000000  4.9162000  2
   4668   4650   4651   4671     1  0.0000000  0.6024960  3
   4668   4655   4654   4673     1  0.0000000  0.6508444  3
   4674   4676   4678   4682     1  0.0000000  0.6508444  3
   4676   4678   4682   4683     1  180.0000771  2.0083200  2
   4676   4678   4682   4683     1  0.0000000  1.2552000  3
   4676   4678   4682   4684     1  180.0000771  2.0083200  2
   4676   4678   4682   4684     1  0.0000000  1.2552000  3
   4678   4682   4683   4694     1  180.0000771  2.0083200  2
   4678   4682   4683   4694     1  0.0000000  1.2552000  3
   4678   4682   4684   4686     1  180.0000771  2.0083200  2
   4678   4682   4684   4686     1  0.0000000  1.2552000  3
   4682   4683   4694   4697     1  0.0000000  0.6508444  3
   4682   4684   4686   4690     1  0.0000000  0.6508444  3
   4683   4694   4697   4698     1  180.0000771  0.0000000  2
   4683   4694   4697   4746     1  180.0000771  0.0000000  2
   4683   4682   4684   4686     1  180.0000771  2.0083200  2
   4683   4682   4684   4686     1  0.0000000  1.2552000  3
   4684   4686   4690   4691     1  180.0000771  0.0000000  2
   4684   4686   4690   4722     1  180.0000771  0.0000000  2
   4684   4682   4683   4694     1  180.0000771  2.0083200  2
   4684   4682   4683   4694     1  0.0000000  1.2552000  3
   4686   4690   4722   4703     1  180.0000771  6.0668000  2
   4686   4690   4722   4703     1  180.0000771  1.4644000  4
   4690   4722   4703   4704     1  0.0000000  1.2552000  3
   4690   4722   4703   4702     1  0.0000000  1.2552000  3
   4691   4690   4722   4703     1  180.0000771  6.0668000  2
   4691   4690   4722   4703     1  180.0000771  1.4644000  4
   4694   4697   4746   4727     1  180.0000771  6.0668000  2
   4694   4697   4746   4727     1  180.0000771  1.4644000  4
   4697   4746   4727   4728     1  0.0000000  1.2552000  3
   4697   4746   4727   4726     1  0.0000000  1.2552000  3
   4698   4697   4746   4727     1  180.0000771  6.0668000  2
   4698   4697   4746   4727     1  180.0000771  1.4644000  4
   4699   4700   4702   4703     1  180.0000771  0.8368000  1
   4699   4700   4702   4703     1  180.0000771  1.0460000  2
   4699   4700   4702   4703     1  0.0000000  0.7531200  3
   4699   4700   4702   4709     1  0.0000000  0.6508444  3
   4699   4717   4704   4708     1  0.0000000  1.6038667  3
   4699   4717   4704   4703     1  180.0000771  0.4184000  2
   4699   4717   4704   4703     1  0.0000000  1.6024720  3
   4700   4702   4703   4704     1  180.0000771  0.8368000  1
   4700   4702   4703   4704     1  180.0000771  1.0460000  2
   4700   4702   4703   4704     1  0.0000000  0.7531200  3
   4700   4702   4703   4722     1  0.0000000  0.6508444  3
   4700   4699   4710   4715     1  0.0000000  0.6508444  3
   4700   4699   4717   4704     1  180.0000771  0.4184000  2
   4700   4699   4717   4704     1  0.0000000  1.6024720  3
   4702   4703   4704   4708     1  0.0000000  0.6508444  3
   4702   4703   4704   4717     1  0.0000000  0.6508444  3
   4702   4700   4699   4710     1  180.0000771  0.8368000  1
   4702   4700   4699   4710     1  180.0000771  1.0460000  2
   4702   4700   4699   4710     1  0.0000000  0.7531200  3
   4702   4700   4699   4717     1  0.0000000  0.6508444  3
   4703   4702   4700   4720     1  0.0000000  0.6508444  3
   4704   4717   4699   4710     1  180.0000771  0.4184000  2
   4704   4717   4699   4710     1  0.0000000  1.6024720  3
   4704   4703   4702   4709     1  0.0000000  0.6508444  3
   4708   4704   4703   4722     1  0.0000000  0.6508444  3
   4709   4702   4703   4722     1  0.0000000  0.6508444  3
   4709   4702   4700   4720     1  0.0000000  4.9162000  2
   4709   4702   4700   4720     1  0.0000000  0.6024960  3
   4710   4699   4700   4720     1  0.0000000  0.6508444  3
   4715   4710   4699   4717     1  0.0000000  4.9162000  2
   4715   4710   4699   4717     1  0.0000000  0.6024960  3
   4717   4704   4703   4722     1  0.0000000  0.6508444  3
   4717   4699   4700   4720     1  0.0000000  4.9162000  2
   4717   4699   4700   4720     1  0.0000000  0.6024960  3
   4723   4724   4726   4727     1  180.0000771  0.8368000  1
   4723   4724   4726   4727     1  180.0000771  1.0460000  2
   4723   4724   4726   4727     1  0.0000000  0.7531200  3
   4723   4724   4726   4733     1  0.0000000  0.6508444  3
   4723   4741   4728   4732     1  0.0000000  1.6038667  3
   4723   4741   4728   4727     1  180.0000771  0.4184000  2
   4723   4741   4728   4727     1  0.0000000  1.6024720  3
   4724   4726   4727   4728     1  180.0000771  0.8368000  1
   4724   4726   4727   4728     1  180.0000771  1.0460000  2
   4724   4726   4727   4728     1  0.0000000  0.7531200  3
   4724   4726   4727   4746     1  0.0000000  0.6508444  3
   4724   4723   4734   4739     1  0.0000000  0.6508444  3
   4724   4723   4741   4728     1  180.0000771  0.4184000  2
   4724   4723   4741   4728     1  0.0000000  1.6024720  3
   4726   4727   4728   4732     1  0.0000000  0.6508444  3
   4726   4727   4728   4741     1  0.0000000  0.6508444  3
   4726   4724   4723   4734     1  180.0000771  0.8368000  1
   4726   4724   4723   4734     1  180.0000771  1.0460000  2
   4726   4724   4723   4734     1  0.0000000  0.7531200  3
   4726   4724   4723   4741     1  0.0000000  0.6508444  3
   4727   4726   4724   4744     1  0.0000000  0.6508444  3
   4728   4741   4723   4734     1  180.0000771  0.4184000  2
   4728   4741   4723   4734     1  0.0000000  1.6024720  3
   4728   4727   4726   4733     1  0.0000000  0.6508444  3
   4732   4728   4727   4746     1  0.0000000  0.6508444  3
   4733   4726   4727   4746     1  0.0000000  0.6508444  3
   4733   4726   4724   4744     1  0.0000000  4.9162000  2
   4733   4726   4724   4744     1  0.0000000  0.6024960  3
   4734   4723   4724   4744     1  0.0000000  0.6508444  3
   4739   4734   4723   4741     1  0.0000000  4.9162000  2
   4739   4734   4723   4741     1  0.0000000  0.6024960  3
   4741   4728   4727   4746     1  0.0000000  0.6508444  3
   4741   4723   4724   4744     1  0.0000000  4.9162000  2
   4741   4723   4724   4744     1  0.0000000  0.6024960  3
   4747   4749   4751   4755     1  0.0000000  0.6508444  3
   4749   4751   4755   4756     1  180.0000771  2.0083200  2
   4749   4751   4755   4756     1  0.0000000  1.2552000  3
   4749   4751   4755   4757     1  180.0000771  2.0083200  2
   4749   4751   4755   4757     1  0.0000000  1.2552000  3
   4751   4755   4756   4767     1  180.0000771  2.0083200  2
   4751   4755   4756   4767     1  0.0000000  1.2552000  3
   4751   4755   4757   4759     1  180.0000771  2.0083200  2
   4751   4755   4757   4759     1  0.0000000  1.2552000  3
   4755   4756   4767   4770     1  0.0000000  0.6508444  3
   4755   4757   4759   4763     1  0.0000000  0.6508444  3
   4756   4755   4757   4759     1  180.0000771  2.0083200  2
   4756   4755   4757   4759     1  0.0000000  1.2552000  3
   4756   4767   4770   4771     1  180.0000771  0.0000000  2
   4756   4767   4770   4819     1  180.0000771  0.0000000  2
   4757   4755   4756   4767     1  180.0000771  2.0083200  2
   4757   4755   4756   4767     1  0.0000000  1.2552000  3
   4757   4759   4763   4764     1  180.0000771  0.0000000  2
   4757   4759   4763   4795     1  180.0000771  0.0000000  2
   4759   4763   4795   4776     1  180.0000771  6.0668000  2
   4759   4763   4795   4776     1  180.0000771  1.4644000  4
   4763   4795   4776   4775     1  0.0000000  1.2552000  3
   4763   4795   4776   4777     1  0.0000000  1.2552000  3
   4764   4763   4795   4776     1  180.0000771  6.0668000  2
   4764   4763   4795   4776     1  180.0000771  1.4644000  4
   4767   4770   4819   4800     1  180.0000771  6.0668000  2
   4767   4770   4819   4800     1  180.0000771  1.4644000  4
   4770   4819   4800   4799     1  0.0000000  1.2552000  3
   4770   4819   4800   4801     1  0.0000000  1.2552000  3
   4771   4770   4819   4800     1  180.0000771  6.0668000  2
   4771   4770   4819   4800     1  180.0000771  1.4644000  4
   4772   4773   4775   4776     1  180.0000771  0.8368000  1
   4772   4773   4775   4776     1  180.0000771  1.0460000  2
   4772   4773   4775   4776     1  0.0000000  0.7531200  3
   4772   4773   4775   4782     1  0.0000000  0.6508444  3
   4772   4790   4777   4776     1  180.0000771  0.4184000  2
   4772   4790   4777   4776     1  0.0000000  1.6024720  3
   4772   4790   4777   4781     1  0.0000000  1.6038667  3
   4773   4772   4783   4788     1  0.0000000  0.6508444  3
   4773   4772   4790   4777     1  180.0000771  0.4184000  2
   4773   4772   4790   4777     1  0.0000000  1.6024720  3
   4773   4775   4776   4777     1  180.0000771  0.8368000  1
   4773   4775   4776   4777     1  180.0000771  1.0460000  2
   4773   4775   4776   4777     1  0.0000000  0.7531200  3
   4773   4775   4776   4795     1  0.0000000  0.6508444  3
   4775   4773   4772   4783     1  180.0000771  0.8368000  1
   4775   4773   4772   4783     1  180.0000771  1.0460000  2
   4775   4773   4772   4783     1  0.0000000  0.7531200  3
   4775   4773   4772   4790     1  0.0000000  0.6508444  3
   4775   4776   4777   4781     1  0.0000000  0.6508444  3
   4775   4776   4777   4790     1  0.0000000  0.6508444  3
   4776   4775   4773   4793     1  0.0000000  0.6508444  3
   4777   4776   4775   4782     1  0.0000000  0.6508444  3
   4777   4790   4772   4783     1  180.0000771  0.4184000  2
   4777   4790   4772   4783     1  0.0000000  1.6024720  3
   4781   4777   4776   4795     1  0.0000000  0.6508444  3
   4782   4775   4773   4793     1  0.0000000  4.9162000  2
   4782   4775   4773   4793     1  0.0000000  0.6024960  3
   4782   4775   4776   4795     1  0.0000000  0.6508444  3
   4783   4772   4773   4793     1  0.0000000  0.6508444  3
   4788   4783   4772   4790     1  0.0000000  4.9162000  2
   4788   4783   4772   4790     1  0.0000000  0.6024960  3
   4790   4772   4773   4793     1  0.0000000  4.9162000  2
   4790   4772   4773   4793     1  0.0000000  0.6024960  3
   4790   4777   4776   4795     1  0.0000000  0.6508444  3
   4796   4797   4799   4800     1  180.0000771  0.8368000  1
   4796   4797   4799   4800     1  180.0000771  1.0460000  2
   4796   4797   4799   4800     1  0.0000000  0.7531200  3
   4796   4797   4799   4806     1  0.0000000  0.6508444  3
   4796   4814   4801   4800     1  180.0000771  0.4184000  2
   4796   4814   4801   4800     1  0.0000000  1.6024720  3
   4796   4814   4801   4805     1  0.0000000  1.6038667  3
   4797   4796   4807   4812     1  0.0000000  0.6508444  3
   4797   4796   4814   4801     1  180.0000771  0.4184000  2
   4797   4796   4814   4801     1  0.0000000  1.6024720  3
   4797   4799   4800   4801     1  180.0000771  0.8368000  1
   4797   4799   4800   4801     1  180.0000771  1.0460000  2
   4797   4799   4800   4801     1  0.0000000  0.7531200  3
   4797   4799   4800   4819     1  0.0000000  0.6508444  3
   4799   4797   4796   4807     1  180.0000771  0.8368000  1
   4799   4797   4796   4807     1  180.0000771  1.0460000  2
   4799   4797   4796   4807     1  0.0000000  0.7531200  3
   4799   4797   4796   4814     1  0.0000000  0.6508444  3
   4799   4800   4801   4805     1  0.0000000  0.6508444  3
   4799   4800   4801   4814     1  0.0000000  0.6508444  3
   4800   4799   4797   4817     1  0.0000000  0.6508444  3
   4801   4800   4799   4806     1  0.0000000  0.6508444  3
   4801   4814   4796   4807     1  180.0000771  0.4184000  2
   4801   4814   4796   4807     1  0.0000000  1.6024720  3
   4805   4801   4800   4819     1  0.0000000  0.6508444  3
   4806   4799   4797   4817     1  0.0000000  4.9162000  2
   4806   4799   4797   4817     1  0.0000000  0.6024960  3
   4806   4799   4800   4819     1  0.0000000  0.6508444  3
   4807   4796   4797   4817     1  0.0000000  0.6508444  3
   4812   4807   4796   4814     1  0.0000000  4.9162000  2
   4812   4807   4796   4814     1  0.0000000  0.6024960  3
   4814   4796   4797   4817     1  0.0000000  4.9162000  2
   4814   4796   4797   4817     1  0.0000000  0.6024960  3
   4814   4801   4800   4819     1  0.0000000  0.6508444  3
   4820   4822   4824   4828     1  0.0000000  0.6508444  3
   4822   4824   4828   4829     1  180.0000771  2.0083200  2
   4822   4824   4828   4829     1  0.0000000  1.2552000  3
   4822   4824   4828   4830     1  180.0000771  2.0083200  2
   4822   4824   4828   4830     1  0.0000000  1.2552000  3
   4824   4828   4829   4840     1  180.0000771  2.0083200  2
   4824   4828   4829   4840     1  0.0000000  1.2552000  3
   4824   4828   4830   4832     1  180.0000771  2.0083200  2
   4824   4828   4830   4832     1  0.0000000  1.2552000  3
   4828   4829   4840   4843     1  0.0000000  0.6508444  3
   4828   4830   4832   4836     1  0.0000000  0.6508444  3
   4829   4840   4843   4844     1  180.0000771  0.0000000  2
   4829   4840   4843   4892     1  180.0000771  0.0000000  2
   4829   4828   4830   4832     1  180.0000771  2.0083200  2
   4829   4828   4830   4832     1  0.0000000  1.2552000  3
   4830   4832   4836   4837     1  180.0000771  0.0000000  2
   4830   4832   4836   4868     1  180.0000771  0.0000000  2
   4830   4828   4829   4840     1  180.0000771  2.0083200  2
   4830   4828   4829   4840     1  0.0000000  1.2552000  3
   4832   4836   4868   4849     1  180.0000771  6.0668000  2
   4832   4836   4868   4849     1  180.0000771  1.4644000  4
   4836   4868   4849   4850     1  0.0000000  1.2552000  3
   4836   4868   4849   4848     1  0.0000000  1.2552000  3
   4837   4836   4868   4849     1  180.0000771  6.0668000  2
   4837   4836   4868   4849     1  180.0000771  1.4644000  4
   4840   4843   4892   4873     1  180.0000771  6.0668000  2
   4840   4843   4892   4873     1  180.0000771  1.4644000  4
   4843   4892   4873   4874     1  0.0000000  1.2552000  3
   4843   4892   4873   4872     1  0.0000000  1.2552000  3
   4844   4843   4892   4873     1  180.0000771  6.0668000  2
   4844   4843   4892   4873     1  180.0000771  1.4644000  4
   4845   4846   4848   4849     1  180.0000771  0.8368000  1
   4845   4846   4848   4849     1  180.0000771  1.0460000  2
   4845   4846   4848   4849     1  0.0000000  0.7531200  3
   4845   4846   4848   4855     1  0.0000000  0.6508444  3
   4845   4863   4850   4854     1  0.0000000  1.6038667  3
   4845   4863   4850   4849     1  180.0000771  0.4184000  2
   4845   4863   4850   4849     1  0.0000000  1.6024720  3
   4846   4848   4849   4850     1  180.0000771  0.8368000  1
   4846   4848   4849   4850     1  180.0000771  1.0460000  2
   4846   4848   4849   4850     1  0.0000000  0.7531200  3
   4846   4848   4849   4868     1  0.0000000  0.6508444  3
   4846   4845   4856   4861     1  0.0000000  0.6508444  3
   4846   4845   4863   4850     1  180.0000771  0.4184000  2
   4846   4845   4863   4850     1  0.0000000  1.6024720  3
   4848   4849   4850   4854     1  0.0000000  0.6508444  3
   4848   4849   4850   4863     1  0.0000000  0.6508444  3
   4848   4846   4845   4856     1  180.0000771  0.8368000  1
   4848   4846   4845   4856     1  180.0000771  1.0460000  2
   4848   4846   4845   4856     1  0.0000000  0.7531200  3
   4848   4846   4845   4863     1  0.0000000  0.6508444  3
   4849   4848   4846   4866     1  0.0000000  0.6508444  3
   4850   4863   4845   4856     1  180.0000771  0.4184000  2
   4850   4863   4845   4856     1  0.0000000  1.6024720  3
   4850   4849   4848   4855     1  0.0000000  0.6508444  3
   4854   4850   4849   4868     1  0.0000000  0.6508444  3
   4855   4848   4849   4868     1  0.0000000  0.6508444  3
   4855   4848   4846   4866     1  0.0000000  4.9162000  2
   4855   4848   4846   4866     1  0.0000000  0.6024960  3
   4856   4845   4846   4866     1  0.0000000  0.6508444  3
   4861   4856   4845   4863     1  0.0000000  4.9162000  2
   4861   4856   4845   4863     1  0.0000000  0.6024960  3
   4863   4850   4849   4868     1  0.0000000  0.6508444  3
   4863   4845   4846   4866     1  0.0000000  4.9162000  2
   4863   4845   4846   4866     1  0.0000000  0.6024960  3
   4869   4870   4872   4873     1  180.0000771  0.8368000  1
   4869   4870   4872   4873     1  180.0000771  1.0460000  2
   4869   4870   4872   4873     1  0.0000000  0.7531200  3
   4869   4870   4872   4879     1  0.0000000  0.6508444  3
   4869   4887   4874   4878     1  0.0000000  1.6038667  3
   4869   4887   4874   4873     1  180.0000771  0.4184000  2
   4869   4887   4874   4873     1  0.0000000  1.6024720  3
   4870   4872   4873   4874     1  180.0000771  0.8368000  1
   4870   4872   4873   4874     1  180.0000771  1.0460000  2
   4870   4872   4873   4874     1  0.0000000  0.7531200  3
   4870   4872   4873   4892     1  0.0000000  0.6508444  3
   4870   4869   4880   4885     1  0.0000000  0.6508444  3
   4870   4869   4887   4874     1  180.0000771  0.4184000  2
   4870   4869   4887   4874     1  0.0000000  1.6024720  3
   4872   4873   4874   4878     1  0.0000000  0.6508444  3
   4872   4873   4874   4887     1  0.0000000  0.6508444  3
   4872   4870   4869   4880     1  180.0000771  0.8368000  1
   4872   4870   4869   4880     1  180.0000771  1.0460000  2
   4872   4870   4869   4880     1  0.0000000  0.7531200  3
   4872   4870   4869   4887     1  0.0000000  0.6508444  3
   4873   4872   4870   4890     1  0.0000000  0.6508444  3
   4874   4887   4869   4880     1  180.0000771  0.4184000  2
   4874   4887   4869   4880     1  0.0000000  1.6024720  3
   4874   4873   4872   4879     1  0.0000000  0.6508444  3
   4878   4874   4873   4892     1  0.0000000  0.6508444  3
   4879   4872   4873   4892     1  0.0000000  0.6508444  3
   4879   4872   4870   4890     1  0.0000000  4.9162000  2
   4879   4872   4870   4890     1  0.0000000  0.6024960  3
   4880   4869   4870   4890     1  0.0000000  0.6508444  3
   4885   4880   4869   4887     1  0.0000000  4.9162000  2
   4885   4880   4869   4887     1  0.0000000  0.6024960  3
   4887   4874   4873   4892     1  0.0000000  0.6508444  3
   4887   4869   4870   4890     1  0.0000000  4.9162000  2
   4887   4869   4870   4890     1  0.0000000  0.6024960  3
   4893   4895   4897   4901     1  0.0000000  0.6508444  3
   4895   4897   4901   4902     1  180.0000771  2.0083200  2
   4895   4897   4901   4902     1  0.0000000  1.2552000  3
   4895   4897   4901   4903     1  180.0000771  2.0083200  2
   4895   4897   4901   4903     1  0.0000000  1.2552000  3
   4897   4901   4902   4913     1  180.0000771  2.0083200  2
   4897   4901   4902   4913     1  0.0000000  1.2552000  3
   4897   4901   4903   4905     1  180.0000771  2.0083200  2
   4897   4901   4903   4905     1  0.0000000  1.2552000  3
   4901   4902   4913   4916     1  0.0000000  0.6508444  3
   4901   4903   4905   4909     1  0.0000000  0.6508444  3
   4902   4901   4903   4905     1  180.0000771  2.0083200  2
   4902   4901   4903   4905     1  0.0000000  1.2552000  3
   4902   4913   4916   4917     1  180.0000771  0.0000000  2
   4902   4913   4916   4965     1  180.0000771  0.0000000  2
   4903   4901   4902   4913     1  180.0000771  2.0083200  2
   4903   4901   4902   4913     1  0.0000000  1.2552000  3
   4903   4905   4909   4910     1  180.0000771  0.0000000  2
   4903   4905   4909   4941     1  180.0000771  0.0000000  2
   4905   4909   4941   4922     1  180.0000771  6.0668000  2
   4905   4909   4941   4922     1  180.0000771  1.4644000  4
   4909   4941   4922   4921     1  0.0000000  1.2552000  3
   4909   4941   4922   4923     1  0.0000000  1.2552000  3
   4910   4909   4941   4922     1  180.0000771  6.0668000  2
   4910   4909   4941   4922     1  180.0000771  1.4644000  4
   4913   4916   4965   4946     1  180.0000771  6.0668000  2
   4913   4916   4965   4946     1  180.0000771  1.4644000  4
   4916   4965   4946   4945     1  0.0000000  1.2552000  3
   4916   4965   4946   4947     1  0.0000000  1.2552000  3
   4917   4916   4965   4946     1  180.0000771  6.0668000  2
   4917   4916   4965   4946     1  180.0000771  1.4644000  4
   4918   4919   4921   4922     1  180.0000771  0.8368000  1
   4918   4919   4921   4922     1  180.0000771  1.0460000  2
   4918   4919   4921   4922     1  0.0000000  0.7531200  3
   4918   4919   4921   4928     1  0.0000000  0.6508444  3
   4918   4936   4923   4922     1  180.0000771  0.4184000  2
   4918   4936   4923   4922     1  0.0000000  1.6024720  3
   4918   4936   4923   4927     1  0.0000000  1.6038667  3
   4919   4918   4929   4934     1  0.0000000  0.6508444  3
   4919   4918   4936   4923     1  180.0000771  0.4184000  2
   4919   4918   4936   4923     1  0.0000000  1.6024720  3
   4919   4921   4922   4923     1  180.0000771  0.8368000  1
   4919   4921   4922   4923     1  180.0000771  1.0460000  2
   4919   4921   4922   4923     1  0.0000000  0.7531200  3
   4919   4921   4922   4941     1  0.0000000  0.6508444  3
   4921   4919   4918   4929     1  180.0000771  0.8368000  1
   4921   4919   4918   4929     1  180.0000771  1.0460000  2
   4921   4919   4918   4929     1  0.0000000  0.7531200  3
   4921   4919   4918   4936     1  0.0000000  0.6508444  3
   4921   4922   4923   4927     1  0.0000000  0.6508444  3
   4921   4922   4923   4936     1  0.0000000  0.6508444  3
   4922   4921   4919   4939     1  0.0000000  0.6508444  3
   4923   4922   4921   4928     1  0.0000000  0.6508444  3
   4923   4936   4918   4929     1  180.0000771  0.4184000  2
   4923   4936   4918   4929     1  0.0000000  1.6024720  3
   4927   4923   4922   4941     1  0.0000000  0.6508444  3
   4928   4921   4919   4939     1  0.0000000  4.9162000  2
   4928   4921   4919   4939     1  0.0000000  0.6024960  3
   4928   4921   4922   4941     1  0.0000000  0.6508444  3
   4929   4918   4919   4939     1  0.0000000  0.6508444  3
   4934   4929   4918   4936     1  0.0000000  4.9162000  2
   4934   4929   4918   4936     1  0.0000000  0.6024960  3
   4936   4918   4919   4939     1  0.0000000  4.9162000  2
   4936   4918   4919   4939     1  0.0000000  0.6024960  3
   4936   4923   4922   4941     1  0.0000000  0.6508444  3
   4942   4943   4945   4946     1  180.0000771  0.8368000  1
   4942   4943   4945   4946     1  180.0000771  1.0460000  2
   4942   4943   4945   4946     1  0.0000000  0.7531200  3
   4942   4943   4945   4952     1  0.0000000  0.6508444  3
   4942   4960   4947   4946     1  180.0000771  0.4184000  2
   4942   4960   4947   4946     1  0.0000000  1.6024720  3
   4942   4960   4947   4951     1  0.0000000  1.6038667  3
   4943   4942   4953   4958     1  0.0000000  0.6508444  3
   4943   4942   4960   4947     1  180.0000771  0.4184000  2
   4943   4942   4960   4947     1  0.0000000  1.6024720  3
   4943   4945   4946   4947     1  180.0000771  0.8368000  1
   4943   4945   4946   4947     1  180.0000771  1.0460000  2
   4943   4945   4946   4947     1  0.0000000  0.7531200  3
   4943   4945   4946   4965     1  0.0000000  0.6508444  3
   4945   4943   4942   4953     1  180.0000771  0.8368000  1
   4945   4943   4942   4953     1  180.0000771  1.0460000  2
   4945   4943   4942   4953     1  0.0000000  0.7531200  3
   4945   4943   4942   4960     1  0.0000000  0.6508444  3
   4945   4946   4947   4951     1  0.0000000  0.6508444  3
   4945   4946   4947   4960     1  0.0000000  0.6508444  3
   4946   4945   4943   4963     1  0.0000000  0.6508444  3
   4947   4946   4945   4952     1  0.0000000  0.6508444  3
   4947   4960   4942   4953     1  180.0000771  0.4184000  2
   4947   4960   4942   4953     1  0.0000000  1.6024720  3
   4951   4947   4946   4965     1  0.0000000  0.6508444  3
   4952   4945   4943   4963     1  0.0000000  4.9162000  2
   4952   4945   4943   4963     1  0.0000000  0.6024960  3
   4952   4945   4946   4965     1  0.0000000  0.6508444  3
   4953   4942   4943   4963     1  0.0000000  0.6508444  3
   4958   4953   4942   4960     1  0.0000000  4.9162000  2
   4958   4953   4942   4960     1  0.0000000  0.6024960  3
   4960   4942   4943   4963     1  0.0000000  4.9162000  2
   4960   4942   4943   4963     1  0.0000000  0.6024960  3
   4960   4947   4946   4965     1  0.0000000  0.6508444  3
   4966   4968   4970   4974     1  0.0000000  0.6508444  3
   4968   4970   4974   4975     1  180.0000771  2.0083200  2
   4968   4970   4974   4975     1  0.0000000  1.2552000  3
   4968   4970   4974   4976     1  180.0000771  2.0083200  2
   4968   4970   4974   4976     1  0.0000000  1.2552000  3
   4970   4974   4975   4986     1  180.0000771  2.0083200  2
   4970   4974   4975   4986     1  0.0000000  1.2552000  3
   4970   4974   4976   4978     1  180.0000771  2.0083200  2
   4970   4974   4976   4978     1  0.0000000  1.2552000  3
   4974   4975   4986   4989     1  0.0000000  0.6508444  3
   4974   4976   4978   4982     1  0.0000000  0.6508444  3
   4975   4986   4989   4990     1  180.0000771  0.0000000  2
   4975   4986   4989   5038     1  180.0000771  0.0000000  2
   4975   4974   4976   4978     1  180.0000771  2.0083200  2
   4975   4974   4976   4978     1  0.0000000  1.2552000  3
   4976   4978   4982   4983     1  180.0000771  0.0000000  2
   4976   4978   4982   5014     1  180.0000771  0.0000000  2
   4976   4974   4975   4986     1  180.0000771  2.0083200  2
   4976   4974   4975   4986     1  0.0000000  1.2552000  3
   4978   4982   5014   4995     1  180.0000771  6.0668000  2
   4978   4982   5014   4995     1  180.0000771  1.4644000  4
   4982   5014   4995   4996     1  0.0000000  1.2552000  3
   4982   5014   4995   4994     1  0.0000000  1.2552000  3
   4983   4982   5014   4995     1  180.0000771  6.0668000  2
   4983   4982   5014   4995     1  180.0000771  1.4644000  4
   4986   4989   5038   5019     1  180.0000771  6.0668000  2
   4986   4989   5038   5019     1  180.0000771  1.4644000  4
   4989   5038   5019   5020     1  0.0000000  1.2552000  3
   4989   5038   5019   5018     1  0.0000000  1.2552000  3
   4990   4989   5038   5019     1  180.0000771  6.0668000  2
   4990   4989   5038   5019     1  180.0000771  1.4644000  4
   4991   4992   4994   4995     1  180.0000771  0.8368000  1
   4991   4992   4994   4995     1  180.0000771  1.0460000  2
   4991   4992   4994   4995     1  0.0000000  0.7531200  3
   4991   4992   4994   5001     1  0.0000000  0.6508444  3
   4991   5009   4996   5000     1  0.0000000  1.6038667  3
   4991   5009   4996   4995     1  180.0000771  0.4184000  2
   4991   5009   4996   4995     1  0.0000000  1.6024720  3
   4992   4994   4995   4996     1  180.0000771  0.8368000  1
   4992   4994   4995   4996     1  180.0000771  1.0460000  2
   4992   4994   4995   4996     1  0.0000000  0.7531200  3
   4992   4994   4995   5014     1  0.0000000  0.6508444  3
   4992   4991   5002   5007     1  0.0000000  0.6508444  3
   4992   4991   5009   4996     1  180.0000771  0.4184000  2
   4992   4991   5009   4996     1  0.0000000  1.6024720  3
   4994   4995   4996   5000     1  0.0000000  0.6508444  3
   4994   4995   4996   5009     1  0.0000000  0.6508444  3
   4994   4992   4991   5002     1  180.0000771  0.8368000  1
   4994   4992   4991   5002     1  180.0000771  1.0460000  2
   4994   4992   4991   5002     1  0.0000000  0.7531200  3
   4994   4992   4991   5009     1  0.0000000  0.6508444  3
   4995   4994   4992   5012     1  0.0000000  0.6508444  3
   4996   5009   4991   5002     1  180.0000771  0.4184000  2
   4996   5009   4991   5002     1  0.0000000  1.6024720  3
   4996   4995   4994   5001     1  0.0000000  0.6508444  3
   5000   4996   4995   5014     1  0.0000000  0.6508444  3
   5001   4994   4995   5014     1  0.0000000  0.6508444  3
   5001   4994   4992   5012     1  0.0000000  4.9162000  2
   5001   4994   4992   5012     1  0.0000000  0.6024960  3
   5002   4991   4992   5012     1  0.0000000  0.6508444  3
   5007   5002   4991   5009     1  0.0000000  4.9162000  2
   5007   5002   4991   5009     1  0.0000000  0.6024960  3
   5009   4996   4995   5014     1  0.0000000  0.6508444  3
   5009   4991   4992   5012     1  0.0000000  4.9162000  2
   5009   4991   4992   5012     1  0.0000000  0.6024960  3
   5015   5016   5018   5019     1  180.0000771  0.8368000  1
   5015   5016   5018   5019     1  180.0000771  1.0460000  2
   5015   5016   5018   5019     1  0.0000000  0.7531200  3
   5015   5016   5018   5025     1  0.0000000  0.6508444  3
   5015   5033   5020   5024     1  0.0000000  1.6038667  3
   5015   5033   5020   5019     1  180.0000771  0.4184000  2
   5015   5033   5020   5019     1  0.0000000  1.6024720  3
   5016   5018   5019   5020     1  180.0000771  0.8368000  1
   5016   5018   5019   5020     1  180.0000771  1.0460000  2
   5016   5018   5019   5020     1  0.0000000  0.7531200  3
   5016   5018   5019   5038     1  0.0000000  0.6508444  3
   5016   5015   5026   5031     1  0.0000000  0.6508444  3
   5016   5015   5033   5020     1  180.0000771  0.4184000  2
   5016   5015   5033   5020     1  0.0000000  1.6024720  3
   5018   5019   5020   5024     1  0.0000000  0.6508444  3
   5018   5019   5020   5033     1  0.0000000  0.6508444  3
   5018   5016   5015   5026     1  180.0000771  0.8368000  1
   5018   5016   5015   5026     1  180.0000771  1.0460000  2
   5018   5016   5015   5026     1  0.0000000  0.7531200  3
   5018   5016   5015   5033     1  0.0000000  0.6508444  3
   5019   5018   5016   5036     1  0.0000000  0.6508444  3
   5020   5033   5015   5026     1  180.0000771  0.4184000  2
   5020   5033   5015   5026     1  0.0000000  1.6024720  3
   5020   5019   5018   5025     1  0.0000000  0.6508444  3
   5024   5020   5019   5038     1  0.0000000  0.6508444  3
   5025   5018   5019   5038     1  0.0000000  0.6508444  3
   5025   5018   5016   5036     1  0.0000000  4.9162000  2
   5025   5018   5016   5036     1  0.0000000  0.6024960  3
   5026   5015   5016   5036     1  0.0000000  0.6508444  3
   5031   5026   5015   5033     1  0.0000000  4.9162000  2
   5031   5026   5015   5033     1  0.0000000  0.6024960  3
   5033   5020   5019   5038     1  0.0000000  0.6508444  3
   5033   5015   5016   5036     1  0.0000000  4.9162000  2
   5033   5015   5016   5036     1  0.0000000  0.6024960  3
   5039   5041   5043   5047     1  0.0000000  0.6508444  3
   5041   5043   5047   5048     1  180.0000771  2.0083200  2
   5041   5043   5047   5048     1  0.0000000  1.2552000  3
   5041   5043   5047   5049     1  180.0000771  2.0083200  2
   5041   5043   5047   5049     1  0.0000000  1.2552000  3
   5043   5047   5048   5059     1  180.0000771  2.0083200  2
   5043   5047   5048   5059     1  0.0000000  1.2552000  3
   5043   5047   5049   5051     1  180.0000771  2.0083200  2
   5043   5047   5049   5051     1  0.0000000  1.2552000  3
   5047   5048   5059   5062     1  0.0000000  0.6508444  3
   5047   5049   5051   5055     1  0.0000000  0.6508444  3
   5048   5047   5049   5051     1  180.0000771  2.0083200  2
   5048   5047   5049   5051     1  0.0000000  1.2552000  3
   5048   5059   5062   5063     1  180.0000771  0.0000000  2
   5048   5059   5062   5111     1  180.0000771  0.0000000  2
   5049   5047   5048   5059     1  180.0000771  2.0083200  2
   5049   5047   5048   5059     1  0.0000000  1.2552000  3
   5049   5051   5055   5056     1  180.0000771  0.0000000  2
   5049   5051   5055   5087     1  180.0000771  0.0000000  2
   5051   5055   5087   5068     1  180.0000771  6.0668000  2
   5051   5055   5087   5068     1  180.0000771  1.4644000  4
   5055   5087   5068   5067     1  0.0000000  1.2552000  3
   5055   5087   5068   5069     1  0.0000000  1.2552000  3
   5056   5055   5087   5068     1  180.0000771  6.0668000  2
   5056   5055   5087   5068     1  180.0000771  1.4644000  4
   5059   5062   5111   5092     1  180.0000771  6.0668000  2
   5059   5062   5111   5092     1  180.0000771  1.4644000  4
   5062   5111   5092   5091     1  0.0000000  1.2552000  3
   5062   5111   5092   5093     1  0.0000000  1.2552000  3
   5063   5062   5111   5092     1  180.0000771  6.0668000  2
   5063   5062   5111   5092     1  180.0000771  1.4644000  4
   5064   5065   5067   5068     1  180.0000771  0.8368000  1
   5064   5065   5067   5068     1  180.0000771  1.0460000  2
   5064   5065   5067   5068     1  0.0000000  0.7531200  3
   5064   5065   5067   5074     1  0.0000000  0.6508444  3
   5064   5082   5069   5068     1  180.0000771  0.4184000  2
   5064   5082   5069   5068     1  0.0000000  1.6024720  3
   5064   5082   5069   5073     1  0.0000000  1.6038667  3
   5065   5064   5075   5080     1  0.0000000  0.6508444  3
   5065   5064   5082   5069     1  180.0000771  0.4184000  2
   5065   5064   5082   5069     1  0.0000000  1.6024720  3
   5065   5067   5068   5069     1  180.0000771  0.8368000  1
   5065   5067   5068   5069     1  180.0000771  1.0460000  2
   5065   5067   5068   5069     1  0.0000000  0.7531200  3
   5065   5067   5068   5087     1  0.0000000  0.6508444  3
   5067   5065   5064   5075     1  180.0000771  0.8368000  1
   5067   5065   5064   5075     1  180.0000771  1.0460000  2
   5067   5065   5064   5075     1  0.0000000  0.7531200  3
   5067   5065   5064   5082     1  0.0000000  0.6508444  3
   5067   5068   5069   5073     1  0.0000000  0.6508444  3
   5067   5068   5069   5082     1  0.0000000  0.6508444  3
   5068   5067   5065   5085     1  0.0000000  0.6508444  3
   5069   5068   5067   5074     1  0.0000000  0.6508444  3
   5069   5082   5064   5075     1  180.0000771  0.4184000  2
   5069   5082   5064   5075     1  0.0000000  1.6024720  3
   5073   5069   5068   5087     1  0.0000000  0.6508444  3
   5074   5067   5065   5085     1  0.0000000  4.9162000  2
   5074   5067   5065   5085     1  0.0000000  0.6024960  3
   5074   5067   5068   5087     1  0.0000000  0.6508444  3
   5075   5064   5065   5085     1  0.0000000  0.6508444  3
   5080   5075   5064   5082     1  0.0000000  4.9162000  2
   5080   5075   5064   5082     1  0.0000000  0.6024960  3
   5082   5064   5065   5085     1  0.0000000  4.9162000  2
   5082   5064   5065   5085     1  0.0000000  0.6024960  3
   5082   5069   5068   5087     1  0.0000000  0.6508444  3
   5088   5089   5091   5092     1  180.0000771  0.8368000  1
   5088   5089   5091   5092     1  180.0000771  1.0460000  2
   5088   5089   5091   5092     1  0.0000000  0.7531200  3
   5088   5089   5091   5098     1  0.0000000  0.6508444  3
   5088   5106   5093   5092     1  180.0000771  0.4184000  2
   5088   5106   5093   5092     1  0.0000000  1.6024720  3
   5088   5106   5093   5097     1  0.0000000  1.6038667  3
   5089   5088   5099   5104     1  0.0000000  0.6508444  3
   5089   5088   5106   5093     1  180.0000771  0.4184000  2
   5089   5088   5106   5093     1  0.0000000  1.6024720  3
   5089   5091   5092   5093     1  180.0000771  0.8368000  1
   5089   5091   5092   5093     1  180.0000771  1.0460000  2
   5089   5091   5092   5093     1  0.0000000  0.7531200  3
   5089   5091   5092   5111     1  0.0000000  0.6508444  3
   5091   5089   5088   5099     1  180.0000771  0.8368000  1
   5091   5089   5088   5099     1  180.0000771  1.0460000  2
   5091   5089   5088   5099     1  0.0000000  0.7531200  3
   5091   5089   5088   5106     1  0.0000000  0.6508444  3
   5091   5092   5093   5097     1  0.0000000  0.6508444  3
   5091   5092   5093   5106     1  0.0000000  0.6508444  3
   5092   5091   5089   5109     1  0.0000000  0.6508444  3
   5093   5092   5091   5098     1  0.0000000  0.6508444  3
   5093   5106   5088   5099     1  180.0000771  0.4184000  2
   5093   5106   5088   5099     1  0.0000000  1.6024720  3
   5097   5093   5092   5111     1  0.0000000  0.6508444  3
   5098   5091   5089   5109     1  0.0000000  4.9162000  2
   5098   5091   5089   5109     1  0.0000000  0.6024960  3
   5098   5091   5092   5111     1  0.0000000  0.6508444  3
   5099   5088   5089   5109     1  0.0000000  0.6508444  3
   5104   5099   5088   5106     1  0.0000000  4.9162000  2
   5104   5099   5088   5106     1  0.0000000  0.6024960  3
   5106   5088   5089   5109     1  0.0000000  4.9162000  2
   5106   5088   5089   5109     1  0.0000000  0.6024960  3
   5106   5093   5092   5111     1  0.0000000  0.6508444  3
   5112   5114   5116   5120     1  0.0000000  0.6508444  3
   5114   5116   5120   5121     1  180.0000771  2.0083200  2
   5114   5116   5120   5121     1  0.0000000  1.2552000  3
   5114   5116   5120   5122     1  180.0000771  2.0083200  2
   5114   5116   5120   5122     1  0.0000000  1.2552000  3
   5116   5120   5121   5132     1  180.0000771  2.0083200  2
   5116   5120   5121   5132     1  0.0000000  1.2552000  3
   5116   5120   5122   5124     1  180.0000771  2.0083200  2
   5116   5120   5122   5124     1  0.0000000  1.2552000  3
   5120   5121   5132   5135     1  0.0000000  0.6508444  3
   5120   5122   5124   5128     1  0.0000000  0.6508444  3
   5121   5132   5135   5136     1  180.0000771  0.0000000  2
   5121   5132   5135   5184     1  180.0000771  0.0000000  2
   5121   5120   5122   5124     1  180.0000771  2.0083200  2
   5121   5120   5122   5124     1  0.0000000  1.2552000  3
   5122   5124   5128   5129     1  180.0000771  0.0000000  2
   5122   5124   5128   5160     1  180.0000771  0.0000000  2
   5122   5120   5121   5132     1  180.0000771  2.0083200  2
   5122   5120   5121   5132     1  0.0000000  1.2552000  3
   5124   5128   5160   5141     1  180.0000771  6.0668000  2
   5124   5128   5160   5141     1  180.0000771  1.4644000  4
   5128   5160   5141   5142     1  0.0000000  1.2552000  3
   5128   5160   5141   5140     1  0.0000000  1.2552000  3
   5129   5128   5160   5141     1  180.0000771  6.0668000  2
   5129   5128   5160   5141     1  180.0000771  1.4644000  4
   5132   5135   5184   5165     1  180.0000771  6.0668000  2
   5132   5135   5184   5165     1  180.0000771  1.4644000  4
   5135   5184   5165   5166     1  0.0000000  1.2552000  3
   5135   5184   5165   5164     1  0.0000000  1.2552000  3
   5136   5135   5184   5165     1  180.0000771  6.0668000  2
   5136   5135   5184   5165     1  180.0000771  1.4644000  4
   5137   5138   5140   5141     1  180.0000771  0.8368000  1
   5137   5138   5140   5141     1  180.0000771  1.0460000  2
   5137   5138   5140   5141     1  0.0000000  0.7531200  3
   5137   5138   5140   5147     1  0.0000000  0.6508444  3
   5137   5155   5142   5146     1  0.0000000  1.6038667  3
   5137   5155   5142   5141     1  180.0000771  0.4184000  2
   5137   5155   5142   5141     1  0.0000000  1.6024720  3
   5138   5140   5141   5142     1  180.0000771  0.8368000  1
   5138   5140   5141   5142     1  180.0000771  1.0460000  2
   5138   5140   5141   5142     1  0.0000000  0.7531200  3
   5138   5140   5141   5160     1  0.0000000  0.6508444  3
   5138   5137   5148   5153     1  0.0000000  0.6508444  3
   5138   5137   5155   5142     1  180.0000771  0.4184000  2
   5138   5137   5155   5142     1  0.0000000  1.6024720  3
   5140   5141   5142   5146     1  0.0000000  0.6508444  3
   5140   5141   5142   5155     1  0.0000000  0.6508444  3
   5140   5138   5137   5148     1  180.0000771  0.8368000  1
   5140   5138   5137   5148     1  180.0000771  1.0460000  2
   5140   5138   5137   5148     1  0.0000000  0.7531200  3
   5140   5138   5137   5155     1  0.0000000  0.6508444  3
   5141   5140   5138   5158     1  0.0000000  0.6508444  3
   5142   5155   5137   5148     1  180.0000771  0.4184000  2
   5142   5155   5137   5148     1  0.0000000  1.6024720  3
   5142   5141   5140   5147     1  0.0000000  0.6508444  3
   5146   5142   5141   5160     1  0.0000000  0.6508444  3
   5147   5140   5141   5160     1  0.0000000  0.6508444  3
   5147   5140   5138   5158     1  0.0000000  4.9162000  2
   5147   5140   5138   5158     1  0.0000000  0.6024960  3
   5148   5137   5138   5158     1  0.0000000  0.6508444  3
   5153   5148   5137   5155     1  0.0000000  4.9162000  2
   5153   5148   5137   5155     1  0.0000000  0.6024960  3
   5155   5142   5141   5160     1  0.0000000  0.6508444  3
   5155   5137   5138   5158     1  0.0000000  4.9162000  2
   5155   5137   5138   5158     1  0.0000000  0.6024960  3
   5161   5162   5164   5165     1  180.0000771  0.8368000  1
   5161   5162   5164   5165     1  180.0000771  1.0460000  2
   5161   5162   5164   5165     1  0.0000000  0.7531200  3
   5161   5162   5164   5171     1  0.0000000  0.6508444  3
   5161   5179   5166   5170     1  0.0000000  1.6038667  3
   5161   5179   5166   5165     1  180.0000771  0.4184000  2
   5161   5179   5166   5165     1  0.0000000  1.6024720  3
   5162   5164   5165   5166     1  180.0000771  0.8368000  1
   5162   5164   5165   5166     1  180.0000771  1.0460000  2
   5162   5164   5165   5166     1  0.0000000  0.7531200  3
   5162   5164   5165   5184     1  0.0000000  0.6508444  3
   5162   5161   5172   5177     1  0.0000000  0.6508444  3
   5162   5161   5179   5166     1  180.0000771  0.4184000  2
   5162   5161   5179   5166     1  0.0000000  1.6024720  3
   5164   5165   5166   5170     1  0.0000000  0.6508444  3
   5164   5165   5166   5179     1  0.0000000  0.6508444  3
   5164   5162   5161   5172     1  180.0000771  0.8368000  1
   5164   5162   5161   5172     1  180.0000771  1.0460000  2
   5164   5162   5161   5172     1  0.0000000  0.7531200  3
   5164   5162   5161   5179     1  0.0000000  0.6508444  3
   5165   5164   5162   5182     1  0.0000000  0.6508444  3
   5166   5179   5161   5172     1  180.0000771  0.4184000  2
   5166   5179   5161   5172     1  0.0000000  1.6024720  3
   5166   5165   5164   5171     1  0.0000000  0.6508444  3
   5170   5166   5165   5184     1  0.0000000  0.6508444  3
   5171   5164   5165   5184     1  0.0000000  0.6508444  3
   5171   5164   5162   5182     1  0.0000000  4.9162000  2
   5171   5164   5162   5182     1  0.0000000  0.6024960  3
   5172   5161   5162   5182     1  0.0000000  0.6508444  3
   5177   5172   5161   5179     1  0.0000000  4.9162000  2
   5177   5172   5161   5179     1  0.0000000  0.6024960  3
   5179   5166   5165   5184     1  0.0000000  0.6508444  3
   5179   5161   5162   5182     1  0.0000000  4.9162000  2
   5179   5161   5162   5182     1  0.0000000  0.6024960  3
   5185   5187   5189   5193     1  0.0000000  0.6508444  3
   5187   5189   5193   5194     1  180.0000771  2.0083200  2
   5187   5189   5193   5194     1  0.0000000  1.2552000  3
   5187   5189   5193   5195     1  180.0000771  2.0083200  2
   5187   5189   5193   5195     1  0.0000000  1.2552000  3
   5189   5193   5194   5205     1  180.0000771  2.0083200  2
   5189   5193   5194   5205     1  0.0000000  1.2552000  3
   5189   5193   5195   5197     1  180.0000771  2.0083200  2
   5189   5193   5195   5197     1  0.0000000  1.2552000  3
   5193   5194   5205   5208     1  0.0000000  0.6508444  3
   5193   5195   5197   5201     1  0.0000000  0.6508444  3
   5194   5193   5195   5197     1  180.0000771  2.0083200  2
   5194   5193   5195   5197     1  0.0000000  1.2552000  3
   5194   5205   5208   5209     1  180.0000771  0.0000000  2
   5194   5205   5208   5257     1  180.0000771  0.0000000  2
   5195   5193   5194   5205     1  180.0000771  2.0083200  2
   5195   5193   5194   5205     1  0.0000000  1.2552000  3
   5195   5197   5201   5202     1  180.0000771  0.0000000  2
   5195   5197   5201   5233     1  180.0000771  0.0000000  2
   5197   5201   5233   5214     1  180.0000771  6.0668000  2
   5197   5201   5233   5214     1  180.0000771  1.4644000  4
   5201   5233   5214   5213     1  0.0000000  1.2552000  3
   5201   5233   5214   5215     1  0.0000000  1.2552000  3
   5202   5201   5233   5214     1  180.0000771  6.0668000  2
   5202   5201   5233   5214     1  180.0000771  1.4644000  4
   5205   5208   5257   5238     1  180.0000771  6.0668000  2
   5205   5208   5257   5238     1  180.0000771  1.4644000  4
   5208   5257   5238   5237     1  0.0000000  1.2552000  3
   5208   5257   5238   5239     1  0.0000000  1.2552000  3
   5209   5208   5257   5238     1  180.0000771  6.0668000  2
   5209   5208   5257   5238     1  180.0000771  1.4644000  4
   5210   5211   5213   5214     1  180.0000771  0.8368000  1
   5210   5211   5213   5214     1  180.0000771  1.0460000  2
   5210   5211   5213   5214     1  0.0000000  0.7531200  3
   5210   5211   5213   5220     1  0.0000000  0.6508444  3
   5210   5228   5215   5214     1  180.0000771  0.4184000  2
   5210   5228   5215   5214     1  0.0000000  1.6024720  3
   5210   5228   5215   5219     1  0.0000000  1.6038667  3
   5211   5210   5221   5226     1  0.0000000  0.6508444  3
   5211   5210   5228   5215     1  180.0000771  0.4184000  2
   5211   5210   5228   5215     1  0.0000000  1.6024720  3
   5211   5213   5214   5215     1  180.0000771  0.8368000  1
   5211   5213   5214   5215     1  180.0000771  1.0460000  2
   5211   5213   5214   5215     1  0.0000000  0.7531200  3
   5211   5213   5214   5233     1  0.0000000  0.6508444  3
   5213   5211   5210   5221     1  180.0000771  0.8368000  1
   5213   5211   5210   5221     1  180.0000771  1.0460000  2
   5213   5211   5210   5221     1  0.0000000  0.7531200  3
   5213   5211   5210   5228     1  0.0000000  0.6508444  3
   5213   5214   5215   5219     1  0.0000000  0.6508444  3
   5213   5214   5215   5228     1  0.0000000  0.6508444  3
   5214   5213   5211   5231     1  0.0000000  0.6508444  3
   5215   5214   5213   5220     1  0.0000000  0.6508444  3
   5215   5228   5210   5221     1  180.0000771  0.4184000  2
   5215   5228   5210   5221     1  0.0000000  1.6024720  3
   5219   5215   5214   5233     1  0.0000000  0.6508444  3
   5220   5213   5211   5231     1  0.0000000  4.9162000  2
   5220   5213   5211   5231     1  0.0000000  0.6024960  3
   5220   5213   5214   5233     1  0.0000000  0.6508444  3
   5221   5210   5211   5231     1  0.0000000  0.6508444  3
   5226   5221   5210   5228     1  0.0000000  4.9162000  2
   5226   5221   5210   5228     1  0.0000000  0.6024960  3
   5228   5210   5211   5231     1  0.0000000  4.9162000  2
   5228   5210   5211   5231     1  0.0000000  0.6024960  3
   5228   5215   5214   5233     1  0.0000000  0.6508444  3
   5234   5235   5237   5238     1  180.0000771  0.8368000  1
   5234   5235   5237   5238     1  180.0000771  1.0460000  2
   5234   5235   5237   5238     1  0.0000000  0.7531200  3
   5234   5235   5237   5244     1  0.0000000  0.6508444  3
   5234   5252   5239   5238     1  180.0000771  0.4184000  2
   5234   5252   5239   5238     1  0.0000000  1.6024720  3
   5234   5252   5239   5243     1  0.0000000  1.6038667  3
   5235   5234   5245   5250     1  0.0000000  0.6508444  3
   5235   5234   5252   5239     1  180.0000771  0.4184000  2
   5235   5234   5252   5239     1  0.0000000  1.6024720  3
   5235   5237   5238   5239     1  180.0000771  0.8368000  1
   5235   5237   5238   5239     1  180.0000771  1.0460000  2
   5235   5237   5238   5239     1  0.0000000  0.7531200  3
   5235   5237   5238   5257     1  0.0000000  0.6508444  3
   5237   5235   5234   5245     1  180.0000771  0.8368000  1
   5237   5235   5234   5245     1  180.0000771  1.0460000  2
   5237   5235   5234   5245     1  0.0000000  0.7531200  3
   5237   5235   5234   5252     1  0.0000000  0.6508444  3
   5237   5238   5239   5243     1  0.0000000  0.6508444  3
   5237   5238   5239   5252     1  0.0000000  0.6508444  3
   5238   5237   5235   5255     1  0.0000000  0.6508444  3
   5239   5238   5237   5244     1  0.0000000  0.6508444  3
   5239   5252   5234   5245     1  180.0000771  0.4184000  2
   5239   5252   5234   5245     1  0.0000000  1.6024720  3
   5243   5239   5238   5257     1  0.0000000  0.6508444  3
   5244   5237   5235   5255     1  0.0000000  4.9162000  2
   5244   5237   5235   5255     1  0.0000000  0.6024960  3
   5244   5237   5238   5257     1  0.0000000  0.6508444  3
   5245   5234   5235   5255     1  0.0000000  0.6508444  3
   5250   5245   5234   5252     1  0.0000000  4.9162000  2
   5250   5245   5234   5252     1  0.0000000  0.6024960  3
   5252   5234   5235   5255     1  0.0000000  4.9162000  2
   5252   5234   5235   5255     1  0.0000000  0.6024960  3
   5252   5239   5238   5257     1  0.0000000  0.6508444  3
   5258   5260   5262   5266     1  0.0000000  0.6508444  3
   5260   5262   5266   5267     1  180.0000771  2.0083200  2
   5260   5262   5266   5267     1  0.0000000  1.2552000  3
   5260   5262   5266   5268     1  180.0000771  2.0083200  2
   5260   5262   5266   5268     1  0.0000000  1.2552000  3
   5262   5266   5267   5278     1  180.0000771  2.0083200  2
   5262   5266   5267   5278     1  0.0000000  1.2552000  3
   5262   5266   5268   5270     1  180.0000771  2.0083200  2
   5262   5266   5268   5270     1  0.0000000  1.2552000  3
   5266   5267   5278   5281     1  0.0000000  0.6508444  3
   5266   5268   5270   5274     1  0.0000000  0.6508444  3
   5267   5278   5281   5282     1  180.0000771  0.0000000  2
   5267   5278   5281   5330     1  180.0000771  0.0000000  2
   5267   5266   5268   5270     1  180.0000771  2.0083200  2
   5267   5266   5268   5270     1  0.0000000  1.2552000  3
   5268   5270   5274   5275     1  180.0000771  0.0000000  2
   5268   5270   5274   5306     1  180.0000771  0.0000000  2
   5268   5266   5267   5278     1  180.0000771  2.0083200  2
   5268   5266   5267   5278     1  0.0000000  1.2552000  3
   5270   5274   5306   5287     1  180.0000771  6.0668000  2
   5270   5274   5306   5287     1  180.0000771  1.4644000  4
   5274   5306   5287   5288     1  0.0000000  1.2552000  3
   5274   5306   5287   5286     1  0.0000000  1.2552000  3
   5275   5274   5306   5287     1  180.0000771  6.0668000  2
   5275   5274   5306   5287     1  180.0000771  1.4644000  4
   5278   5281   5330   5311     1  180.0000771  6.0668000  2
   5278   5281   5330   5311     1  180.0000771  1.4644000  4
   5281   5330   5311   5312     1  0.0000000  1.2552000  3
   5281   5330   5311   5310     1  0.0000000  1.2552000  3
   5282   5281   5330   5311     1  180.0000771  6.0668000  2
   5282   5281   5330   5311     1  180.0000771  1.4644000  4
   5283   5284   5286   5287     1  180.0000771  0.8368000  1
   5283   5284   5286   5287     1  180.0000771  1.0460000  2
   5283   5284   5286   5287     1  0.0000000  0.7531200  3
   5283   5284   5286   5293     1  0.0000000  0.6508444  3
   5283   5301   5288   5292     1  0.0000000  1.6038667  3
   5283   5301   5288   5287     1  180.0000771  0.4184000  2
   5283   5301   5288   5287     1  0.0000000  1.6024720  3
   5284   5286   5287   5288     1  180.0000771  0.8368000  1
   5284   5286   5287   5288     1  180.0000771  1.0460000  2
   5284   5286   5287   5288     1  0.0000000  0.7531200  3
   5284   5286   5287   5306     1  0.0000000  0.6508444  3
   5284   5283   5294   5299     1  0.0000000  0.6508444  3
   5284   5283   5301   5288     1  180.0000771  0.4184000  2
   5284   5283   5301   5288     1  0.0000000  1.6024720  3
   5286   5287   5288   5292     1  0.0000000  0.6508444  3
   5286   5287   5288   5301     1  0.0000000  0.6508444  3
   5286   5284   5283   5294     1  180.0000771  0.8368000  1
   5286   5284   5283   5294     1  180.0000771  1.0460000  2
   5286   5284   5283   5294     1  0.0000000  0.7531200  3
   5286   5284   5283   5301     1  0.0000000  0.6508444  3
   5287   5286   5284   5304     1  0.0000000  0.6508444  3
   5288   5301   5283   5294     1  180.0000771  0.4184000  2
   5288   5301   5283   5294     1  0.0000000  1.6024720  3
   5288   5287   5286   5293     1  0.0000000  0.6508444  3
   5292   5288   5287   5306     1  0.0000000  0.6508444  3
   5293   5286   5287   5306     1  0.0000000  0.6508444  3
   5293   5286   5284   5304     1  0.0000000  4.9162000  2
   5293   5286   5284   5304     1  0.0000000  0.6024960  3
   5294   5283   5284   5304     1  0.0000000  0.6508444  3
   5299   5294   5283   5301     1  0.0000000  4.9162000  2
   5299   5294   5283   5301     1  0.0000000  0.6024960  3
   5301   5288   5287   5306     1  0.0000000  0.6508444  3
   5301   5283   5284   5304     1  0.0000000  4.9162000  2
   5301   5283   5284   5304     1  0.0000000  0.6024960  3
   5307   5308   5310   5311     1  180.0000771  0.8368000  1
   5307   5308   5310   5311     1  180.0000771  1.0460000  2
   5307   5308   5310   5311     1  0.0000000  0.7531200  3
   5307   5308   5310   5317     1  0.0000000  0.6508444  3
   5307   5325   5312   5316     1  0.0000000  1.6038667  3
   5307   5325   5312   5311     1  180.0000771  0.4184000  2
   5307   5325   5312   5311     1  0.0000000  1.6024720  3
   5308   5310   5311   5312     1  180.0000771  0.8368000  1
   5308   5310   5311   5312     1  180.0000771  1.0460000  2
   5308   5310   5311   5312     1  0.0000000  0.7531200  3
   5308   5310   5311   5330     1  0.0000000  0.6508444  3
   5308   5307   5318   5323     1  0.0000000  0.6508444  3
   5308   5307   5325   5312     1  180.0000771  0.4184000  2
   5308   5307   5325   5312     1  0.0000000  1.6024720  3
   5310   5311   5312   5316     1  0.0000000  0.6508444  3
   5310   5311   5312   5325     1  0.0000000  0.6508444  3
   5310   5308   5307   5318     1  180.0000771  0.8368000  1
   5310   5308   5307   5318     1  180.0000771  1.0460000  2
   5310   5308   5307   5318     1  0.0000000  0.7531200  3
   5310   5308   5307   5325     1  0.0000000  0.6508444  3
   5311   5310   5308   5328     1  0.0000000  0.6508444  3
   5312   5325   5307   5318     1  180.0000771  0.4184000  2
   5312   5325   5307   5318     1  0.0000000  1.6024720  3
   5312   5311   5310   5317     1  0.0000000  0.6508444  3
   5316   5312   5311   5330     1  0.0000000  0.6508444  3
   5317   5310   5311   5330     1  0.0000000  0.6508444  3
   5317   5310   5308   5328     1  0.0000000  4.9162000  2
   5317   5310   5308   5328     1  0.0000000  0.6024960  3
   5318   5307   5308   5328     1  0.0000000  0.6508444  3
   5323   5318   5307   5325     1  0.0000000  4.9162000  2
   5323   5318   5307   5325     1  0.0000000  0.6024960  3
   5325   5312   5311   5330     1  0.0000000  0.6508444  3
   5325   5307   5308   5328     1  0.0000000  4.9162000  2
   5325   5307   5308   5328     1  0.0000000  0.6024960  3
   5331   5333   5335   5339     1  0.0000000  0.6508444  3
   5333   5335   5339   5340     1  180.0000771  2.0083200  2
   5333   5335   5339   5340     1  0.0000000  1.2552000  3
   5333   5335   5339   5341     1  180.0000771  2.0083200  2
   5333   5335   5339   5341     1  0.0000000  1.2552000  3
   5335   5339   5340   5351     1  180.0000771  2.0083200  2
   5335   5339   5340   5351     1  0.0000000  1.2552000  3
   5335   5339   5341   5343     1  180.0000771  2.0083200  2
   5335   5339   5341   5343     1  0.0000000  1.2552000  3
   5339   5340   5351   5354     1  0.0000000  0.6508444  3
   5339   5341   5343   5347     1  0.0000000  0.6508444  3
   5340   5339   5341   5343     1  180.0000771  2.0083200  2
   5340   5339   5341   5343     1  0.0000000  1.2552000  3
   5340   5351   5354   5355     1  180.0000771  0.0000000  2
   5340   5351   5354   5403     1  180.0000771  0.0000000  2
   5341   5339   5340   5351     1  180.0000771  2.0083200  2
   5341   5339   5340   5351     1  0.0000000  1.2552000  3
   5341   5343   5347   5348     1  180.0000771  0.0000000  2
   5341   5343   5347   5379     1  180.0000771  0.0000000  2
   5343   5347   5379   5360     1  180.0000771  6.0668000  2
   5343   5347   5379   5360     1  180.0000771  1.4644000  4
   5347   5379   5360   5359     1  0.0000000  1.2552000  3
   5347   5379   5360   5361     1  0.0000000  1.2552000  3
   5348   5347   5379   5360     1  180.0000771  6.0668000  2
   5348   5347   5379   5360     1  180.0000771  1.4644000  4
   5351   5354   5403   5384     1  180.0000771  6.0668000  2
   5351   5354   5403   5384     1  180.0000771  1.4644000  4
   5354   5403   5384   5383     1  0.0000000  1.2552000  3
   5354   5403   5384   5385     1  0.0000000  1.2552000  3
   5355   5354   5403   5384     1  180.0000771  6.0668000  2
   5355   5354   5403   5384     1  180.0000771  1.4644000  4
   5356   5357   5359   5360     1  180.0000771  0.8368000  1
   5356   5357   5359   5360     1  180.0000771  1.0460000  2
   5356   5357   5359   5360     1  0.0000000  0.7531200  3
   5356   5357   5359   5366     1  0.0000000  0.6508444  3
   5356   5374   5361   5360     1  180.0000771  0.4184000  2
   5356   5374   5361   5360     1  0.0000000  1.6024720  3
   5356   5374   5361   5365     1  0.0000000  1.6038667  3
   5357   5356   5367   5372     1  0.0000000  0.6508444  3
   5357   5356   5374   5361     1  180.0000771  0.4184000  2
   5357   5356   5374   5361     1  0.0000000  1.6024720  3
   5357   5359   5360   5361     1  180.0000771  0.8368000  1
   5357   5359   5360   5361     1  180.0000771  1.0460000  2
   5357   5359   5360   5361     1  0.0000000  0.7531200  3
   5357   5359   5360   5379     1  0.0000000  0.6508444  3
   5359   5357   5356   5367     1  180.0000771  0.8368000  1
   5359   5357   5356   5367     1  180.0000771  1.0460000  2
   5359   5357   5356   5367     1  0.0000000  0.7531200  3
   5359   5357   5356   5374     1  0.0000000  0.6508444  3
   5359   5360   5361   5365     1  0.0000000  0.6508444  3
   5359   5360   5361   5374     1  0.0000000  0.6508444  3
   5360   5359   5357   5377     1  0.0000000  0.6508444  3
   5361   5360   5359   5366     1  0.0000000  0.6508444  3
   5361   5374   5356   5367     1  180.0000771  0.4184000  2
   5361   5374   5356   5367     1  0.0000000  1.6024720  3
   5365   5361   5360   5379     1  0.0000000  0.6508444  3
   5366   5359   5357   5377     1  0.0000000  4.9162000  2
   5366   5359   5357   5377     1  0.0000000  0.6024960  3
   5366   5359   5360   5379     1  0.0000000  0.6508444  3
   5367   5356   5357   5377     1  0.0000000  0.6508444  3
   5372   5367   5356   5374     1  0.0000000  4.9162000  2
   5372   5367   5356   5374     1  0.0000000  0.6024960  3
   5374   5356   5357   5377     1  0.0000000  4.9162000  2
   5374   5356   5357   5377     1  0.0000000  0.6024960  3
   5374   5361   5360   5379     1  0.0000000  0.6508444  3
   5380   5381   5383   5384     1  180.0000771  0.8368000  1
   5380   5381   5383   5384     1  180.0000771  1.0460000  2
   5380   5381   5383   5384     1  0.0000000  0.7531200  3
   5380   5381   5383   5390     1  0.0000000  0.6508444  3
   5380   5398   5385   5384     1  180.0000771  0.4184000  2
   5380   5398   5385   5384     1  0.0000000  1.6024720  3
   5380   5398   5385   5389     1  0.0000000  1.6038667  3
   5381   5380   5391   5396     1  0.0000000  0.6508444  3
   5381   5380   5398   5385     1  180.0000771  0.4184000  2
   5381   5380   5398   5385     1  0.0000000  1.6024720  3
   5381   5383   5384   5385     1  180.0000771  0.8368000  1
   5381   5383   5384   5385     1  180.0000771  1.0460000  2
   5381   5383   5384   5385     1  0.0000000  0.7531200  3
   5381   5383   5384   5403     1  0.0000000  0.6508444  3
   5383   5381   5380   5391     1  180.0000771  0.8368000  1
   5383   5381   5380   5391     1  180.0000771  1.0460000  2
   5383   5381   5380   5391     1  0.0000000  0.7531200  3
   5383   5381   5380   5398     1  0.0000000  0.6508444  3
   5383   5384   5385   5389     1  0.0000000  0.6508444  3
   5383   5384   5385   5398     1  0.0000000  0.6508444  3
   5384   5383   5381   5401     1  0.0000000  0.6508444  3
   5385   5384   5383   5390     1  0.0000000  0.6508444  3
   5385   5398   5380   5391     1  180.0000771  0.4184000  2
   5385   5398   5380   5391     1  0.0000000  1.6024720  3
   5389   5385   5384   5403     1  0.0000000  0.6508444  3
   5390   5383   5381   5401     1  0.0000000  4.9162000  2
   5390   5383   5381   5401     1  0.0000000  0.6024960  3
   5390   5383   5384   5403     1  0.0000000  0.6508444  3
   5391   5380   5381   5401     1  0.0000000  0.6508444  3
   5396   5391   5380   5398     1  0.0000000  4.9162000  2
   5396   5391   5380   5398     1  0.0000000  0.6024960  3
   5398   5380   5381   5401     1  0.0000000  4.9162000  2
   5398   5380   5381   5401     1  0.0000000  0.6024960  3
   5398   5385   5384   5403     1  0.0000000  0.6508444  3
   5404   5406   5408   5412     1  0.0000000  0.6508444  3
   5406   5408   5412   5413     1  180.0000771  2.0083200  2
   5406   5408   5412   5413     1  0.0000000  1.2552000  3
   5406   5408   5412   5414     1  180.0000771  2.0083200  2
   5406   5408   5412   5414     1  0.0000000  1.2552000  3
   5408   5412   5413   5424     1  180.0000771  2.0083200  2
   5408   5412   5413   5424     1  0.0000000  1.2552000  3
   5408   5412   5414   5416     1  180.0000771  2.0083200  2
   5408   5412   5414   5416     1  0.0000000  1.2552000  3
   5412   5413   5424   5427     1  0.0000000  0.6508444  3
   5412   5414   5416   5420     1  0.0000000  0.6508444  3
   5413   5424   5427   5428     1  180.0000771  0.0000000  2
   5413   5424   5427   5476     1  180.0000771  0.0000000  2
   5413   5412   5414   5416     1  180.0000771  2.0083200  2
   5413   5412   5414   5416     1  0.0000000  1.2552000  3
   5414   5416   5420   5421     1  180.0000771  0.0000000  2
   5414   5416   5420   5452     1  180.0000771  0.0000000  2
   5414   5412   5413   5424     1  180.0000771  2.0083200  2
   5414   5412   5413   5424     1  0.0000000  1.2552000  3
   5416   5420   5452   5433     1  180.0000771  6.0668000  2
   5416   5420   5452   5433     1  180.0000771  1.4644000  4
   5420   5452   5433   5434     1  0.0000000  1.2552000  3
   5420   5452   5433   5432     1  0.0000000  1.2552000  3
   5421   5420   5452   5433     1  180.0000771  6.0668000  2
   5421   5420   5452   5433     1  180.0000771  1.4644000  4
   5424   5427   5476   5457     1  180.0000771  6.0668000  2
   5424   5427   5476   5457     1  180.0000771  1.4644000  4
   5427   5476   5457   5458     1  0.0000000  1.2552000  3
   5427   5476   5457   5456     1  0.0000000  1.2552000  3
   5428   5427   5476   5457     1  180.0000771  6.0668000  2
   5428   5427   5476   5457     1  180.0000771  1.4644000  4
   5429   5430   5432   5433     1  180.0000771  0.8368000  1
   5429   5430   5432   5433     1  180.0000771  1.0460000  2
   5429   5430   5432   5433     1  0.0000000  0.7531200  3
   5429   5430   5432   5439     1  0.0000000  0.6508444  3
   5429   5447   5434   5438     1  0.0000000  1.6038667  3
   5429   5447   5434   5433     1  180.0000771  0.4184000  2
   5429   5447   5434   5433     1  0.0000000  1.6024720  3
   5430   5432   5433   5434     1  180.0000771  0.8368000  1
   5430   5432   5433   5434     1  180.0000771  1.0460000  2
   5430   5432   5433   5434     1  0.0000000  0.7531200  3
   5430   5432   5433   5452     1  0.0000000  0.6508444  3
   5430   5429   5440   5445     1  0.0000000  0.6508444  3
   5430   5429   5447   5434     1  180.0000771  0.4184000  2
   5430   5429   5447   5434     1  0.0000000  1.6024720  3
   5432   5433   5434   5438     1  0.0000000  0.6508444  3
   5432   5433   5434   5447     1  0.0000000  0.6508444  3
   5432   5430   5429   5440     1  180.0000771  0.8368000  1
   5432   5430   5429   5440     1  180.0000771  1.0460000  2
   5432   5430   5429   5440     1  0.0000000  0.7531200  3
   5432   5430   5429   5447     1  0.0000000  0.6508444  3
   5433   5432   5430   5450     1  0.0000000  0.6508444  3
   5434   5447   5429   5440     1  180.0000771  0.4184000  2
   5434   5447   5429   5440     1  0.0000000  1.6024720  3
   5434   5433   5432   5439     1  0.0000000  0.6508444  3
   5438   5434   5433   5452     1  0.0000000  0.6508444  3
   5439   5432   5433   5452     1  0.0000000  0.6508444  3
   5439   5432   5430   5450     1  0.0000000  4.9162000  2
   5439   5432   5430   5450     1  0.0000000  0.6024960  3
   5440   5429   5430   5450     1  0.0000000  0.6508444  3
   5445   5440   5429   5447     1  0.0000000  4.9162000  2
   5445   5440   5429   5447     1  0.0000000  0.6024960  3
   5447   5434   5433   5452     1  0.0000000  0.6508444  3
   5447   5429   5430   5450     1  0.0000000  4.9162000  2
   5447   5429   5430   5450     1  0.0000000  0.6024960  3
   5453   5454   5456   5457     1  180.0000771  0.8368000  1
   5453   5454   5456   5457     1  180.0000771  1.0460000  2
   5453   5454   5456   5457     1  0.0000000  0.7531200  3
   5453   5454   5456   5463     1  0.0000000  0.6508444  3
   5453   5471   5458   5462     1  0.0000000  1.6038667  3
   5453   5471   5458   5457     1  180.0000771  0.4184000  2
   5453   5471   5458   5457     1  0.0000000  1.6024720  3
   5454   5456   5457   5458     1  180.0000771  0.8368000  1
   5454   5456   5457   5458     1  180.0000771  1.0460000  2
   5454   5456   5457   5458     1  0.0000000  0.7531200  3
   5454   5456   5457   5476     1  0.0000000  0.6508444  3
   5454   5453   5464   5469     1  0.0000000  0.6508444  3
   5454   5453   5471   5458     1  180.0000771  0.4184000  2
   5454   5453   5471   5458     1  0.0000000  1.6024720  3
   5456   5457   5458   5462     1  0.0000000  0.6508444  3
   5456   5457   5458   5471     1  0.0000000  0.6508444  3
   5456   5454   5453   5464     1  180.0000771  0.8368000  1
   5456   5454   5453   5464     1  180.0000771  1.0460000  2
   5456   5454   5453   5464     1  0.0000000  0.7531200  3
   5456   5454   5453   5471     1  0.0000000  0.6508444  3
   5457   5456   5454   5474     1  0.0000000  0.6508444  3
   5458   5471   5453   5464     1  180.0000771  0.4184000  2
   5458   5471   5453   5464     1  0.0000000  1.6024720  3
   5458   5457   5456   5463     1  0.0000000  0.6508444  3
   5462   5458   5457   5476     1  0.0000000  0.6508444  3
   5463   5456   5457   5476     1  0.0000000  0.6508444  3
   5463   5456   5454   5474     1  0.0000000  4.9162000  2
   5463   5456   5454   5474     1  0.0000000  0.6024960  3
   5464   5453   5454   5474     1  0.0000000  0.6508444  3
   5469   5464   5453   5471     1  0.0000000  4.9162000  2
   5469   5464   5453   5471     1  0.0000000  0.6024960  3
   5471   5458   5457   5476     1  0.0000000  0.6508444  3
   5471   5453   5454   5474     1  0.0000000  4.9162000  2
   5471   5453   5454   5474     1  0.0000000  0.6024960  3
   5477   5479   5481   5485     1  0.0000000  0.6508444  3
   5479   5481   5485   5486     1  180.0000771  2.0083200  2
   5479   5481   5485   5486     1  0.0000000  1.2552000  3
   5479   5481   5485   5487     1  180.0000771  2.0083200  2
   5479   5481   5485   5487     1  0.0000000  1.2552000  3
   5481   5485   5486   5497     1  180.0000771  2.0083200  2
   5481   5485   5486   5497     1  0.0000000  1.2552000  3
   5481   5485   5487   5489     1  180.0000771  2.0083200  2
   5481   5485   5487   5489     1  0.0000000  1.2552000  3
   5485   5486   5497   5500     1  0.0000000  0.6508444  3
   5485   5487   5489   5493     1  0.0000000  0.6508444  3
   5486   5485   5487   5489     1  180.0000771  2.0083200  2
   5486   5485   5487   5489     1  0.0000000  1.2552000  3
   5486   5497   5500   5501     1  180.0000771  0.0000000  2
   5486   5497   5500   5549     1  180.0000771  0.0000000  2
   5487   5485   5486   5497     1  180.0000771  2.0083200  2
   5487   5485   5486   5497     1  0.0000000  1.2552000  3
   5487   5489   5493   5494     1  180.0000771  0.0000000  2
   5487   5489   5493   5525     1  180.0000771  0.0000000  2
   5489   5493   5525   5506     1  180.0000771  6.0668000  2
   5489   5493   5525   5506     1  180.0000771  1.4644000  4
   5493   5525   5506   5505     1  0.0000000  1.2552000  3
   5493   5525   5506   5507     1  0.0000000  1.2552000  3
   5494   5493   5525   5506     1  180.0000771  6.0668000  2
   5494   5493   5525   5506     1  180.0000771  1.4644000  4
   5497   5500   5549   5530     1  180.0000771  6.0668000  2
   5497   5500   5549   5530     1  180.0000771  1.4644000  4
   5500   5549   5530   5529     1  0.0000000  1.2552000  3
   5500   5549   5530   5531     1  0.0000000  1.2552000  3
   5501   5500   5549   5530     1  180.0000771  6.0668000  2
   5501   5500   5549   5530     1  180.0000771  1.4644000  4
   5502   5503   5505   5506     1  180.0000771  0.8368000  1
   5502   5503   5505   5506     1  180.0000771  1.0460000  2
   5502   5503   5505   5506     1  0.0000000  0.7531200  3
   5502   5503   5505   5512     1  0.0000000  0.6508444  3
   5502   5520   5507   5506     1  180.0000771  0.4184000  2
   5502   5520   5507   5506     1  0.0000000  1.6024720  3
   5502   5520   5507   5511     1  0.0000000  1.6038667  3
   5503   5502   5513   5518     1  0.0000000  0.6508444  3
   5503   5502   5520   5507     1  180.0000771  0.4184000  2
   5503   5502   5520   5507     1  0.0000000  1.6024720  3
   5503   5505   5506   5507     1  180.0000771  0.8368000  1
   5503   5505   5506   5507     1  180.0000771  1.0460000  2
   5503   5505   5506   5507     1  0.0000000  0.7531200  3
   5503   5505   5506   5525     1  0.0000000  0.6508444  3
   5505   5503   5502   5513     1  180.0000771  0.8368000  1
   5505   5503   5502   5513     1  180.0000771  1.0460000  2
   5505   5503   5502   5513     1  0.0000000  0.7531200  3
   5505   5503   5502   5520     1  0.0000000  0.6508444  3
   5505   5506   5507   5511     1  0.0000000  0.6508444  3
   5505   5506   5507   5520     1  0.0000000  0.6508444  3
   5506   5505   5503   5523     1  0.0000000  0.6508444  3
   5507   5506   5505   5512     1  0.0000000  0.6508444  3
   5507   5520   5502   5513     1  180.0000771  0.4184000  2
   5507   5520   5502   5513     1  0.0000000  1.6024720  3
   5511   5507   5506   5525     1  0.0000000  0.6508444  3
   5512   5505   5503   5523     1  0.0000000  4.9162000  2
   5512   5505   5503   5523     1  0.0000000  0.6024960  3
   5512   5505   5506   5525     1  0.0000000  0.6508444  3
   5513   5502   5503   5523     1  0.0000000  0.6508444  3
   5518   5513   5502   5520     1  0.0000000  4.9162000  2
   5518   5513   5502   5520     1  0.0000000  0.6024960  3
   5520   5502   5503   5523     1  0.0000000  4.9162000  2
   5520   5502   5503   5523     1  0.0000000  0.6024960  3
   5520   5507   5506   5525     1  0.0000000  0.6508444  3
   5526   5527   5529   5530     1  180.0000771  0.8368000  1
   5526   5527   5529   5530     1  180.0000771  1.0460000  2
   5526   5527   5529   5530     1  0.0000000  0.7531200  3
   5526   5527   5529   5536     1  0.0000000  0.6508444  3
   5526   5544   5531   5530     1  180.0000771  0.4184000  2
   5526   5544   5531   5530     1  0.0000000  1.6024720  3
   5526   5544   5531   5535     1  0.0000000  1.6038667  3
   5527   5526   5537   5542     1  0.0000000  0.6508444  3
   5527   5526   5544   5531     1  180.0000771  0.4184000  2
   5527   5526   5544   5531     1  0.0000000  1.6024720  3
   5527   5529   5530   5531     1  180.0000771  0.8368000  1
   5527   5529   5530   5531     1  180.0000771  1.0460000  2
   5527   5529   5530   5531     1  0.0000000  0.7531200  3
   5527   5529   5530   5549     1  0.0000000  0.6508444  3
   5529   5527   5526   5537     1  180.0000771  0.8368000  1
   5529   5527   5526   5537     1  180.0000771  1.0460000  2
   5529   5527   5526   5537     1  0.0000000  0.7531200  3
   5529   5527   5526   5544     1  0.0000000  0.6508444  3
   5529   5530   5531   5535     1  0.0000000  0.6508444  3
   5529   5530   5531   5544     1  0.0000000  0.6508444  3
   5530   5529   5527   5547     1  0.0000000  0.6508444  3
   5531   5530   5529   5536     1  0.0000000  0.6508444  3
   5531   5544   5526   5537     1  180.0000771  0.4184000  2
   5531   5544   5526   5537     1  0.0000000  1.6024720  3
   5535   5531   5530   5549     1  0.0000000  0.6508444  3
   5536   5529   5527   5547     1  0.0000000  4.9162000  2
   5536   5529   5527   5547     1  0.0000000  0.6024960  3
   5536   5529   5530   5549     1  0.0000000  0.6508444  3
   5537   5526   5527   5547     1  0.0000000  0.6508444  3
   5542   5537   5526   5544     1  0.0000000  4.9162000  2
   5542   5537   5526   5544     1  0.0000000  0.6024960  3
   5544   5526   5527   5547     1  0.0000000  4.9162000  2
   5544   5526   5527   5547     1  0.0000000  0.6024960  3
   5544   5531   5530   5549     1  0.0000000  0.6508444  3
   5550   5552   5554   5558     1  0.0000000  0.6508444  3
   5552   5554   5558   5559     1  180.0000771  2.0083200  2
   5552   5554   5558   5559     1  0.0000000  1.2552000  3
   5552   5554   5558   5560     1  180.0000771  2.0083200  2
   5552   5554   5558   5560     1  0.0000000  1.2552000  3
   5554   5558   5559   5570     1  180.0000771  2.0083200  2
   5554   5558   5559   5570     1  0.0000000  1.2552000  3
   5554   5558   5560   5562     1  180.0000771  2.0083200  2
   5554   5558   5560   5562     1  0.0000000  1.2552000  3
   5558   5559   5570   5573     1  0.0000000  0.6508444  3
   5558   5560   5562   5566     1  0.0000000  0.6508444  3
   5559   5570   5573   5574     1  180.0000771  0.0000000  2
   5559   5570   5573   5622     1  180.0000771  0.0000000  2
   5559   5558   5560   5562     1  180.0000771  2.0083200  2
   5559   5558   5560   5562     1  0.0000000  1.2552000  3
   5560   5562   5566   5567     1  180.0000771  0.0000000  2
   5560   5562   5566   5598     1  180.0000771  0.0000000  2
   5560   5558   5559   5570     1  180.0000771  2.0083200  2
   5560   5558   5559   5570     1  0.0000000  1.2552000  3
   5562   5566   5598   5579     1  180.0000771  6.0668000  2
   5562   5566   5598   5579     1  180.0000771  1.4644000  4
   5566   5598   5579   5580     1  0.0000000  1.2552000  3
   5566   5598   5579   5578     1  0.0000000  1.2552000  3
   5567   5566   5598   5579     1  180.0000771  6.0668000  2
   5567   5566   5598   5579     1  180.0000771  1.4644000  4
   5570   5573   5622   5603     1  180.0000771  6.0668000  2
   5570   5573   5622   5603     1  180.0000771  1.4644000  4
   5573   5622   5603   5604     1  0.0000000  1.2552000  3
   5573   5622   5603   5602     1  0.0000000  1.2552000  3
   5574   5573   5622   5603     1  180.0000771  6.0668000  2
   5574   5573   5622   5603     1  180.0000771  1.4644000  4
   5575   5576   5578   5579     1  180.0000771  0.8368000  1
   5575   5576   5578   5579     1  180.0000771  1.0460000  2
   5575   5576   5578   5579     1  0.0000000  0.7531200  3
   5575   5576   5578   5585     1  0.0000000  0.6508444  3
   5575   5593   5580   5584     1  0.0000000  1.6038667  3
   5575   5593   5580   5579     1  180.0000771  0.4184000  2
   5575   5593   5580   5579     1  0.0000000  1.6024720  3
   5576   5578   5579   5580     1  180.0000771  0.8368000  1
   5576   5578   5579   5580     1  180.0000771  1.0460000  2
   5576   5578   5579   5580     1  0.0000000  0.7531200  3
   5576   5578   5579   5598     1  0.0000000  0.6508444  3
   5576   5575   5586   5591     1  0.0000000  0.6508444  3
   5576   5575   5593   5580     1  180.0000771  0.4184000  2
   5576   5575   5593   5580     1  0.0000000  1.6024720  3
   5578   5579   5580   5584     1  0.0000000  0.6508444  3
   5578   5579   5580   5593     1  0.0000000  0.6508444  3
   5578   5576   5575   5586     1  180.0000771  0.8368000  1
   5578   5576   5575   5586     1  180.0000771  1.0460000  2
   5578   5576   5575   5586     1  0.0000000  0.7531200  3
   5578   5576   5575   5593     1  0.0000000  0.6508444  3
   5579   5578   5576   5596     1  0.0000000  0.6508444  3
   5580   5593   5575   5586     1  180.0000771  0.4184000  2
   5580   5593   5575   5586     1  0.0000000  1.6024720  3
   5580   5579   5578   5585     1  0.0000000  0.6508444  3
   5584   5580   5579   5598     1  0.0000000  0.6508444  3
   5585   5578   5579   5598     1  0.0000000  0.6508444  3
   5585   5578   5576   5596     1  0.0000000  4.9162000  2
   5585   5578   5576   5596     1  0.0000000  0.6024960  3
   5586   5575   5576   5596     1  0.0000000  0.6508444  3
   5591   5586   5575   5593     1  0.0000000  4.9162000  2
   5591   5586   5575   5593     1  0.0000000  0.6024960  3
   5593   5580   5579   5598     1  0.0000000  0.6508444  3
   5593   5575   5576   5596     1  0.0000000  4.9162000  2
   5593   5575   5576   5596     1  0.0000000  0.6024960  3
   5599   5600   5602   5603     1  180.0000771  0.8368000  1
   5599   5600   5602   5603     1  180.0000771  1.0460000  2
   5599   5600   5602   5603     1  0.0000000  0.7531200  3
   5599   5600   5602   5609     1  0.0000000  0.6508444  3
   5599   5617   5604   5608     1  0.0000000  1.6038667  3
   5599   5617   5604   5603     1  180.0000771  0.4184000  2
   5599   5617   5604   5603     1  0.0000000  1.6024720  3
   5600   5602   5603   5604     1  180.0000771  0.8368000  1
   5600   5602   5603   5604     1  180.0000771  1.0460000  2
   5600   5602   5603   5604     1  0.0000000  0.7531200  3
   5600   5602   5603   5622     1  0.0000000  0.6508444  3
   5600   5599   5610   5615     1  0.0000000  0.6508444  3
   5600   5599   5617   5604     1  180.0000771  0.4184000  2
   5600   5599   5617   5604     1  0.0000000  1.6024720  3
   5602   5603   5604   5608     1  0.0000000  0.6508444  3
   5602   5603   5604   5617     1  0.0000000  0.6508444  3
   5602   5600   5599   5610     1  180.0000771  0.8368000  1
   5602   5600   5599   5610     1  180.0000771  1.0460000  2
   5602   5600   5599   5610     1  0.0000000  0.7531200  3
   5602   5600   5599   5617     1  0.0000000  0.6508444  3
   5603   5602   5600   5620     1  0.0000000  0.6508444  3
   5604   5617   5599   5610     1  180.0000771  0.4184000  2
   5604   5617   5599   5610     1  0.0000000  1.6024720  3
   5604   5603   5602   5609     1  0.0000000  0.6508444  3
   5608   5604   5603   5622     1  0.0000000  0.6508444  3
   5609   5602   5603   5622     1  0.0000000  0.6508444  3
   5609   5602   5600   5620     1  0.0000000  4.9162000  2
   5609   5602   5600   5620     1  0.0000000  0.6024960  3
   5610   5599   5600   5620     1  0.0000000  0.6508444  3
   5615   5610   5599   5617     1  0.0000000  4.9162000  2
   5615   5610   5599   5617     1  0.0000000  0.6024960  3
   5617   5604   5603   5622     1  0.0000000  0.6508444  3
   5617   5599   5600   5620     1  0.0000000  4.9162000  2
   5617   5599   5600   5620     1  0.0000000  0.6024960  3
   5623   5625   5627   5631     1  0.0000000  0.6508444  3
   5625   5627   5631   5632     1  180.0000771  2.0083200  2
   5625   5627   5631   5632     1  0.0000000  1.2552000  3
   5625   5627   5631   5633     1  180.0000771  2.0083200  2
   5625   5627   5631   5633     1  0.0000000  1.2552000  3
   5627   5631   5632   5643     1  180.0000771  2.0083200  2
   5627   5631   5632   5643     1  0.0000000  1.2552000  3
   5627   5631   5633   5635     1  180.0000771  2.0083200  2
   5627   5631   5633   5635     1  0.0000000  1.2552000  3
   5631   5632   5643   5646     1  0.0000000  0.6508444  3
   5631   5633   5635   5639     1  0.0000000  0.6508444  3
   5632   5631   5633   5635     1  180.0000771  2.0083200  2
   5632   5631   5633   5635     1  0.0000000  1.2552000  3
   5632   5643   5646   5647     1  180.0000771  0.0000000  2
   5632   5643   5646   5695     1  180.0000771  0.0000000  2
   5633   5631   5632   5643     1  180.0000771  2.0083200  2
   5633   5631   5632   5643     1  0.0000000  1.2552000  3
   5633   5635   5639   5640     1  180.0000771  0.0000000  2
   5633   5635   5639   5671     1  180.0000771  0.0000000  2
   5635   5639   5671   5652     1  180.0000771  6.0668000  2
   5635   5639   5671   5652     1  180.0000771  1.4644000  4
   5639   5671   5652   5651     1  0.0000000  1.2552000  3
   5639   5671   5652   5653     1  0.0000000  1.2552000  3
   5640   5639   5671   5652     1  180.0000771  6.0668000  2
   5640   5639   5671   5652     1  180.0000771  1.4644000  4
   5643   5646   5695   5676     1  180.0000771  6.0668000  2
   5643   5646   5695   5676     1  180.0000771  1.4644000  4
   5646   5695   5676   5675     1  0.0000000  1.2552000  3
   5646   5695   5676   5677     1  0.0000000  1.2552000  3
   5647   5646   5695   5676     1  180.0000771  6.0668000  2
   5647   5646   5695   5676     1  180.0000771  1.4644000  4
   5648   5649   5651   5652     1  180.0000771  0.8368000  1
   5648   5649   5651   5652     1  180.0000771  1.0460000  2
   5648   5649   5651   5652     1  0.0000000  0.7531200  3
   5648   5649   5651   5658     1  0.0000000  0.6508444  3
   5648   5666   5653   5652     1  180.0000771  0.4184000  2
   5648   5666   5653   5652     1  0.0000000  1.6024720  3
   5648   5666   5653   5657     1  0.0000000  1.6038667  3
   5649   5648   5659   5664     1  0.0000000  0.6508444  3
   5649   5648   5666   5653     1  180.0000771  0.4184000  2
   5649   5648   5666   5653     1  0.0000000  1.6024720  3
   5649   5651   5652   5653     1  180.0000771  0.8368000  1
   5649   5651   5652   5653     1  180.0000771  1.0460000  2
   5649   5651   5652   5653     1  0.0000000  0.7531200  3
   5649   5651   5652   5671     1  0.0000000  0.6508444  3
   5651   5649   5648   5659     1  180.0000771  0.8368000  1
   5651   5649   5648   5659     1  180.0000771  1.0460000  2
   5651   5649   5648   5659     1  0.0000000  0.7531200  3
   5651   5649   5648   5666     1  0.0000000  0.6508444  3
   5651   5652   5653   5657     1  0.0000000  0.6508444  3
   5651   5652   5653   5666     1  0.0000000  0.6508444  3
   5652   5651   5649   5669     1  0.0000000  0.6508444  3
   5653   5652   5651   5658     1  0.0000000  0.6508444  3
   5653   5666   5648   5659     1  180.0000771  0.4184000  2
   5653   5666   5648   5659     1  0.0000000  1.6024720  3
   5657   5653   5652   5671     1  0.0000000  0.6508444  3
   5658   5651   5649   5669     1  0.0000000  4.9162000  2
   5658   5651   5649   5669     1  0.0000000  0.6024960  3
   5658   5651   5652   5671     1  0.0000000  0.6508444  3
   5659   5648   5649   5669     1  0.0000000  0.6508444  3
   5664   5659   5648   5666     1  0.0000000  4.9162000  2
   5664   5659   5648   5666     1  0.0000000  0.6024960  3
   5666   5648   5649   5669     1  0.0000000  4.9162000  2
   5666   5648   5649   5669     1  0.0000000  0.6024960  3
   5666   5653   5652   5671     1  0.0000000  0.6508444  3
   5672   5673   5675   5676     1  180.0000771  0.8368000  1
   5672   5673   5675   5676     1  180.0000771  1.0460000  2
   5672   5673   5675   5676     1  0.0000000  0.7531200  3
   5672   5673   5675   5682     1  0.0000000  0.6508444  3
   5672   5690   5677   5676     1  180.0000771  0.4184000  2
   5672   5690   5677   5676     1  0.0000000  1.6024720  3
   5672   5690   5677   5681     1  0.0000000  1.6038667  3
   5673   5672   5683   5688     1  0.0000000  0.6508444  3
   5673   5672   5690   5677     1  180.0000771  0.4184000  2
   5673   5672   5690   5677     1  0.0000000  1.6024720  3
   5673   5675   5676   5677     1  180.0000771  0.8368000  1
   5673   5675   5676   5677     1  180.0000771  1.0460000  2
   5673   5675   5676   5677     1  0.0000000  0.7531200  3
   5673   5675   5676   5695     1  0.0000000  0.6508444  3
   5675   5673   5672   5683     1  180.0000771  0.8368000  1
   5675   5673   5672   5683     1  180.0000771  1.0460000  2
   5675   5673   5672   5683     1  0.0000000  0.7531200  3
   5675   5673   5672   5690     1  0.0000000  0.6508444  3
   5675   5676   5677   5681     1  0.0000000  0.6508444  3
   5675   5676   5677   5690     1  0.0000000  0.6508444  3
   5676   5675   5673   5693     1  0.0000000  0.6508444  3
   5677   5676   5675   5682     1  0.0000000  0.6508444  3
   5677   5690   5672   5683     1  180.0000771  0.4184000  2
   5677   5690   5672   5683     1  0.0000000  1.6024720  3
   5681   5677   5676   5695     1  0.0000000  0.6508444  3
   5682   5675   5673   5693     1  0.0000000  4.9162000  2
   5682   5675   5673   5693     1  0.0000000  0.6024960  3
   5682   5675   5676   5695     1  0.0000000  0.6508444  3
   5683   5672   5673   5693     1  0.0000000  0.6508444  3
   5688   5683   5672   5690     1  0.0000000  4.9162000  2
   5688   5683   5672   5690     1  0.0000000  0.6024960  3
   5690   5672   5673   5693     1  0.0000000  4.9162000  2
   5690   5672   5673   5693     1  0.0000000  0.6024960  3
   5690   5677   5676   5695     1  0.0000000  0.6508444  3
   5696   5698   5700   5704     1  0.0000000  0.6508444  3
   5698   5700   5704   5705     1  180.0000771  2.0083200  2
   5698   5700   5704   5705     1  0.0000000  1.2552000  3
   5698   5700   5704   5706     1  180.0000771  2.0083200  2
   5698   5700   5704   5706     1  0.0000000  1.2552000  3
   5700   5704   5705   5716     1  180.0000771  2.0083200  2
   5700   5704   5705   5716     1  0.0000000  1.2552000  3
   5700   5704   5706   5708     1  180.0000771  2.0083200  2
   5700   5704   5706   5708     1  0.0000000  1.2552000  3
   5704   5705   5716   5719     1  0.0000000  0.6508444  3
   5704   5706   5708   5712     1  0.0000000  0.6508444  3
   5705   5716   5719   5720     1  180.0000771  0.0000000  2
   5705   5716   5719   5768     1  180.0000771  0.0000000  2
   5705   5704   5706   5708     1  180.0000771  2.0083200  2
   5705   5704   5706   5708     1  0.0000000  1.2552000  3
   5706   5708   5712   5713     1  180.0000771  0.0000000  2
   5706   5708   5712   5744     1  180.0000771  0.0000000  2
   5706   5704   5705   5716     1  180.0000771  2.0083200  2
   5706   5704   5705   5716     1  0.0000000  1.2552000  3
   5708   5712   5744   5725     1  180.0000771  6.0668000  2
   5708   5712   5744   5725     1  180.0000771  1.4644000  4
   5712   5744   5725   5726     1  0.0000000  1.2552000  3
   5712   5744   5725   5724     1  0.0000000  1.2552000  3
   5713   5712   5744   5725     1  180.0000771  6.0668000  2
   5713   5712   5744   5725     1  180.0000771  1.4644000  4
   5716   5719   5768   5749     1  180.0000771  6.0668000  2
   5716   5719   5768   5749     1  180.0000771  1.4644000  4
   5719   5768   5749   5750     1  0.0000000  1.2552000  3
   5719   5768   5749   5748     1  0.0000000  1.2552000  3
   5720   5719   5768   5749     1  180.0000771  6.0668000  2
   5720   5719   5768   5749     1  180.0000771  1.4644000  4
   5721   5722   5724   5725     1  180.0000771  0.8368000  1
   5721   5722   5724   5725     1  180.0000771  1.0460000  2
   5721   5722   5724   5725     1  0.0000000  0.7531200  3
   5721   5722   5724   5731     1  0.0000000  0.6508444  3
   5721   5739   5726   5730     1  0.0000000  1.6038667  3
   5721   5739   5726   5725     1  180.0000771  0.4184000  2
   5721   5739   5726   5725     1  0.0000000  1.6024720  3
   5722   5724   5725   5726     1  180.0000771  0.8368000  1
   5722   5724   5725   5726     1  180.0000771  1.0460000  2
   5722   5724   5725   5726     1  0.0000000  0.7531200  3
   5722   5724   5725   5744     1  0.0000000  0.6508444  3
   5722   5721   5732   5737     1  0.0000000  0.6508444  3
   5722   5721   5739   5726     1  180.0000771  0.4184000  2
   5722   5721   5739   5726     1  0.0000000  1.6024720  3
   5724   5725   5726   5730     1  0.0000000  0.6508444  3
   5724   5725   5726   5739     1  0.0000000  0.6508444  3
   5724   5722   5721   5732     1  180.0000771  0.8368000  1
   5724   5722   5721   5732     1  180.0000771  1.0460000  2
   5724   5722   5721   5732     1  0.0000000  0.7531200  3
   5724   5722   5721   5739     1  0.0000000  0.6508444  3
   5725   5724   5722   5742     1  0.0000000  0.6508444  3
   5726   5739   5721   5732     1  180.0000771  0.4184000  2
   5726   5739   5721   5732     1  0.0000000  1.6024720  3
   5726   5725   5724   5731     1  0.0000000  0.6508444  3
   5730   5726   5725   5744     1  0.0000000  0.6508444  3
   5731   5724   5725   5744     1  0.0000000  0.6508444  3
   5731   5724   5722   5742     1  0.0000000  4.9162000  2
   5731   5724   5722   5742     1  0.0000000  0.6024960  3
   5732   5721   5722   5742     1  0.0000000  0.6508444  3
   5737   5732   5721   5739     1  0.0000000  4.9162000  2
   5737   5732   5721   5739     1  0.0000000  0.6024960  3
   5739   5726   5725   5744     1  0.0000000  0.6508444  3
   5739   5721   5722   5742     1  0.0000000  4.9162000  2
   5739   5721   5722   5742     1  0.0000000  0.6024960  3
   5745   5746   5748   5749     1  180.0000771  0.8368000  1
   5745   5746   5748   5749     1  180.0000771  1.0460000  2
   5745   5746   5748   5749     1  0.0000000  0.7531200  3
   5745   5746   5748   5755     1  0.0000000  0.6508444  3
   5745   5763   5750   5754     1  0.0000000  1.6038667  3
   5745   5763   5750   5749     1  180.0000771  0.4184000  2
   5745   5763   5750   5749     1  0.0000000  1.6024720  3
   5746   5748   5749   5750     1  180.0000771  0.8368000  1
   5746   5748   5749   5750     1  180.0000771  1.0460000  2
   5746   5748   5749   5750     1  0.0000000  0.7531200  3
   5746   5748   5749   5768     1  0.0000000  0.6508444  3
   5746   5745   5756   5761     1  0.0000000  0.6508444  3
   5746   5745   5763   5750     1  180.0000771  0.4184000  2
   5746   5745   5763   5750     1  0.0000000  1.6024720  3
   5748   5749   5750   5754     1  0.0000000  0.6508444  3
   5748   5749   5750   5763     1  0.0000000  0.6508444  3
   5748   5746   5745   5756     1  180.0000771  0.8368000  1
   5748   5746   5745   5756     1  180.0000771  1.0460000  2
   5748   5746   5745   5756     1  0.0000000  0.7531200  3
   5748   5746   5745   5763     1  0.0000000  0.6508444  3
   5749   5748   5746   5766     1  0.0000000  0.6508444  3
   5750   5763   5745   5756     1  180.0000771  0.4184000  2
   5750   5763   5745   5756     1  0.0000000  1.6024720  3
   5750   5749   5748   5755     1  0.0000000  0.6508444  3
   5754   5750   5749   5768     1  0.0000000  0.6508444  3
   5755   5748   5749   5768     1  0.0000000  0.6508444  3
   5755   5748   5746   5766     1  0.0000000  4.9162000  2
   5755   5748   5746   5766     1  0.0000000  0.6024960  3
   5756   5745   5746   5766     1  0.0000000  0.6508444  3
   5761   5756   5745   5763     1  0.0000000  4.9162000  2
   5761   5756   5745   5763     1  0.0000000  0.6024960  3
   5763   5750   5749   5768     1  0.0000000  0.6508444  3
   5763   5745   5746   5766     1  0.0000000  4.9162000  2
   5763   5745   5746   5766     1  0.0000000  0.6024960  3
   5769   5771   5773   5777     1  0.0000000  0.6508444  3
   5771   5773   5777   5778     1  180.0000771  2.0083200  2
   5771   5773   5777   5778     1  0.0000000  1.2552000  3
   5771   5773   5777   5779     1  180.0000771  2.0083200  2
   5771   5773   5777   5779     1  0.0000000  1.2552000  3
   5773   5777   5778   5789     1  180.0000771  2.0083200  2
   5773   5777   5778   5789     1  0.0000000  1.2552000  3
   5773   5777   5779   5781     1  180.0000771  2.0083200  2
   5773   5777   5779   5781     1  0.0000000  1.2552000  3
   5777   5778   5789   5792     1  0.0000000  0.6508444  3
   5777   5779   5781   5785     1  0.0000000  0.6508444  3
   5778   5777   5779   5781     1  180.0000771  2.0083200  2
   5778   5777   5779   5781     1  0.0000000  1.2552000  3
   5778   5789   5792   5793     1  180.0000771  0.0000000  2
   5778   5789   5792   5841     1  180.0000771  0.0000000  2
   5779   5777   5778   5789     1  180.0000771  2.0083200  2
   5779   5777   5778   5789     1  0.0000000  1.2552000  3
   5779   5781   5785   5786     1  180.0000771  0.0000000  2
   5779   5781   5785   5817     1  180.0000771  0.0000000  2
   5781   5785   5817   5798     1  180.0000771  6.0668000  2
   5781   5785   5817   5798     1  180.0000771  1.4644000  4
   5785   5817   5798   5797     1  0.0000000  1.2552000  3
   5785   5817   5798   5799     1  0.0000000  1.2552000  3
   5786   5785   5817   5798     1  180.0000771  6.0668000  2
   5786   5785   5817   5798     1  180.0000771  1.4644000  4
   5789   5792   5841   5822     1  180.0000771  6.0668000  2
   5789   5792   5841   5822     1  180.0000771  1.4644000  4
   5792   5841   5822   5821     1  0.0000000  1.2552000  3
   5792   5841   5822   5823     1  0.0000000  1.2552000  3
   5793   5792   5841   5822     1  180.0000771  6.0668000  2
   5793   5792   5841   5822     1  180.0000771  1.4644000  4
   5794   5795   5797   5798     1  180.0000771  0.8368000  1
   5794   5795   5797   5798     1  180.0000771  1.0460000  2
   5794   5795   5797   5798     1  0.0000000  0.7531200  3
   5794   5795   5797   5804     1  0.0000000  0.6508444  3
   5794   5812   5799   5798     1  180.0000771  0.4184000  2
   5794   5812   5799   5798     1  0.0000000  1.6024720  3
   5794   5812   5799   5803     1  0.0000000  1.6038667  3
   5795   5794   5805   5810     1  0.0000000  0.6508444  3
   5795   5794   5812   5799     1  180.0000771  0.4184000  2
   5795   5794   5812   5799     1  0.0000000  1.6024720  3
   5795   5797   5798   5799     1  180.0000771  0.8368000  1
   5795   5797   5798   5799     1  180.0000771  1.0460000  2
   5795   5797   5798   5799     1  0.0000000  0.7531200  3
   5795   5797   5798   5817     1  0.0000000  0.6508444  3
   5797   5795   5794   5805     1  180.0000771  0.8368000  1
   5797   5795   5794   5805     1  180.0000771  1.0460000  2
   5797   5795   5794   5805     1  0.0000000  0.7531200  3
   5797   5795   5794   5812     1  0.0000000  0.6508444  3
   5797   5798   5799   5803     1  0.0000000  0.6508444  3
   5797   5798   5799   5812     1  0.0000000  0.6508444  3
   5798   5797   5795   5815     1  0.0000000  0.6508444  3
   5799   5798   5797   5804     1  0.0000000  0.6508444  3
   5799   5812   5794   5805     1  180.0000771  0.4184000  2
   5799   5812   5794   5805     1  0.0000000  1.6024720  3
   5803   5799   5798   5817     1  0.0000000  0.6508444  3
   5804   5797   5795   5815     1  0.0000000  4.9162000  2
   5804   5797   5795   5815     1  0.0000000  0.6024960  3
   5804   5797   5798   5817     1  0.0000000  0.6508444  3
   5805   5794   5795   5815     1  0.0000000  0.6508444  3
   5810   5805   5794   5812     1  0.0000000  4.9162000  2
   5810   5805   5794   5812     1  0.0000000  0.6024960  3
   5812   5794   5795   5815     1  0.0000000  4.9162000  2
   5812   5794   5795   5815     1  0.0000000  0.6024960  3
   5812   5799   5798   5817     1  0.0000000  0.6508444  3
   5818   5819   5821   5822     1  180.0000771  0.8368000  1
   5818   5819   5821   5822     1  180.0000771  1.0460000  2
   5818   5819   5821   5822     1  0.0000000  0.7531200  3
   5818   5819   5821   5828     1  0.0000000  0.6508444  3
   5818   5836   5823   5822     1  180.0000771  0.4184000  2
   5818   5836   5823   5822     1  0.0000000  1.6024720  3
   5818   5836   5823   5827     1  0.0000000  1.6038667  3
   5819   5818   5829   5834     1  0.0000000  0.6508444  3
   5819   5818   5836   5823     1  180.0000771  0.4184000  2
   5819   5818   5836   5823     1  0.0000000  1.6024720  3
   5819   5821   5822   5823     1  180.0000771  0.8368000  1
   5819   5821   5822   5823     1  180.0000771  1.0460000  2
   5819   5821   5822   5823     1  0.0000000  0.7531200  3
   5819   5821   5822   5841     1  0.0000000  0.6508444  3
   5821   5819   5818   5829     1  180.0000771  0.8368000  1
   5821   5819   5818   5829     1  180.0000771  1.0460000  2
   5821   5819   5818   5829     1  0.0000000  0.7531200  3
   5821   5819   5818   5836     1  0.0000000  0.6508444  3
   5821   5822   5823   5827     1  0.0000000  0.6508444  3
   5821   5822   5823   5836     1  0.0000000  0.6508444  3
   5822   5821   5819   5839     1  0.0000000  0.6508444  3
   5823   5822   5821   5828     1  0.0000000  0.6508444  3
   5823   5836   5818   5829     1  180.0000771  0.4184000  2
   5823   5836   5818   5829     1  0.0000000  1.6024720  3
   5827   5823   5822   5841     1  0.0000000  0.6508444  3
   5828   5821   5819   5839     1  0.0000000  4.9162000  2
   5828   5821   5819   5839     1  0.0000000  0.6024960  3
   5828   5821   5822   5841     1  0.0000000  0.6508444  3
   5829   5818   5819   5839     1  0.0000000  0.6508444  3
   5834   5829   5818   5836     1  0.0000000  4.9162000  2
   5834   5829   5818   5836     1  0.0000000  0.6024960  3
   5836   5818   5819   5839     1  0.0000000  4.9162000  2
   5836   5818   5819   5839     1  0.0000000  0.6024960  3
   5836   5823   5822   5841     1  0.0000000  0.6508444  3
   5842   5844   5846   5850     1  0.0000000  0.6508444  3
   5844   5846   5850   5851     1  180.0000771  2.0083200  2
   5844   5846   5850   5851     1  0.0000000  1.2552000  3
   5844   5846   5850   5852     1  180.0000771  2.0083200  2
   5844   5846   5850   5852     1  0.0000000  1.2552000  3
   5846   5850   5851   5862     1  180.0000771  2.0083200  2
   5846   5850   5851   5862     1  0.0000000  1.2552000  3
   5846   5850   5852   5854     1  180.0000771  2.0083200  2
   5846   5850   5852   5854     1  0.0000000  1.2552000  3
   5850   5851   5862   5865     1  0.0000000  0.6508444  3
   5850   5852   5854   5858     1  0.0000000  0.6508444  3
   5851   5862   5865   5866     1  180.0000771  0.0000000  2
   5851   5862   5865   5914     1  180.0000771  0.0000000  2
   5851   5850   5852   5854     1  180.0000771  2.0083200  2
   5851   5850   5852   5854     1  0.0000000  1.2552000  3
   5852   5854   5858   5859     1  180.0000771  0.0000000  2
   5852   5854   5858   5890     1  180.0000771  0.0000000  2
   5852   5850   5851   5862     1  180.0000771  2.0083200  2
   5852   5850   5851   5862     1  0.0000000  1.2552000  3
   5854   5858   5890   5871     1  180.0000771  6.0668000  2
   5854   5858   5890   5871     1  180.0000771  1.4644000  4
   5858   5890   5871   5872     1  0.0000000  1.2552000  3
   5858   5890   5871   5870     1  0.0000000  1.2552000  3
   5859   5858   5890   5871     1  180.0000771  6.0668000  2
   5859   5858   5890   5871     1  180.0000771  1.4644000  4
   5862   5865   5914   5895     1  180.0000771  6.0668000  2
   5862   5865   5914   5895     1  180.0000771  1.4644000  4
   5865   5914   5895   5896     1  0.0000000  1.2552000  3
   5865   5914   5895   5894     1  0.0000000  1.2552000  3
   5866   5865   5914   5895     1  180.0000771  6.0668000  2
   5866   5865   5914   5895     1  180.0000771  1.4644000  4
   5867   5868   5870   5871     1  180.0000771  0.8368000  1
   5867   5868   5870   5871     1  180.0000771  1.0460000  2
   5867   5868   5870   5871     1  0.0000000  0.7531200  3
   5867   5868   5870   5877     1  0.0000000  0.6508444  3
   5867   5885   5872   5876     1  0.0000000  1.6038667  3
   5867   5885   5872   5871     1  180.0000771  0.4184000  2
   5867   5885   5872   5871     1  0.0000000  1.6024720  3
   5868   5870   5871   5872     1  180.0000771  0.8368000  1
   5868   5870   5871   5872     1  180.0000771  1.0460000  2
   5868   5870   5871   5872     1  0.0000000  0.7531200  3
   5868   5870   5871   5890     1  0.0000000  0.6508444  3
   5868   5867   5878   5883     1  0.0000000  0.6508444  3
   5868   5867   5885   5872     1  180.0000771  0.4184000  2
   5868   5867   5885   5872     1  0.0000000  1.6024720  3
   5870   5871   5872   5876     1  0.0000000  0.6508444  3
   5870   5871   5872   5885     1  0.0000000  0.6508444  3
   5870   5868   5867   5878     1  180.0000771  0.8368000  1
   5870   5868   5867   5878     1  180.0000771  1.0460000  2
   5870   5868   5867   5878     1  0.0000000  0.7531200  3
   5870   5868   5867   5885     1  0.0000000  0.6508444  3
   5871   5870   5868   5888     1  0.0000000  0.6508444  3
   5872   5885   5867   5878     1  180.0000771  0.4184000  2
   5872   5885   5867   5878     1  0.0000000  1.6024720  3
   5872   5871   5870   5877     1  0.0000000  0.6508444  3
   5876   5872   5871   5890     1  0.0000000  0.6508444  3
   5877   5870   5871   5890     1  0.0000000  0.6508444  3
   5877   5870   5868   5888     1  0.0000000  4.9162000  2
   5877   5870   5868   5888     1  0.0000000  0.6024960  3
   5878   5867   5868   5888     1  0.0000000  0.6508444  3
   5883   5878   5867   5885     1  0.0000000  4.9162000  2
   5883   5878   5867   5885     1  0.0000000  0.6024960  3
   5885   5872   5871   5890     1  0.0000000  0.6508444  3
   5885   5867   5868   5888     1  0.0000000  4.9162000  2
   5885   5867   5868   5888     1  0.0000000  0.6024960  3
   5891   5892   5894   5895     1  180.0000771  0.8368000  1
   5891   5892   5894   5895     1  180.0000771  1.0460000  2
   5891   5892   5894   5895     1  0.0000000  0.7531200  3
   5891   5892   5894   5901     1  0.0000000  0.6508444  3
   5891   5909   5896   5900     1  0.0000000  1.6038667  3
   5891   5909   5896   5895     1  180.0000771  0.4184000  2
   5891   5909   5896   5895     1  0.0000000  1.6024720  3
   5892   5894   5895   5896     1  180.0000771  0.8368000  1
   5892   5894   5895   5896     1  180.0000771  1.0460000  2
   5892   5894   5895   5896     1  0.0000000  0.7531200  3
   5892   5894   5895   5914     1  0.0000000  0.6508444  3
   5892   5891   5902   5907     1  0.0000000  0.6508444  3
   5892   5891   5909   5896     1  180.0000771  0.4184000  2
   5892   5891   5909   5896     1  0.0000000  1.6024720  3
   5894   5895   5896   5900     1  0.0000000  0.6508444  3
   5894   5895   5896   5909     1  0.0000000  0.6508444  3
   5894   5892   5891   5902     1  180.0000771  0.8368000  1
   5894   5892   5891   5902     1  180.0000771  1.0460000  2
   5894   5892   5891   5902     1  0.0000000  0.7531200  3
   5894   5892   5891   5909     1  0.0000000  0.6508444  3
   5895   5894   5892   5912     1  0.0000000  0.6508444  3
   5896   5909   5891   5902     1  180.0000771  0.4184000  2
   5896   5909   5891   5902     1  0.0000000  1.6024720  3
   5896   5895   5894   5901     1  0.0000000  0.6508444  3
   5900   5896   5895   5914     1  0.0000000  0.6508444  3
   5901   5894   5895   5914     1  0.0000000  0.6508444  3
   5901   5894   5892   5912     1  0.0000000  4.9162000  2
   5901   5894   5892   5912     1  0.0000000  0.6024960  3
   5902   5891   5892   5912     1  0.0000000  0.6508444  3
   5907   5902   5891   5909     1  0.0000000  4.9162000  2
   5907   5902   5891   5909     1  0.0000000  0.6024960  3
   5909   5896   5895   5914     1  0.0000000  0.6508444  3
   5909   5891   5892   5912     1  0.0000000  4.9162000  2
   5909   5891   5892   5912     1  0.0000000  0.6024960  3
   5915   5917   5919   5923     1  0.0000000  0.6508444  3
   5917   5919   5923   5924     1  180.0000771  2.0083200  2
   5917   5919   5923   5924     1  0.0000000  1.2552000  3
   5917   5919   5923   5925     1  180.0000771  2.0083200  2
   5917   5919   5923   5925     1  0.0000000  1.2552000  3
   5919   5923   5924   5935     1  180.0000771  2.0083200  2
   5919   5923   5924   5935     1  0.0000000  1.2552000  3
   5919   5923   5925   5927     1  180.0000771  2.0083200  2
   5919   5923   5925   5927     1  0.0000000  1.2552000  3
   5923   5924   5935   5938     1  0.0000000  0.6508444  3
   5923   5925   5927   5931     1  0.0000000  0.6508444  3
   5924   5923   5925   5927     1  180.0000771  2.0083200  2
   5924   5923   5925   5927     1  0.0000000  1.2552000  3
   5924   5935   5938   5939     1  180.0000771  0.0000000  2
   5924   5935   5938   5987     1  180.0000771  0.0000000  2
   5925   5923   5924   5935     1  180.0000771  2.0083200  2
   5925   5923   5924   5935     1  0.0000000  1.2552000  3
   5925   5927   5931   5932     1  180.0000771  0.0000000  2
   5925   5927   5931   5963     1  180.0000771  0.0000000  2
   5927   5931   5963   5944     1  180.0000771  6.0668000  2
   5927   5931   5963   5944     1  180.0000771  1.4644000  4
   5931   5963   5944   5943     1  0.0000000  1.2552000  3
   5931   5963   5944   5945     1  0.0000000  1.2552000  3
   5932   5931   5963   5944     1  180.0000771  6.0668000  2
   5932   5931   5963   5944     1  180.0000771  1.4644000  4
   5935   5938   5987   5968     1  180.0000771  6.0668000  2
   5935   5938   5987   5968     1  180.0000771  1.4644000  4
   5938   5987   5968   5967     1  0.0000000  1.2552000  3
   5938   5987   5968   5969     1  0.0000000  1.2552000  3
   5939   5938   5987   5968     1  180.0000771  6.0668000  2
   5939   5938   5987   5968     1  180.0000771  1.4644000  4
   5940   5941   5943   5944     1  180.0000771  0.8368000  1
   5940   5941   5943   5944     1  180.0000771  1.0460000  2
   5940   5941   5943   5944     1  0.0000000  0.7531200  3
   5940   5941   5943   5950     1  0.0000000  0.6508444  3
   5940   5958   5945   5944     1  180.0000771  0.4184000  2
   5940   5958   5945   5944     1  0.0000000  1.6024720  3
   5940   5958   5945   5949     1  0.0000000  1.6038667  3
   5941   5940   5951   5956     1  0.0000000  0.6508444  3
   5941   5940   5958   5945     1  180.0000771  0.4184000  2
   5941   5940   5958   5945     1  0.0000000  1.6024720  3
   5941   5943   5944   5945     1  180.0000771  0.8368000  1
   5941   5943   5944   5945     1  180.0000771  1.0460000  2
   5941   5943   5944   5945     1  0.0000000  0.7531200  3
   5941   5943   5944   5963     1  0.0000000  0.6508444  3
   5943   5941   5940   5951     1  180.0000771  0.8368000  1
   5943   5941   5940   5951     1  180.0000771  1.0460000  2
   5943   5941   5940   5951     1  0.0000000  0.7531200  3
   5943   5941   5940   5958     1  0.0000000  0.6508444  3
   5943   5944   5945   5949     1  0.0000000  0.6508444  3
   5943   5944   5945   5958     1  0.0000000  0.6508444  3
   5944   5943   5941   5961     1  0.0000000  0.6508444  3
   5945   5944   5943   5950     1  0.0000000  0.6508444  3
   5945   5958   5940   5951     1  180.0000771  0.4184000  2
   5945   5958   5940   5951     1  0.0000000  1.6024720  3
   5949   5945   5944   5963     1  0.0000000  0.6508444  3
   5950   5943   5941   5961     1  0.0000000  4.9162000  2
   5950   5943   5941   5961     1  0.0000000  0.6024960  3
   5950   5943   5944   5963     1  0.0000000  0.6508444  3
   5951   5940   5941   5961     1  0.0000000  0.6508444  3
   5956   5951   5940   5958     1  0.0000000  4.9162000  2
   5956   5951   5940   5958     1  0.0000000  0.6024960  3
   5958   5940   5941   5961     1  0.0000000  4.9162000  2
   5958   5940   5941   5961     1  0.0000000  0.6024960  3
   5958   5945   5944   5963     1  0.0000000  0.6508444  3
   5964   5965   5967   5968     1  180.0000771  0.8368000  1
   5964   5965   5967   5968     1  180.0000771  1.0460000  2
   5964   5965   5967   5968     1  0.0000000  0.7531200  3
   5964   5965   5967   5974     1  0.0000000  0.6508444  3
   5964   5982   5969   5968     1  180.0000771  0.4184000  2
   5964   5982   5969   5968     1  0.0000000  1.6024720  3
   5964   5982   5969   5973     1  0.0000000  1.6038667  3
   5965   5964   5975   5980     1  0.0000000  0.6508444  3
   5965   5964   5982   5969     1  180.0000771  0.4184000  2
   5965   5964   5982   5969     1  0.0000000  1.6024720  3
   5965   5967   5968   5969     1  180.0000771  0.8368000  1
   5965   5967   5968   5969     1  180.0000771  1.0460000  2
   5965   5967   5968   5969     1  0.0000000  0.7531200  3
   5965   5967   5968   5987     1  0.0000000  0.6508444  3
   5967   5965   5964   5975     1  180.0000771  0.8368000  1
   5967   5965   5964   5975     1  180.0000771  1.0460000  2
   5967   5965   5964   5975     1  0.0000000  0.7531200  3
   5967   5965   5964   5982     1  0.0000000  0.6508444  3
   5967   5968   5969   5973     1  0.0000000  0.6508444  3
   5967   5968   5969   5982     1  0.0000000  0.6508444  3
   5968   5967   5965   5985     1  0.0000000  0.6508444  3
   5969   5968   5967   5974     1  0.0000000  0.6508444  3
   5969   5982   5964   5975     1  180.0000771  0.4184000  2
   5969   5982   5964   5975     1  0.0000000  1.6024720  3
   5973   5969   5968   5987     1  0.0000000  0.6508444  3
   5974   5967   5965   5985     1  0.0000000  4.9162000  2
   5974   5967   5965   5985     1  0.0000000  0.6024960  3
   5974   5967   5968   5987     1  0.0000000  0.6508444  3
   5975   5964   5965   5985     1  0.0000000  0.6508444  3
   5980   5975   5964   5982     1  0.0000000  4.9162000  2
   5980   5975   5964   5982     1  0.0000000  0.6024960  3
   5982   5964   5965   5985     1  0.0000000  4.9162000  2
   5982   5964   5965   5985     1  0.0000000  0.6024960  3
   5982   5969   5968   5987     1  0.0000000  0.6508444  3
   5988   5990   5992   5996     1  0.0000000  0.6508444  3
   5990   5992   5996   5997     1  180.0000771  2.0083200  2
   5990   5992   5996   5997     1  0.0000000  1.2552000  3
   5990   5992   5996   5998     1  180.0000771  2.0083200  2
   5990   5992   5996   5998     1  0.0000000  1.2552000  3
   5992   5996   5997   6008     1  180.0000771  2.0083200  2
   5992   5996   5997   6008     1  0.0000000  1.2552000  3
   5992   5996   5998   6000     1  180.0000771  2.0083200  2
   5992   5996   5998   6000     1  0.0000000  1.2552000  3
   5996   5997   6008   6011     1  0.0000000  0.6508444  3
   5996   5998   6000   6004     1  0.0000000  0.6508444  3
   5997   6008   6011   6012     1  180.0000771  0.0000000  2
   5997   6008   6011   6060     1  180.0000771  0.0000000  2
   5997   5996   5998   6000     1  180.0000771  2.0083200  2
   5997   5996   5998   6000     1  0.0000000  1.2552000  3
   5998   6000   6004   6005     1  180.0000771  0.0000000  2
   5998   6000   6004   6036     1  180.0000771  0.0000000  2
   5998   5996   5997   6008     1  180.0000771  2.0083200  2
   5998   5996   5997   6008     1  0.0000000  1.2552000  3
   6000   6004   6036   6017     1  180.0000771  6.0668000  2
   6000   6004   6036   6017     1  180.0000771  1.4644000  4
   6004   6036   6017   6018     1  0.0000000  1.2552000  3
   6004   6036   6017   6016     1  0.0000000  1.2552000  3
   6005   6004   6036   6017     1  180.0000771  6.0668000  2
   6005   6004   6036   6017     1  180.0000771  1.4644000  4
   6008   6011   6060   6041     1  180.0000771  6.0668000  2
   6008   6011   6060   6041     1  180.0000771  1.4644000  4
   6011   6060   6041   6042     1  0.0000000  1.2552000  3
   6011   6060   6041   6040     1  0.0000000  1.2552000  3
   6012   6011   6060   6041     1  180.0000771  6.0668000  2
   6012   6011   6060   6041     1  180.0000771  1.4644000  4
   6013   6014   6016   6017     1  180.0000771  0.8368000  1
   6013   6014   6016   6017     1  180.0000771  1.0460000  2
   6013   6014   6016   6017     1  0.0000000  0.7531200  3
   6013   6014   6016   6023     1  0.0000000  0.6508444  3
   6013   6031   6018   6022     1  0.0000000  1.6038667  3
   6013   6031   6018   6017     1  180.0000771  0.4184000  2
   6013   6031   6018   6017     1  0.0000000  1.6024720  3
   6014   6016   6017   6018     1  180.0000771  0.8368000  1
   6014   6016   6017   6018     1  180.0000771  1.0460000  2
   6014   6016   6017   6018     1  0.0000000  0.7531200  3
   6014   6016   6017   6036     1  0.0000000  0.6508444  3
   6014   6013   6024   6029     1  0.0000000  0.6508444  3
   6014   6013   6031   6018     1  180.0000771  0.4184000  2
   6014   6013   6031   6018     1  0.0000000  1.6024720  3
   6016   6017   6018   6022     1  0.0000000  0.6508444  3
   6016   6017   6018   6031     1  0.0000000  0.6508444  3
   6016   6014   6013   6024     1  180.0000771  0.8368000  1
   6016   6014   6013   6024     1  180.0000771  1.0460000  2
   6016   6014   6013   6024     1  0.0000000  0.7531200  3
   6016   6014   6013   6031     1  0.0000000  0.6508444  3
   6017   6016   6014   6034     1  0.0000000  0.6508444  3
   6018   6031   6013   6024     1  180.0000771  0.4184000  2
   6018   6031   6013   6024     1  0.0000000  1.6024720  3
   6018   6017   6016   6023     1  0.0000000  0.6508444  3
   6022   6018   6017   6036     1  0.0000000  0.6508444  3
   6023   6016   6017   6036     1  0.0000000  0.6508444  3
   6023   6016   6014   6034     1  0.0000000  4.9162000  2
   6023   6016   6014   6034     1  0.0000000  0.6024960  3
   6024   6013   6014   6034     1  0.0000000  0.6508444  3
   6029   6024   6013   6031     1  0.0000000  4.9162000  2
   6029   6024   6013   6031     1  0.0000000  0.6024960  3
   6031   6018   6017   6036     1  0.0000000  0.6508444  3
   6031   6013   6014   6034     1  0.0000000  4.9162000  2
   6031   6013   6014   6034     1  0.0000000  0.6024960  3
   6037   6038   6040   6041     1  180.0000771  0.8368000  1
   6037   6038   6040   6041     1  180.0000771  1.0460000  2
   6037   6038   6040   6041     1  0.0000000  0.7531200  3
   6037   6038   6040   6047     1  0.0000000  0.6508444  3
   6037   6055   6042   6046     1  0.0000000  1.6038667  3
   6037   6055   6042   6041     1  180.0000771  0.4184000  2
   6037   6055   6042   6041     1  0.0000000  1.6024720  3
   6038   6040   6041   6042     1  180.0000771  0.8368000  1
   6038   6040   6041   6042     1  180.0000771  1.0460000  2
   6038   6040   6041   6042     1  0.0000000  0.7531200  3
   6038   6040   6041   6060     1  0.0000000  0.6508444  3
   6038   6037   6048   6053     1  0.0000000  0.6508444  3
   6038   6037   6055   6042     1  180.0000771  0.4184000  2
   6038   6037   6055   6042     1  0.0000000  1.6024720  3
   6040   6041   6042   6046     1  0.0000000  0.6508444  3
   6040   6041   6042   6055     1  0.0000000  0.6508444  3
   6040   6038   6037   6048     1  180.0000771  0.8368000  1
   6040   6038   6037   6048     1  180.0000771  1.0460000  2
   6040   6038   6037   6048     1  0.0000000  0.7531200  3
   6040   6038   6037   6055     1  0.0000000  0.6508444  3
   6041   6040   6038   6058     1  0.0000000  0.6508444  3
   6042   6055   6037   6048     1  180.0000771  0.4184000  2
   6042   6055   6037   6048     1  0.0000000  1.6024720  3
   6042   6041   6040   6047     1  0.0000000  0.6508444  3
   6046   6042   6041   6060     1  0.0000000  0.6508444  3
   6047   6040   6041   6060     1  0.0000000  0.6508444  3
   6047   6040   6038   6058     1  0.0000000  4.9162000  2
   6047   6040   6038   6058     1  0.0000000  0.6024960  3
   6048   6037   6038   6058     1  0.0000000  0.6508444  3
   6053   6048   6037   6055     1  0.0000000  4.9162000  2
   6053   6048   6037   6055     1  0.0000000  0.6024960  3
   6055   6042   6041   6060     1  0.0000000  0.6508444  3
   6055   6037   6038   6058     1  0.0000000  4.9162000  2
   6055   6037   6038   6058     1  0.0000000  0.6024960  3
   6061   6063   6065   6069     1  0.0000000  0.6508444  3
   6063   6065   6069   6070     1  180.0000771  2.0083200  2
   6063   6065   6069   6070     1  0.0000000  1.2552000  3
   6063   6065   6069   6071     1  180.0000771  2.0083200  2
   6063   6065   6069   6071     1  0.0000000  1.2552000  3
   6065   6069   6070   6081     1  180.0000771  2.0083200  2
   6065   6069   6070   6081     1  0.0000000  1.2552000  3
   6065   6069   6071   6073     1  180.0000771  2.0083200  2
   6065   6069   6071   6073     1  0.0000000  1.2552000  3
   6069   6070   6081   6084     1  0.0000000  0.6508444  3
   6069   6071   6073   6077     1  0.0000000  0.6508444  3
   6070   6069   6071   6073     1  180.0000771  2.0083200  2
   6070   6069   6071   6073     1  0.0000000  1.2552000  3
   6070   6081   6084   6085     1  180.0000771  0.0000000  2
   6070   6081   6084   6133     1  180.0000771  0.0000000  2
   6071   6069   6070   6081     1  180.0000771  2.0083200  2
   6071   6069   6070   6081     1  0.0000000  1.2552000  3
   6071   6073   6077   6078     1  180.0000771  0.0000000  2
   6071   6073   6077   6109     1  180.0000771  0.0000000  2
   6073   6077   6109   6090     1  180.0000771  6.0668000  2
   6073   6077   6109   6090     1  180.0000771  1.4644000  4
   6077   6109   6090   6089     1  0.0000000  1.2552000  3
   6077   6109   6090   6091     1  0.0000000  1.2552000  3
   6078   6077   6109   6090     1  180.0000771  6.0668000  2
   6078   6077   6109   6090     1  180.0000771  1.4644000  4
   6081   6084   6133   6114     1  180.0000771  6.0668000  2
   6081   6084   6133   6114     1  180.0000771  1.4644000  4
   6084   6133   6114   6113     1  0.0000000  1.2552000  3
   6084   6133   6114   6115     1  0.0000000  1.2552000  3
   6085   6084   6133   6114     1  180.0000771  6.0668000  2
   6085   6084   6133   6114     1  180.0000771  1.4644000  4
   6086   6087   6089   6090     1  180.0000771  0.8368000  1
   6086   6087   6089   6090     1  180.0000771  1.0460000  2
   6086   6087   6089   6090     1  0.0000000  0.7531200  3
   6086   6087   6089   6096     1  0.0000000  0.6508444  3
   6086   6104   6091   6090     1  180.0000771  0.4184000  2
   6086   6104   6091   6090     1  0.0000000  1.6024720  3
   6086   6104   6091   6095     1  0.0000000  1.6038667  3
   6087   6086   6097   6102     1  0.0000000  0.6508444  3
   6087   6086   6104   6091     1  180.0000771  0.4184000  2
   6087   6086   6104   6091     1  0.0000000  1.6024720  3
   6087   6089   6090   6091     1  180.0000771  0.8368000  1
   6087   6089   6090   6091     1  180.0000771  1.0460000  2
   6087   6089   6090   6091     1  0.0000000  0.7531200  3
   6087   6089   6090   6109     1  0.0000000  0.6508444  3
   6089   6087   6086   6097     1  180.0000771  0.8368000  1
   6089   6087   6086   6097     1  180.0000771  1.0460000  2
   6089   6087   6086   6097     1  0.0000000  0.7531200  3
   6089   6087   6086   6104     1  0.0000000  0.6508444  3
   6089   6090   6091   6095     1  0.0000000  0.6508444  3
   6089   6090   6091   6104     1  0.0000000  0.6508444  3
   6090   6089   6087   6107     1  0.0000000  0.6508444  3
   6091   6090   6089   6096     1  0.0000000  0.6508444  3
   6091   6104   6086   6097     1  180.0000771  0.4184000  2
   6091   6104   6086   6097     1  0.0000000  1.6024720  3
   6095   6091   6090   6109     1  0.0000000  0.6508444  3
   6096   6089   6087   6107     1  0.0000000  4.9162000  2
   6096   6089   6087   6107     1  0.0000000  0.6024960  3
   6096   6089   6090   6109     1  0.0000000  0.6508444  3
   6097   6086   6087   6107     1  0.0000000  0.6508444  3
   6102   6097   6086   6104     1  0.0000000  4.9162000  2
   6102   6097   6086   6104     1  0.0000000  0.6024960  3
   6104   6086   6087   6107     1  0.0000000  4.9162000  2
   6104   6086   6087   6107     1  0.0000000  0.6024960  3
   6104   6091   6090   6109     1  0.0000000  0.6508444  3
   6110   6111   6113   6114     1  180.0000771  0.8368000  1
   6110   6111   6113   6114     1  180.0000771  1.0460000  2
   6110   6111   6113   6114     1  0.0000000  0.7531200  3
   6110   6111   6113   6120     1  0.0000000  0.6508444  3
   6110   6128   6115   6114     1  180.0000771  0.4184000  2
   6110   6128   6115   6114     1  0.0000000  1.6024720  3
   6110   6128   6115   6119     1  0.0000000  1.6038667  3
   6111   6110   6121   6126     1  0.0000000  0.6508444  3
   6111   6110   6128   6115     1  180.0000771  0.4184000  2
   6111   6110   6128   6115     1  0.0000000  1.6024720  3
   6111   6113   6114   6115     1  180.0000771  0.8368000  1
   6111   6113   6114   6115     1  180.0000771  1.0460000  2
   6111   6113   6114   6115     1  0.0000000  0.7531200  3
   6111   6113   6114   6133     1  0.0000000  0.6508444  3
   6113   6111   6110   6121     1  180.0000771  0.8368000  1
   6113   6111   6110   6121     1  180.0000771  1.0460000  2
   6113   6111   6110   6121     1  0.0000000  0.7531200  3
   6113   6111   6110   6128     1  0.0000000  0.6508444  3
   6113   6114   6115   6119     1  0.0000000  0.6508444  3
   6113   6114   6115   6128     1  0.0000000  0.6508444  3
   6114   6113   6111   6131     1  0.0000000  0.6508444  3
   6115   6114   6113   6120     1  0.0000000  0.6508444  3
   6115   6128   6110   6121     1  180.0000771  0.4184000  2
   6115   6128   6110   6121     1  0.0000000  1.6024720  3
   6119   6115   6114   6133     1  0.0000000  0.6508444  3
   6120   6113   6111   6131     1  0.0000000  4.9162000  2
   6120   6113   6111   6131     1  0.0000000  0.6024960  3
   6120   6113   6114   6133     1  0.0000000  0.6508444  3
   6121   6110   6111   6131     1  0.0000000  0.6508444  3
   6126   6121   6110   6128     1  0.0000000  4.9162000  2
   6126   6121   6110   6128     1  0.0000000  0.6024960  3
   6128   6110   6111   6131     1  0.0000000  4.9162000  2
   6128   6110   6111   6131     1  0.0000000  0.6024960  3
   6128   6115   6114   6133     1  0.0000000  0.6508444  3
   6134   6136   6138   6142     1  0.0000000  0.6508444  3
   6136   6138   6142   6143     1  180.0000771  2.0083200  2
   6136   6138   6142   6143     1  0.0000000  1.2552000  3
   6136   6138   6142   6144     1  180.0000771  2.0083200  2
   6136   6138   6142   6144     1  0.0000000  1.2552000  3
   6138   6142   6143   6154     1  180.0000771  2.0083200  2
   6138   6142   6143   6154     1  0.0000000  1.2552000  3
   6138   6142   6144   6146     1  180.0000771  2.0083200  2
   6138   6142   6144   6146     1  0.0000000  1.2552000  3
   6142   6143   6154   6157     1  0.0000000  0.6508444  3
   6142   6144   6146   6150     1  0.0000000  0.6508444  3
   6143   6154   6157   6158     1  180.0000771  0.0000000  2
   6143   6154   6157   6206     1  180.0000771  0.0000000  2
   6143   6142   6144   6146     1  180.0000771  2.0083200  2
   6143   6142   6144   6146     1  0.0000000  1.2552000  3
   6144   6146   6150   6151     1  180.0000771  0.0000000  2
   6144   6146   6150   6182     1  180.0000771  0.0000000  2
   6144   6142   6143   6154     1  180.0000771  2.0083200  2
   6144   6142   6143   6154     1  0.0000000  1.2552000  3
   6146   6150   6182   6163     1  180.0000771  6.0668000  2
   6146   6150   6182   6163     1  180.0000771  1.4644000  4
   6150   6182   6163   6164     1  0.0000000  1.2552000  3
   6150   6182   6163   6162     1  0.0000000  1.2552000  3
   6151   6150   6182   6163     1  180.0000771  6.0668000  2
   6151   6150   6182   6163     1  180.0000771  1.4644000  4
   6154   6157   6206   6187     1  180.0000771  6.0668000  2
   6154   6157   6206   6187     1  180.0000771  1.4644000  4
   6157   6206   6187   6188     1  0.0000000  1.2552000  3
   6157   6206   6187   6186     1  0.0000000  1.2552000  3
   6158   6157   6206   6187     1  180.0000771  6.0668000  2
   6158   6157   6206   6187     1  180.0000771  1.4644000  4
   6159   6160   6162   6163     1  180.0000771  0.8368000  1
   6159   6160   6162   6163     1  180.0000771  1.0460000  2
   6159   6160   6162   6163     1  0.0000000  0.7531200  3
   6159   6160   6162   6169     1  0.0000000  0.6508444  3
   6159   6177   6164   6168     1  0.0000000  1.6038667  3
   6159   6177   6164   6163     1  180.0000771  0.4184000  2
   6159   6177   6164   6163     1  0.0000000  1.6024720  3
   6160   6162   6163   6164     1  180.0000771  0.8368000  1
   6160   6162   6163   6164     1  180.0000771  1.0460000  2
   6160   6162   6163   6164     1  0.0000000  0.7531200  3
   6160   6162   6163   6182     1  0.0000000  0.6508444  3
   6160   6159   6170   6175     1  0.0000000  0.6508444  3
   6160   6159   6177   6164     1  180.0000771  0.4184000  2
   6160   6159   6177   6164     1  0.0000000  1.6024720  3
   6162   6163   6164   6168     1  0.0000000  0.6508444  3
   6162   6163   6164   6177     1  0.0000000  0.6508444  3
   6162   6160   6159   6170     1  180.0000771  0.8368000  1
   6162   6160   6159   6170     1  180.0000771  1.0460000  2
   6162   6160   6159   6170     1  0.0000000  0.7531200  3
   6162   6160   6159   6177     1  0.0000000  0.6508444  3
   6163   6162   6160   6180     1  0.0000000  0.6508444  3
   6164   6177   6159   6170     1  180.0000771  0.4184000  2
   6164   6177   6159   6170     1  0.0000000  1.6024720  3
   6164   6163   6162   6169     1  0.0000000  0.6508444  3
   6168   6164   6163   6182     1  0.0000000  0.6508444  3
   6169   6162   6163   6182     1  0.0000000  0.6508444  3
   6169   6162   6160   6180     1  0.0000000  4.9162000  2
   6169   6162   6160   6180     1  0.0000000  0.6024960  3
   6170   6159   6160   6180     1  0.0000000  0.6508444  3
   6175   6170   6159   6177     1  0.0000000  4.9162000  2
   6175   6170   6159   6177     1  0.0000000  0.6024960  3
   6177   6164   6163   6182     1  0.0000000  0.6508444  3
   6177   6159   6160   6180     1  0.0000000  4.9162000  2
   6177   6159   6160   6180     1  0.0000000  0.6024960  3
   6183   6184   6186   6187     1  180.0000771  0.8368000  1
   6183   6184   6186   6187     1  180.0000771  1.0460000  2
   6183   6184   6186   6187     1  0.0000000  0.7531200  3
   6183   6184   6186   6193     1  0.0000000  0.6508444  3
   6183   6201   6188   6192     1  0.0000000  1.6038667  3
   6183   6201   6188   6187     1  180.0000771  0.4184000  2
   6183   6201   6188   6187     1  0.0000000  1.6024720  3
   6184   6186   6187   6188     1  180.0000771  0.8368000  1
   6184   6186   6187   6188     1  180.0000771  1.0460000  2
   6184   6186   6187   6188     1  0.0000000  0.7531200  3
   6184   6186   6187   6206     1  0.0000000  0.6508444  3
   6184   6183   6194   6199     1  0.0000000  0.6508444  3
   6184   6183   6201   6188     1  180.0000771  0.4184000  2
   6184   6183   6201   6188     1  0.0000000  1.6024720  3
   6186   6187   6188   6192     1  0.0000000  0.6508444  3
   6186   6187   6188   6201     1  0.0000000  0.6508444  3
   6186   6184   6183   6194     1  180.0000771  0.8368000  1
   6186   6184   6183   6194     1  180.0000771  1.0460000  2
   6186   6184   6183   6194     1  0.0000000  0.7531200  3
   6186   6184   6183   6201     1  0.0000000  0.6508444  3
   6187   6186   6184   6204     1  0.0000000  0.6508444  3
   6188   6201   6183   6194     1  180.0000771  0.4184000  2
   6188   6201   6183   6194     1  0.0000000  1.6024720  3
   6188   6187   6186   6193     1  0.0000000  0.6508444  3
   6192   6188   6187   6206     1  0.0000000  0.6508444  3
   6193   6186   6187   6206     1  0.0000000  0.6508444  3
   6193   6186   6184   6204     1  0.0000000  4.9162000  2
   6193   6186   6184   6204     1  0.0000000  0.6024960  3
   6194   6183   6184   6204     1  0.0000000  0.6508444  3
   6199   6194   6183   6201     1  0.0000000  4.9162000  2
   6199   6194   6183   6201     1  0.0000000  0.6024960  3
   6201   6188   6187   6206     1  0.0000000  0.6508444  3
   6201   6183   6184   6204     1  0.0000000  4.9162000  2
   6201   6183   6184   6204     1  0.0000000  0.6024960  3
   6207   6209   6211   6215     1  0.0000000  0.6508444  3
   6209   6211   6215   6216     1  180.0000771  2.0083200  2
   6209   6211   6215   6216     1  0.0000000  1.2552000  3
   6209   6211   6215   6217     1  180.0000771  2.0083200  2
   6209   6211   6215   6217     1  0.0000000  1.2552000  3
   6211   6215   6216   6227     1  180.0000771  2.0083200  2
   6211   6215   6216   6227     1  0.0000000  1.2552000  3
   6211   6215   6217   6219     1  180.0000771  2.0083200  2
   6211   6215   6217   6219     1  0.0000000  1.2552000  3
   6215   6216   6227   6230     1  0.0000000  0.6508444  3
   6215   6217   6219   6223     1  0.0000000  0.6508444  3
   6216   6215   6217   6219     1  180.0000771  2.0083200  2
   6216   6215   6217   6219     1  0.0000000  1.2552000  3
   6216   6227   6230   6231     1  180.0000771  0.0000000  2
   6216   6227   6230   6279     1  180.0000771  0.0000000  2
   6217   6215   6216   6227     1  180.0000771  2.0083200  2
   6217   6215   6216   6227     1  0.0000000  1.2552000  3
   6217   6219   6223   6224     1  180.0000771  0.0000000  2
   6217   6219   6223   6255     1  180.0000771  0.0000000  2
   6219   6223   6255   6236     1  180.0000771  6.0668000  2
   6219   6223   6255   6236     1  180.0000771  1.4644000  4
   6223   6255   6236   6235     1  0.0000000  1.2552000  3
   6223   6255   6236   6237     1  0.0000000  1.2552000  3
   6224   6223   6255   6236     1  180.0000771  6.0668000  2
   6224   6223   6255   6236     1  180.0000771  1.4644000  4
   6227   6230   6279   6260     1  180.0000771  6.0668000  2
   6227   6230   6279   6260     1  180.0000771  1.4644000  4
   6230   6279   6260   6259     1  0.0000000  1.2552000  3
   6230   6279   6260   6261     1  0.0000000  1.2552000  3
   6231   6230   6279   6260     1  180.0000771  6.0668000  2
   6231   6230   6279   6260     1  180.0000771  1.4644000  4
   6232   6233   6235   6236     1  180.0000771  0.8368000  1
   6232   6233   6235   6236     1  180.0000771  1.0460000  2
   6232   6233   6235   6236     1  0.0000000  0.7531200  3
   6232   6233   6235   6242     1  0.0000000  0.6508444  3
   6232   6250   6237   6236     1  180.0000771  0.4184000  2
   6232   6250   6237   6236     1  0.0000000  1.6024720  3
   6232   6250   6237   6241     1  0.0000000  1.6038667  3
   6233   6232   6243   6248     1  0.0000000  0.6508444  3
   6233   6232   6250   6237     1  180.0000771  0.4184000  2
   6233   6232   6250   6237     1  0.0000000  1.6024720  3
   6233   6235   6236   6237     1  180.0000771  0.8368000  1
   6233   6235   6236   6237     1  180.0000771  1.0460000  2
   6233   6235   6236   6237     1  0.0000000  0.7531200  3
   6233   6235   6236   6255     1  0.0000000  0.6508444  3
   6235   6233   6232   6243     1  180.0000771  0.8368000  1
   6235   6233   6232   6243     1  180.0000771  1.0460000  2
   6235   6233   6232   6243     1  0.0000000  0.7531200  3
   6235   6233   6232   6250     1  0.0000000  0.6508444  3
   6235   6236   6237   6241     1  0.0000000  0.6508444  3
   6235   6236   6237   6250     1  0.0000000  0.6508444  3
   6236   6235   6233   6253     1  0.0000000  0.6508444  3
   6237   6236   6235   6242     1  0.0000000  0.6508444  3
   6237   6250   6232   6243     1  180.0000771  0.4184000  2
   6237   6250   6232   6243     1  0.0000000  1.6024720  3
   6241   6237   6236   6255     1  0.0000000  0.6508444  3
   6242   6235   6233   6253     1  0.0000000  4.9162000  2
   6242   6235   6233   6253     1  0.0000000  0.6024960  3
   6242   6235   6236   6255     1  0.0000000  0.6508444  3
   6243   6232   6233   6253     1  0.0000000  0.6508444  3
   6248   6243   6232   6250     1  0.0000000  4.9162000  2
   6248   6243   6232   6250     1  0.0000000  0.6024960  3
   6250   6232   6233   6253     1  0.0000000  4.9162000  2
   6250   6232   6233   6253     1  0.0000000  0.6024960  3
   6250   6237   6236   6255     1  0.0000000  0.6508444  3
   6256   6257   6259   6260     1  180.0000771  0.8368000  1
   6256   6257   6259   6260     1  180.0000771  1.0460000  2
   6256   6257   6259   6260     1  0.0000000  0.7531200  3
   6256   6257   6259   6266     1  0.0000000  0.6508444  3
   6256   6274   6261   6260     1  180.0000771  0.4184000  2
   6256   6274   6261   6260     1  0.0000000  1.6024720  3
   6256   6274   6261   6265     1  0.0000000  1.6038667  3
   6257   6256   6267   6272     1  0.0000000  0.6508444  3
   6257   6256   6274   6261     1  180.0000771  0.4184000  2
   6257   6256   6274   6261     1  0.0000000  1.6024720  3
   6257   6259   6260   6261     1  180.0000771  0.8368000  1
   6257   6259   6260   6261     1  180.0000771  1.0460000  2
   6257   6259   6260   6261     1  0.0000000  0.7531200  3
   6257   6259   6260   6279     1  0.0000000  0.6508444  3
   6259   6257   6256   6267     1  180.0000771  0.8368000  1
   6259   6257   6256   6267     1  180.0000771  1.0460000  2
   6259   6257   6256   6267     1  0.0000000  0.7531200  3
   6259   6257   6256   6274     1  0.0000000  0.6508444  3
   6259   6260   6261   6265     1  0.0000000  0.6508444  3
   6259   6260   6261   6274     1  0.0000000  0.6508444  3
   6260   6259   6257   6277     1  0.0000000  0.6508444  3
   6261   6260   6259   6266     1  0.0000000  0.6508444  3
   6261   6274   6256   6267     1  180.0000771  0.4184000  2
   6261   6274   6256   6267     1  0.0000000  1.6024720  3
   6265   6261   6260   6279     1  0.0000000  0.6508444  3
   6266   6259   6257   6277     1  0.0000000  4.9162000  2
   6266   6259   6257   6277     1  0.0000000  0.6024960  3
   6266   6259   6260   6279     1  0.0000000  0.6508444  3
   6267   6256   6257   6277     1  0.0000000  0.6508444  3
   6272   6267   6256   6274     1  0.0000000  4.9162000  2
   6272   6267   6256   6274     1  0.0000000  0.6024960  3
   6274   6256   6257   6277     1  0.0000000  4.9162000  2
   6274   6256   6257   6277     1  0.0000000  0.6024960  3
   6274   6261   6260   6279     1  0.0000000  0.6508444  3
   6280   6282   6284   6288     1  0.0000000  0.6508444  3
   6282   6284   6288   6289     1  180.0000771  2.0083200  2
   6282   6284   6288   6289     1  0.0000000  1.2552000  3
   6282   6284   6288   6290     1  180.0000771  2.0083200  2
   6282   6284   6288   6290     1  0.0000000  1.2552000  3
   6284   6288   6289   6300     1  180.0000771  2.0083200  2
   6284   6288   6289   6300     1  0.0000000  1.2552000  3
   6284   6288   6290   6292     1  180.0000771  2.0083200  2
   6284   6288   6290   6292     1  0.0000000  1.2552000  3
   6288   6289   6300   6303     1  0.0000000  0.6508444  3
   6288   6290   6292   6296     1  0.0000000  0.6508444  3
   6289   6300   6303   6304     1  180.0000771  0.0000000  2
   6289   6300   6303   6352     1  180.0000771  0.0000000  2
   6289   6288   6290   6292     1  180.0000771  2.0083200  2
   6289   6288   6290   6292     1  0.0000000  1.2552000  3
   6290   6292   6296   6297     1  180.0000771  0.0000000  2
   6290   6292   6296   6328     1  180.0000771  0.0000000  2
   6290   6288   6289   6300     1  180.0000771  2.0083200  2
   6290   6288   6289   6300     1  0.0000000  1.2552000  3
   6292   6296   6328   6309     1  180.0000771  6.0668000  2
   6292   6296   6328   6309     1  180.0000771  1.4644000  4
   6296   6328   6309   6310     1  0.0000000  1.2552000  3
   6296   6328   6309   6308     1  0.0000000  1.2552000  3
   6297   6296   6328   6309     1  180.0000771  6.0668000  2
   6297   6296   6328   6309     1  180.0000771  1.4644000  4
   6300   6303   6352   6333     1  180.0000771  6.0668000  2
   6300   6303   6352   6333     1  180.0000771  1.4644000  4
   6303   6352   6333   6334     1  0.0000000  1.2552000  3
   6303   6352   6333   6332     1  0.0000000  1.2552000  3
   6304   6303   6352   6333     1  180.0000771  6.0668000  2
   6304   6303   6352   6333     1  180.0000771  1.4644000  4
   6305   6306   6308   6309     1  180.0000771  0.8368000  1
   6305   6306   6308   6309     1  180.0000771  1.0460000  2
   6305   6306   6308   6309     1  0.0000000  0.7531200  3
   6305   6306   6308   6315     1  0.0000000  0.6508444  3
   6305   6323   6310   6314     1  0.0000000  1.6038667  3
   6305   6323   6310   6309     1  180.0000771  0.4184000  2
   6305   6323   6310   6309     1  0.0000000  1.6024720  3
   6306   6308   6309   6310     1  180.0000771  0.8368000  1
   6306   6308   6309   6310     1  180.0000771  1.0460000  2
   6306   6308   6309   6310     1  0.0000000  0.7531200  3
   6306   6308   6309   6328     1  0.0000000  0.6508444  3
   6306   6305   6316   6321     1  0.0000000  0.6508444  3
   6306   6305   6323   6310     1  180.0000771  0.4184000  2
   6306   6305   6323   6310     1  0.0000000  1.6024720  3
   6308   6309   6310   6314     1  0.0000000  0.6508444  3
   6308   6309   6310   6323     1  0.0000000  0.6508444  3
   6308   6306   6305   6316     1  180.0000771  0.8368000  1
   6308   6306   6305   6316     1  180.0000771  1.0460000  2
   6308   6306   6305   6316     1  0.0000000  0.7531200  3
   6308   6306   6305   6323     1  0.0000000  0.6508444  3
   6309   6308   6306   6326     1  0.0000000  0.6508444  3
   6310   6323   6305   6316     1  180.0000771  0.4184000  2
   6310   6323   6305   6316     1  0.0000000  1.6024720  3
   6310   6309   6308   6315     1  0.0000000  0.6508444  3
   6314   6310   6309   6328     1  0.0000000  0.6508444  3
   6315   6308   6309   6328     1  0.0000000  0.6508444  3
   6315   6308   6306   6326     1  0.0000000  4.9162000  2
   6315   6308   6306   6326     1  0.0000000  0.6024960  3
   6316   6305   6306   6326     1  0.0000000  0.6508444  3
   6321   6316   6305   6323     1  0.0000000  4.9162000  2
   6321   6316   6305   6323     1  0.0000000  0.6024960  3
   6323   6310   6309   6328     1  0.0000000  0.6508444  3
   6323   6305   6306   6326     1  0.0000000  4.9162000  2
   6323   6305   6306   6326     1  0.0000000  0.6024960  3
   6329   6330   6332   6333     1  180.0000771  0.8368000  1
   6329   6330   6332   6333     1  180.0000771  1.0460000  2
   6329   6330   6332   6333     1  0.0000000  0.7531200  3
   6329   6330   6332   6339     1  0.0000000  0.6508444  3
   6329   6347   6334   6338     1  0.0000000  1.6038667  3
   6329   6347   6334   6333     1  180.0000771  0.4184000  2
   6329   6347   6334   6333     1  0.0000000  1.6024720  3
   6330   6332   6333   6334     1  180.0000771  0.8368000  1
   6330   6332   6333   6334     1  180.0000771  1.0460000  2
   6330   6332   6333   6334     1  0.0000000  0.7531200  3
   6330   6332   6333   6352     1  0.0000000  0.6508444  3
   6330   6329   6340   6345     1  0.0000000  0.6508444  3
   6330   6329   6347   6334     1  180.0000771  0.4184000  2
   6330   6329   6347   6334     1  0.0000000  1.6024720  3
   6332   6333   6334   6338     1  0.0000000  0.6508444  3
   6332   6333   6334   6347     1  0.0000000  0.6508444  3
   6332   6330   6329   6340     1  180.0000771  0.8368000  1
   6332   6330   6329   6340     1  180.0000771  1.0460000  2
   6332   6330   6329   6340     1  0.0000000  0.7531200  3
   6332   6330   6329   6347     1  0.0000000  0.6508444  3
   6333   6332   6330   6350     1  0.0000000  0.6508444  3
   6334   6347   6329   6340     1  180.0000771  0.4184000  2
   6334   6347   6329   6340     1  0.0000000  1.6024720  3
   6334   6333   6332   6339     1  0.0000000  0.6508444  3
   6338   6334   6333   6352     1  0.0000000  0.6508444  3
   6339   6332   6333   6352     1  0.0000000  0.6508444  3
   6339   6332   6330   6350     1  0.0000000  4.9162000  2
   6339   6332   6330   6350     1  0.0000000  0.6024960  3
   6340   6329   6330   6350     1  0.0000000  0.6508444  3
   6345   6340   6329   6347     1  0.0000000  4.9162000  2
   6345   6340   6329   6347     1  0.0000000  0.6024960  3
   6347   6334   6333   6352     1  0.0000000  0.6508444  3
   6347   6329   6330   6350     1  0.0000000  4.9162000  2
   6347   6329   6330   6350     1  0.0000000  0.6024960  3
   6353   6355   6357   6361     1  0.0000000  0.6508444  3
   6355   6357   6361   6362     1  180.0000771  2.0083200  2
   6355   6357   6361   6362     1  0.0000000  1.2552000  3
   6355   6357   6361   6363     1  180.0000771  2.0083200  2
   6355   6357   6361   6363     1  0.0000000  1.2552000  3
   6357   6361   6362   6373     1  180.0000771  2.0083200  2
   6357   6361   6362   6373     1  0.0000000  1.2552000  3
   6357   6361   6363   6365     1  180.0000771  2.0083200  2
   6357   6361   6363   6365     1  0.0000000  1.2552000  3
   6361   6362   6373   6376     1  0.0000000  0.6508444  3
   6361   6363   6365   6369     1  0.0000000  0.6508444  3
   6362   6361   6363   6365     1  180.0000771  2.0083200  2
   6362   6361   6363   6365     1  0.0000000  1.2552000  3
   6362   6373   6376   6377     1  180.0000771  0.0000000  2
   6362   6373   6376   6425     1  180.0000771  0.0000000  2
   6363   6361   6362   6373     1  180.0000771  2.0083200  2
   6363   6361   6362   6373     1  0.0000000  1.2552000  3
   6363   6365   6369   6370     1  180.0000771  0.0000000  2
   6363   6365   6369   6401     1  180.0000771  0.0000000  2
   6365   6369   6401   6382     1  180.0000771  6.0668000  2
   6365   6369   6401   6382     1  180.0000771  1.4644000  4
   6369   6401   6382   6381     1  0.0000000  1.2552000  3
   6369   6401   6382   6383     1  0.0000000  1.2552000  3
   6370   6369   6401   6382     1  180.0000771  6.0668000  2
   6370   6369   6401   6382     1  180.0000771  1.4644000  4
   6373   6376   6425   6406     1  180.0000771  6.0668000  2
   6373   6376   6425   6406     1  180.0000771  1.4644000  4
   6376   6425   6406   6405     1  0.0000000  1.2552000  3
   6376   6425   6406   6407     1  0.0000000  1.2552000  3
   6377   6376   6425   6406     1  180.0000771  6.0668000  2
   6377   6376   6425   6406     1  180.0000771  1.4644000  4
   6378   6379   6381   6382     1  180.0000771  0.8368000  1
   6378   6379   6381   6382     1  180.0000771  1.0460000  2
   6378   6379   6381   6382     1  0.0000000  0.7531200  3
   6378   6379   6381   6388     1  0.0000000  0.6508444  3
   6378   6396   6383   6382     1  180.0000771  0.4184000  2
   6378   6396   6383   6382     1  0.0000000  1.6024720  3
   6378   6396   6383   6387     1  0.0000000  1.6038667  3
   6379   6378   6389   6394     1  0.0000000  0.6508444  3
   6379   6378   6396   6383     1  180.0000771  0.4184000  2
   6379   6378   6396   6383     1  0.0000000  1.6024720  3
   6379   6381   6382   6383     1  180.0000771  0.8368000  1
   6379   6381   6382   6383     1  180.0000771  1.0460000  2
   6379   6381   6382   6383     1  0.0000000  0.7531200  3
   6379   6381   6382   6401     1  0.0000000  0.6508444  3
   6381   6379   6378   6389     1  180.0000771  0.8368000  1
   6381   6379   6378   6389     1  180.0000771  1.0460000  2
   6381   6379   6378   6389     1  0.0000000  0.7531200  3
   6381   6379   6378   6396     1  0.0000000  0.6508444  3
   6381   6382   6383   6387     1  0.0000000  0.6508444  3
   6381   6382   6383   6396     1  0.0000000  0.6508444  3
   6382   6381   6379   6399     1  0.0000000  0.6508444  3
   6383   6382   6381   6388     1  0.0000000  0.6508444  3
   6383   6396   6378   6389     1  180.0000771  0.4184000  2
   6383   6396   6378   6389     1  0.0000000  1.6024720  3
   6387   6383   6382   6401     1  0.0000000  0.6508444  3
   6388   6381   6379   6399     1  0.0000000  4.9162000  2
   6388   6381   6379   6399     1  0.0000000  0.6024960  3
   6388   6381   6382   6401     1  0.0000000  0.6508444  3
   6389   6378   6379   6399     1  0.0000000  0.6508444  3
   6394   6389   6378   6396     1  0.0000000  4.9162000  2
   6394   6389   6378   6396     1  0.0000000  0.6024960  3
   6396   6378   6379   6399     1  0.0000000  4.9162000  2
   6396   6378   6379   6399     1  0.0000000  0.6024960  3
   6396   6383   6382   6401     1  0.0000000  0.6508444  3
   6402   6403   6405   6406     1  180.0000771  0.8368000  1
   6402   6403   6405   6406     1  180.0000771  1.0460000  2
   6402   6403   6405   6406     1  0.0000000  0.7531200  3
   6402   6403   6405   6412     1  0.0000000  0.6508444  3
   6402   6420   6407   6406     1  180.0000771  0.4184000  2
   6402   6420   6407   6406     1  0.0000000  1.6024720  3
   6402   6420   6407   6411     1  0.0000000  1.6038667  3
   6403   6402   6413   6418     1  0.0000000  0.6508444  3
   6403   6402   6420   6407     1  180.0000771  0.4184000  2
   6403   6402   6420   6407     1  0.0000000  1.6024720  3
   6403   6405   6406   6407     1  180.0000771  0.8368000  1
   6403   6405   6406   6407     1  180.0000771  1.0460000  2
   6403   6405   6406   6407     1  0.0000000  0.7531200  3
   6403   6405   6406   6425     1  0.0000000  0.6508444  3
   6405   6403   6402   6413     1  180.0000771  0.8368000  1
   6405   6403   6402   6413     1  180.0000771  1.0460000  2
   6405   6403   6402   6413     1  0.0000000  0.7531200  3
   6405   6403   6402   6420     1  0.0000000  0.6508444  3
   6405   6406   6407   6411     1  0.0000000  0.6508444  3
   6405   6406   6407   6420     1  0.0000000  0.6508444  3
   6406   6405   6403   6423     1  0.0000000  0.6508444  3
   6407   6406   6405   6412     1  0.0000000  0.6508444  3
   6407   6420   6402   6413     1  180.0000771  0.4184000  2
   6407   6420   6402   6413     1  0.0000000  1.6024720  3
   6411   6407   6406   6425     1  0.0000000  0.6508444  3
   6412   6405   6403   6423     1  0.0000000  4.9162000  2
   6412   6405   6403   6423     1  0.0000000  0.6024960  3
   6412   6405   6406   6425     1  0.0000000  0.6508444  3
   6413   6402   6403   6423     1  0.0000000  0.6508444  3
   6418   6413   6402   6420     1  0.0000000  4.9162000  2
   6418   6413   6402   6420     1  0.0000000  0.6024960  3
   6420   6402   6403   6423     1  0.0000000  4.9162000  2
   6420   6402   6403   6423     1  0.0000000  0.6024960  3
   6420   6407   6406   6425     1  0.0000000  0.6508444  3
   6426   6428   6430   6434     1  0.0000000  0.6508444  3
   6428   6430   6434   6435     1  180.0000771  2.0083200  2
   6428   6430   6434   6435     1  0.0000000  1.2552000  3
   6428   6430   6434   6436     1  180.0000771  2.0083200  2
   6428   6430   6434   6436     1  0.0000000  1.2552000  3
   6430   6434   6435   6446     1  180.0000771  2.0083200  2
   6430   6434   6435   6446     1  0.0000000  1.2552000  3
   6430   6434   6436   6438     1  180.0000771  2.0083200  2
   6430   6434   6436   6438     1  0.0000000  1.2552000  3
   6434   6435   6446   6449     1  0.0000000  0.6508444  3
   6434   6436   6438   6442     1  0.0000000  0.6508444  3
   6435   6446   6449   6450     1  180.0000771  0.0000000  2
   6435   6446   6449   6498     1  180.0000771  0.0000000  2
   6435   6434   6436   6438     1  180.0000771  2.0083200  2
   6435   6434   6436   6438     1  0.0000000  1.2552000  3
   6436   6438   6442   6443     1  180.0000771  0.0000000  2
   6436   6438   6442   6474     1  180.0000771  0.0000000  2
   6436   6434   6435   6446     1  180.0000771  2.0083200  2
   6436   6434   6435   6446     1  0.0000000  1.2552000  3
   6438   6442   6474   6455     1  180.0000771  6.0668000  2
   6438   6442   6474   6455     1  180.0000771  1.4644000  4
   6442   6474   6455   6456     1  0.0000000  1.2552000  3
   6442   6474   6455   6454     1  0.0000000  1.2552000  3
   6443   6442   6474   6455     1  180.0000771  6.0668000  2
   6443   6442   6474   6455     1  180.0000771  1.4644000  4
   6446   6449   6498   6479     1  180.0000771  6.0668000  2
   6446   6449   6498   6479     1  180.0000771  1.4644000  4
   6449   6498   6479   6480     1  0.0000000  1.2552000  3
   6449   6498   6479   6478     1  0.0000000  1.2552000  3
   6450   6449   6498   6479     1  180.0000771  6.0668000  2
   6450   6449   6498   6479     1  180.0000771  1.4644000  4
   6451   6452   6454   6455     1  180.0000771  0.8368000  1
   6451   6452   6454   6455     1  180.0000771  1.0460000  2
   6451   6452   6454   6455     1  0.0000000  0.7531200  3
   6451   6452   6454   6461     1  0.0000000  0.6508444  3
   6451   6469   6456   6460     1  0.0000000  1.6038667  3
   6451   6469   6456   6455     1  180.0000771  0.4184000  2
   6451   6469   6456   6455     1  0.0000000  1.6024720  3
   6452   6454   6455   6456     1  180.0000771  0.8368000  1
   6452   6454   6455   6456     1  180.0000771  1.0460000  2
   6452   6454   6455   6456     1  0.0000000  0.7531200  3
   6452   6454   6455   6474     1  0.0000000  0.6508444  3
   6452   6451   6462   6467     1  0.0000000  0.6508444  3
   6452   6451   6469   6456     1  180.0000771  0.4184000  2
   6452   6451   6469   6456     1  0.0000000  1.6024720  3
   6454   6455   6456   6460     1  0.0000000  0.6508444  3
   6454   6455   6456   6469     1  0.0000000  0.6508444  3
   6454   6452   6451   6462     1  180.0000771  0.8368000  1
   6454   6452   6451   6462     1  180.0000771  1.0460000  2
   6454   6452   6451   6462     1  0.0000000  0.7531200  3
   6454   6452   6451   6469     1  0.0000000  0.6508444  3
   6455   6454   6452   6472     1  0.0000000  0.6508444  3
   6456   6469   6451   6462     1  180.0000771  0.4184000  2
   6456   6469   6451   6462     1  0.0000000  1.6024720  3
   6456   6455   6454   6461     1  0.0000000  0.6508444  3
   6460   6456   6455   6474     1  0.0000000  0.6508444  3
   6461   6454   6455   6474     1  0.0000000  0.6508444  3
   6461   6454   6452   6472     1  0.0000000  4.9162000  2
   6461   6454   6452   6472     1  0.0000000  0.6024960  3
   6462   6451   6452   6472     1  0.0000000  0.6508444  3
   6467   6462   6451   6469     1  0.0000000  4.9162000  2
   6467   6462   6451   6469     1  0.0000000  0.6024960  3
   6469   6456   6455   6474     1  0.0000000  0.6508444  3
   6469   6451   6452   6472     1  0.0000000  4.9162000  2
   6469   6451   6452   6472     1  0.0000000  0.6024960  3
   6475   6476   6478   6479     1  180.0000771  0.8368000  1
   6475   6476   6478   6479     1  180.0000771  1.0460000  2
   6475   6476   6478   6479     1  0.0000000  0.7531200  3
   6475   6476   6478   6485     1  0.0000000  0.6508444  3
   6475   6493   6480   6484     1  0.0000000  1.6038667  3
   6475   6493   6480   6479     1  180.0000771  0.4184000  2
   6475   6493   6480   6479     1  0.0000000  1.6024720  3
   6476   6478   6479   6480     1  180.0000771  0.8368000  1
   6476   6478   6479   6480     1  180.0000771  1.0460000  2
   6476   6478   6479   6480     1  0.0000000  0.7531200  3
   6476   6478   6479   6498     1  0.0000000  0.6508444  3
   6476   6475   6486   6491     1  0.0000000  0.6508444  3
   6476   6475   6493   6480     1  180.0000771  0.4184000  2
   6476   6475   6493   6480     1  0.0000000  1.6024720  3
   6478   6479   6480   6484     1  0.0000000  0.6508444  3
   6478   6479   6480   6493     1  0.0000000  0.6508444  3
   6478   6476   6475   6486     1  180.0000771  0.8368000  1
   6478   6476   6475   6486     1  180.0000771  1.0460000  2
   6478   6476   6475   6486     1  0.0000000  0.7531200  3
   6478   6476   6475   6493     1  0.0000000  0.6508444  3
   6479   6478   6476   6496     1  0.0000000  0.6508444  3
   6480   6493   6475   6486     1  180.0000771  0.4184000  2
   6480   6493   6475   6486     1  0.0000000  1.6024720  3
   6480   6479   6478   6485     1  0.0000000  0.6508444  3
   6484   6480   6479   6498     1  0.0000000  0.6508444  3
   6485   6478   6479   6498     1  0.0000000  0.6508444  3
   6485   6478   6476   6496     1  0.0000000  4.9162000  2
   6485   6478   6476   6496     1  0.0000000  0.6024960  3
   6486   6475   6476   6496     1  0.0000000  0.6508444  3
   6491   6486   6475   6493     1  0.0000000  4.9162000  2
   6491   6486   6475   6493     1  0.0000000  0.6024960  3
   6493   6480   6479   6498     1  0.0000000  0.6508444  3
   6493   6475   6476   6496     1  0.0000000  4.9162000  2
   6493   6475   6476   6496     1  0.0000000  0.6024960  3
   6499   6501   6503   6507     1  0.0000000  0.6508444  3
   6501   6503   6507   6508     1  180.0000771  2.0083200  2
   6501   6503   6507   6508     1  0.0000000  1.2552000  3
   6501   6503   6507   6509     1  180.0000771  2.0083200  2
   6501   6503   6507   6509     1  0.0000000  1.2552000  3
   6503   6507   6508   6519     1  180.0000771  2.0083200  2
   6503   6507   6508   6519     1  0.0000000  1.2552000  3
   6503   6507   6509   6511     1  180.0000771  2.0083200  2
   6503   6507   6509   6511     1  0.0000000  1.2552000  3
   6507   6508   6519   6522     1  0.0000000  0.6508444  3
   6507   6509   6511   6515     1  0.0000000  0.6508444  3
   6508   6507   6509   6511     1  180.0000771  2.0083200  2
   6508   6507   6509   6511     1  0.0000000  1.2552000  3
   6508   6519   6522   6523     1  180.0000771  0.0000000  2
   6508   6519   6522   6571     1  180.0000771  0.0000000  2
   6509   6507   6508   6519     1  180.0000771  2.0083200  2
   6509   6507   6508   6519     1  0.0000000  1.2552000  3
   6509   6511   6515   6516     1  180.0000771  0.0000000  2
   6509   6511   6515   6547     1  180.0000771  0.0000000  2
   6511   6515   6547   6528     1  180.0000771  6.0668000  2
   6511   6515   6547   6528     1  180.0000771  1.4644000  4
   6515   6547   6528   6527     1  0.0000000  1.2552000  3
   6515   6547   6528   6529     1  0.0000000  1.2552000  3
   6516   6515   6547   6528     1  180.0000771  6.0668000  2
   6516   6515   6547   6528     1  180.0000771  1.4644000  4
   6519   6522   6571   6552     1  180.0000771  6.0668000  2
   6519   6522   6571   6552     1  180.0000771  1.4644000  4
   6522   6571   6552   6551     1  0.0000000  1.2552000  3
   6522   6571   6552   6553     1  0.0000000  1.2552000  3
   6523   6522   6571   6552     1  180.0000771  6.0668000  2
   6523   6522   6571   6552     1  180.0000771  1.4644000  4
   6524   6525   6527   6528     1  180.0000771  0.8368000  1
   6524   6525   6527   6528     1  180.0000771  1.0460000  2
   6524   6525   6527   6528     1  0.0000000  0.7531200  3
   6524   6525   6527   6534     1  0.0000000  0.6508444  3
   6524   6542   6529   6528     1  180.0000771  0.4184000  2
   6524   6542   6529   6528     1  0.0000000  1.6024720  3
   6524   6542   6529   6533     1  0.0000000  1.6038667  3
   6525   6524   6535   6540     1  0.0000000  0.6508444  3
   6525   6524   6542   6529     1  180.0000771  0.4184000  2
   6525   6524   6542   6529     1  0.0000000  1.6024720  3
   6525   6527   6528   6529     1  180.0000771  0.8368000  1
   6525   6527   6528   6529     1  180.0000771  1.0460000  2
   6525   6527   6528   6529     1  0.0000000  0.7531200  3
   6525   6527   6528   6547     1  0.0000000  0.6508444  3
   6527   6525   6524   6535     1  180.0000771  0.8368000  1
   6527   6525   6524   6535     1  180.0000771  1.0460000  2
   6527   6525   6524   6535     1  0.0000000  0.7531200  3
   6527   6525   6524   6542     1  0.0000000  0.6508444  3
   6527   6528   6529   6533     1  0.0000000  0.6508444  3
   6527   6528   6529   6542     1  0.0000000  0.6508444  3
   6528   6527   6525   6545     1  0.0000000  0.6508444  3
   6529   6528   6527   6534     1  0.0000000  0.6508444  3
   6529   6542   6524   6535     1  180.0000771  0.4184000  2
   6529   6542   6524   6535     1  0.0000000  1.6024720  3
   6533   6529   6528   6547     1  0.0000000  0.6508444  3
   6534   6527   6525   6545     1  0.0000000  4.9162000  2
   6534   6527   6525   6545     1  0.0000000  0.6024960  3
   6534   6527   6528   6547     1  0.0000000  0.6508444  3
   6535   6524   6525   6545     1  0.0000000  0.6508444  3
   6540   6535   6524   6542     1  0.0000000  4.9162000  2
   6540   6535   6524   6542     1  0.0000000  0.6024960  3
   6542   6524   6525   6545     1  0.0000000  4.9162000  2
   6542   6524   6525   6545     1  0.0000000  0.6024960  3
   6542   6529   6528   6547     1  0.0000000  0.6508444  3
   6548   6549   6551   6552     1  180.0000771  0.8368000  1
   6548   6549   6551   6552     1  180.0000771  1.0460000  2
   6548   6549   6551   6552     1  0.0000000  0.7531200  3
   6548   6549   6551   6558     1  0.0000000  0.6508444  3
   6548   6566   6553   6552     1  180.0000771  0.4184000  2
   6548   6566   6553   6552     1  0.0000000  1.6024720  3
   6548   6566   6553   6557     1  0.0000000  1.6038667  3
   6549   6548   6559   6564     1  0.0000000  0.6508444  3
   6549   6548   6566   6553     1  180.0000771  0.4184000  2
   6549   6548   6566   6553     1  0.0000000  1.6024720  3
   6549   6551   6552   6553     1  180.0000771  0.8368000  1
   6549   6551   6552   6553     1  180.0000771  1.0460000  2
   6549   6551   6552   6553     1  0.0000000  0.7531200  3
   6549   6551   6552   6571     1  0.0000000  0.6508444  3
   6551   6549   6548   6559     1  180.0000771  0.8368000  1
   6551   6549   6548   6559     1  180.0000771  1.0460000  2
   6551   6549   6548   6559     1  0.0000000  0.7531200  3
   6551   6549   6548   6566     1  0.0000000  0.6508444  3
   6551   6552   6553   6557     1  0.0000000  0.6508444  3
   6551   6552   6553   6566     1  0.0000000  0.6508444  3
   6552   6551   6549   6569     1  0.0000000  0.6508444  3
   6553   6552   6551   6558     1  0.0000000  0.6508444  3
   6553   6566   6548   6559     1  180.0000771  0.4184000  2
   6553   6566   6548   6559     1  0.0000000  1.6024720  3
   6557   6553   6552   6571     1  0.0000000  0.6508444  3
   6558   6551   6549   6569     1  0.0000000  4.9162000  2
   6558   6551   6549   6569     1  0.0000000  0.6024960  3
   6558   6551   6552   6571     1  0.0000000  0.6508444  3
   6559   6548   6549   6569     1  0.0000000  0.6508444  3
   6564   6559   6548   6566     1  0.0000000  4.9162000  2
   6564   6559   6548   6566     1  0.0000000  0.6024960  3
   6566   6548   6549   6569     1  0.0000000  4.9162000  2
   6566   6548   6549   6569     1  0.0000000  0.6024960  3
   6566   6553   6552   6571     1  0.0000000  0.6508444  3
   6572   6574   6576   6580     1  0.0000000  0.6508444  3
   6574   6576   6580   6581     1  180.0000771  2.0083200  2
   6574   6576   6580   6581     1  0.0000000  1.2552000  3
   6574   6576   6580   6582     1  180.0000771  2.0083200  2
   6574   6576   6580   6582     1  0.0000000  1.2552000  3
   6576   6580   6581   6592     1  180.0000771  2.0083200  2
   6576   6580   6581   6592     1  0.0000000  1.2552000  3
   6576   6580   6582   6584     1  180.0000771  2.0083200  2
   6576   6580   6582   6584     1  0.0000000  1.2552000  3
   6580   6581   6592   6595     1  0.0000000  0.6508444  3
   6580   6582   6584   6588     1  0.0000000  0.6508444  3
   6581   6592   6595   6596     1  180.0000771  0.0000000  2
   6581   6592   6595   6644     1  180.0000771  0.0000000  2
   6581   6580   6582   6584     1  180.0000771  2.0083200  2
   6581   6580   6582   6584     1  0.0000000  1.2552000  3
   6582   6584   6588   6589     1  180.0000771  0.0000000  2
   6582   6584   6588   6620     1  180.0000771  0.0000000  2
   6582   6580   6581   6592     1  180.0000771  2.0083200  2
   6582   6580   6581   6592     1  0.0000000  1.2552000  3
   6584   6588   6620   6601     1  180.0000771  6.0668000  2
   6584   6588   6620   6601     1  180.0000771  1.4644000  4
   6588   6620   6601   6602     1  0.0000000  1.2552000  3
   6588   6620   6601   6600     1  0.0000000  1.2552000  3
   6589   6588   6620   6601     1  180.0000771  6.0668000  2
   6589   6588   6620   6601     1  180.0000771  1.4644000  4
   6592   6595   6644   6625     1  180.0000771  6.0668000  2
   6592   6595   6644   6625     1  180.0000771  1.4644000  4
   6595   6644   6625   6626     1  0.0000000  1.2552000  3
   6595   6644   6625   6624     1  0.0000000  1.2552000  3
   6596   6595   6644   6625     1  180.0000771  6.0668000  2
   6596   6595   6644   6625     1  180.0000771  1.4644000  4
   6597   6598   6600   6601     1  180.0000771  0.8368000  1
   6597   6598   6600   6601     1  180.0000771  1.0460000  2
   6597   6598   6600   6601     1  0.0000000  0.7531200  3
   6597   6598   6600   6607     1  0.0000000  0.6508444  3
   6597   6615   6602   6606     1  0.0000000  1.6038667  3
   6597   6615   6602   6601     1  180.0000771  0.4184000  2
   6597   6615   6602   6601     1  0.0000000  1.6024720  3
   6598   6600   6601   6602     1  180.0000771  0.8368000  1
   6598   6600   6601   6602     1  180.0000771  1.0460000  2
   6598   6600   6601   6602     1  0.0000000  0.7531200  3
   6598   6600   6601   6620     1  0.0000000  0.6508444  3
   6598   6597   6608   6613     1  0.0000000  0.6508444  3
   6598   6597   6615   6602     1  180.0000771  0.4184000  2
   6598   6597   6615   6602     1  0.0000000  1.6024720  3
   6600   6601   6602   6606     1  0.0000000  0.6508444  3
   6600   6601   6602   6615     1  0.0000000  0.6508444  3
   6600   6598   6597   6608     1  180.0000771  0.8368000  1
   6600   6598   6597   6608     1  180.0000771  1.0460000  2
   6600   6598   6597   6608     1  0.0000000  0.7531200  3
   6600   6598   6597   6615     1  0.0000000  0.6508444  3
   6601   6600   6598   6618     1  0.0000000  0.6508444  3
   6602   6615   6597   6608     1  180.0000771  0.4184000  2
   6602   6615   6597   6608     1  0.0000000  1.6024720  3
   6602   6601   6600   6607     1  0.0000000  0.6508444  3
   6606   6602   6601   6620     1  0.0000000  0.6508444  3
   6607   6600   6601   6620     1  0.0000000  0.6508444  3
   6607   6600   6598   6618     1  0.0000000  4.9162000  2
   6607   6600   6598   6618     1  0.0000000  0.6024960  3
   6608   6597   6598   6618     1  0.0000000  0.6508444  3
   6613   6608   6597   6615     1  0.0000000  4.9162000  2
   6613   6608   6597   6615     1  0.0000000  0.6024960  3
   6615   6602   6601   6620     1  0.0000000  0.6508444  3
   6615   6597   6598   6618     1  0.0000000  4.9162000  2
   6615   6597   6598   6618     1  0.0000000  0.6024960  3
   6621   6622   6624   6625     1  180.0000771  0.8368000  1
   6621   6622   6624   6625     1  180.0000771  1.0460000  2
   6621   6622   6624   6625     1  0.0000000  0.7531200  3
   6621   6622   6624   6631     1  0.0000000  0.6508444  3
   6621   6639   6626   6630     1  0.0000000  1.6038667  3
   6621   6639   6626   6625     1  180.0000771  0.4184000  2
   6621   6639   6626   6625     1  0.0000000  1.6024720  3
   6622   6624   6625   6626     1  180.0000771  0.8368000  1
   6622   6624   6625   6626     1  180.0000771  1.0460000  2
   6622   6624   6625   6626     1  0.0000000  0.7531200  3
   6622   6624   6625   6644     1  0.0000000  0.6508444  3
   6622   6621   6632   6637     1  0.0000000  0.6508444  3
   6622   6621   6639   6626     1  180.0000771  0.4184000  2
   6622   6621   6639   6626     1  0.0000000  1.6024720  3
   6624   6625   6626   6630     1  0.0000000  0.6508444  3
   6624   6625   6626   6639     1  0.0000000  0.6508444  3
   6624   6622   6621   6632     1  180.0000771  0.8368000  1
   6624   6622   6621   6632     1  180.0000771  1.0460000  2
   6624   6622   6621   6632     1  0.0000000  0.7531200  3
   6624   6622   6621   6639     1  0.0000000  0.6508444  3
   6625   6624   6622   6642     1  0.0000000  0.6508444  3
   6626   6639   6621   6632     1  180.0000771  0.4184000  2
   6626   6639   6621   6632     1  0.0000000  1.6024720  3
   6626   6625   6624   6631     1  0.0000000  0.6508444  3
   6630   6626   6625   6644     1  0.0000000  0.6508444  3
   6631   6624   6625   6644     1  0.0000000  0.6508444  3
   6631   6624   6622   6642     1  0.0000000  4.9162000  2
   6631   6624   6622   6642     1  0.0000000  0.6024960  3
   6632   6621   6622   6642     1  0.0000000  0.6508444  3
   6637   6632   6621   6639     1  0.0000000  4.9162000  2
   6637   6632   6621   6639     1  0.0000000  0.6024960  3
   6639   6626   6625   6644     1  0.0000000  0.6508444  3
   6639   6621   6622   6642     1  0.0000000  4.9162000  2
   6639   6621   6622   6642     1  0.0000000  0.6024960  3
   6645   6647   6649   6653     1  0.0000000  0.6508444  3
   6647   6649   6653   6654     1  180.0000771  2.0083200  2
   6647   6649   6653   6654     1  0.0000000  1.2552000  3
   6647   6649   6653   6655     1  180.0000771  2.0083200  2
   6647   6649   6653   6655     1  0.0000000  1.2552000  3
   6649   6653   6654   6665     1  180.0000771  2.0083200  2
   6649   6653   6654   6665     1  0.0000000  1.2552000  3
   6649   6653   6655   6657     1  180.0000771  2.0083200  2
   6649   6653   6655   6657     1  0.0000000  1.2552000  3
   6653   6654   6665   6668     1  0.0000000  0.6508444  3
   6653   6655   6657   6661     1  0.0000000  0.6508444  3
   6654   6653   6655   6657     1  180.0000771  2.0083200  2
   6654   6653   6655   6657     1  0.0000000  1.2552000  3
   6654   6665   6668   6669     1  180.0000771  0.0000000  2
   6654   6665   6668   6717     1  180.0000771  0.0000000  2
   6655   6653   6654   6665     1  180.0000771  2.0083200  2
   6655   6653   6654   6665     1  0.0000000  1.2552000  3
   6655   6657   6661   6662     1  180.0000771  0.0000000  2
   6655   6657   6661   6693     1  180.0000771  0.0000000  2
   6657   6661   6693   6674     1  180.0000771  6.0668000  2
   6657   6661   6693   6674     1  180.0000771  1.4644000  4
   6661   6693   6674   6673     1  0.0000000  1.2552000  3
   6661   6693   6674   6675     1  0.0000000  1.2552000  3
   6662   6661   6693   6674     1  180.0000771  6.0668000  2
   6662   6661   6693   6674     1  180.0000771  1.4644000  4
   6665   6668   6717   6698     1  180.0000771  6.0668000  2
   6665   6668   6717   6698     1  180.0000771  1.4644000  4
   6668   6717   6698   6697     1  0.0000000  1.2552000  3
   6668   6717   6698   6699     1  0.0000000  1.2552000  3
   6669   6668   6717   6698     1  180.0000771  6.0668000  2
   6669   6668   6717   6698     1  180.0000771  1.4644000  4
   6670   6671   6673   6674     1  180.0000771  0.8368000  1
   6670   6671   6673   6674     1  180.0000771  1.0460000  2
   6670   6671   6673   6674     1  0.0000000  0.7531200  3
   6670   6671   6673   6680     1  0.0000000  0.6508444  3
   6670   6688   6675   6674     1  180.0000771  0.4184000  2
   6670   6688   6675   6674     1  0.0000000  1.6024720  3
   6670   6688   6675   6679     1  0.0000000  1.6038667  3
   6671   6670   6681   6686     1  0.0000000  0.6508444  3
   6671   6670   6688   6675     1  180.0000771  0.4184000  2
   6671   6670   6688   6675     1  0.0000000  1.6024720  3
   6671   6673   6674   6675     1  180.0000771  0.8368000  1
   6671   6673   6674   6675     1  180.0000771  1.0460000  2
   6671   6673   6674   6675     1  0.0000000  0.7531200  3
   6671   6673   6674   6693     1  0.0000000  0.6508444  3
   6673   6671   6670   6681     1  180.0000771  0.8368000  1
   6673   6671   6670   6681     1  180.0000771  1.0460000  2
   6673   6671   6670   6681     1  0.0000000  0.7531200  3
   6673   6671   6670   6688     1  0.0000000  0.6508444  3
   6673   6674   6675   6679     1  0.0000000  0.6508444  3
   6673   6674   6675   6688     1  0.0000000  0.6508444  3
   6674   6673   6671   6691     1  0.0000000  0.6508444  3
   6675   6674   6673   6680     1  0.0000000  0.6508444  3
   6675   6688   6670   6681     1  180.0000771  0.4184000  2
   6675   6688   6670   6681     1  0.0000000  1.6024720  3
   6679   6675   6674   6693     1  0.0000000  0.6508444  3
   6680   6673   6671   6691     1  0.0000000  4.9162000  2
   6680   6673   6671   6691     1  0.0000000  0.6024960  3
   6680   6673   6674   6693     1  0.0000000  0.6508444  3
   6681   6670   6671   6691     1  0.0000000  0.6508444  3
   6686   6681   6670   6688     1  0.0000000  4.9162000  2
   6686   6681   6670   6688     1  0.0000000  0.6024960  3
   6688   6670   6671   6691     1  0.0000000  4.9162000  2
   6688   6670   6671   6691     1  0.0000000  0.6024960  3
   6688   6675   6674   6693     1  0.0000000  0.6508444  3
   6694   6695   6697   6698     1  180.0000771  0.8368000  1
   6694   6695   6697   6698     1  180.0000771  1.0460000  2
   6694   6695   6697   6698     1  0.0000000  0.7531200  3
   6694   6695   6697   6704     1  0.0000000  0.6508444  3
   6694   6712   6699   6698     1  180.0000771  0.4184000  2
   6694   6712   6699   6698     1  0.0000000  1.6024720  3
   6694   6712   6699   6703     1  0.0000000  1.6038667  3
   6695   6694   6705   6710     1  0.0000000  0.6508444  3
   6695   6694   6712   6699     1  180.0000771  0.4184000  2
   6695   6694   6712   6699     1  0.0000000  1.6024720  3
   6695   6697   6698   6699     1  180.0000771  0.8368000  1
   6695   6697   6698   6699     1  180.0000771  1.0460000  2
   6695   6697   6698   6699     1  0.0000000  0.7531200  3
   6695   6697   6698   6717     1  0.0000000  0.6508444  3
   6697   6695   6694   6705     1  180.0000771  0.8368000  1
   6697   6695   6694   6705     1  180.0000771  1.0460000  2
   6697   6695   6694   6705     1  0.0000000  0.7531200  3
   6697   6695   6694   6712     1  0.0000000  0.6508444  3
   6697   6698   6699   6703     1  0.0000000  0.6508444  3
   6697   6698   6699   6712     1  0.0000000  0.6508444  3
   6698   6697   6695   6715     1  0.0000000  0.6508444  3
   6699   6698   6697   6704     1  0.0000000  0.6508444  3
   6699   6712   6694   6705     1  180.0000771  0.4184000  2
   6699   6712   6694   6705     1  0.0000000  1.6024720  3
   6703   6699   6698   6717     1  0.0000000  0.6508444  3
   6704   6697   6695   6715     1  0.0000000  4.9162000  2
   6704   6697   6695   6715     1  0.0000000  0.6024960  3
   6704   6697   6698   6717     1  0.0000000  0.6508444  3
   6705   6694   6695   6715     1  0.0000000  0.6508444  3
   6710   6705   6694   6712     1  0.0000000  4.9162000  2
   6710   6705   6694   6712     1  0.0000000  0.6024960  3
   6712   6694   6695   6715     1  0.0000000  4.9162000  2
   6712   6694   6695   6715     1  0.0000000  0.6024960  3
   6712   6699   6698   6717     1  0.0000000  0.6508444  3
   6718   6720   6722   6726     1  0.0000000  0.6508444  3
   6720   6722   6726   6727     1  180.0000771  2.0083200  2
   6720   6722   6726   6727     1  0.0000000  1.2552000  3
   6720   6722   6726   6728     1  180.0000771  2.0083200  2
   6720   6722   6726   6728     1  0.0000000  1.2552000  3
   6722   6726   6727   6738     1  180.0000771  2.0083200  2
   6722   6726   6727   6738     1  0.0000000  1.2552000  3
   6722   6726   6728   6730     1  180.0000771  2.0083200  2
   6722   6726   6728   6730     1  0.0000000  1.2552000  3
   6726   6727   6738   6741     1  0.0000000  0.6508444  3
   6726   6728   6730   6734     1  0.0000000  0.6508444  3
   6727   6738   6741   6742     1  180.0000771  0.0000000  2
   6727   6738   6741   6790     1  180.0000771  0.0000000  2
   6727   6726   6728   6730     1  180.0000771  2.0083200  2
   6727   6726   6728   6730     1  0.0000000  1.2552000  3
   6728   6730   6734   6735     1  180.0000771  0.0000000  2
   6728   6730   6734   6766     1  180.0000771  0.0000000  2
   6728   6726   6727   6738     1  180.0000771  2.0083200  2
   6728   6726   6727   6738     1  0.0000000  1.2552000  3
   6730   6734   6766   6747     1  180.0000771  6.0668000  2
   6730   6734   6766   6747     1  180.0000771  1.4644000  4
   6734   6766   6747   6748     1  0.0000000  1.2552000  3
   6734   6766   6747   6746     1  0.0000000  1.2552000  3
   6735   6734   6766   6747     1  180.0000771  6.0668000  2
   6735   6734   6766   6747     1  180.0000771  1.4644000  4
   6738   6741   6790   6771     1  180.0000771  6.0668000  2
   6738   6741   6790   6771     1  180.0000771  1.4644000  4
   6741   6790   6771   6772     1  0.0000000  1.2552000  3
   6741   6790   6771   6770     1  0.0000000  1.2552000  3
   6742   6741   6790   6771     1  180.0000771  6.0668000  2
   6742   6741   6790   6771     1  180.0000771  1.4644000  4
   6743   6744   6746   6747     1  180.0000771  0.8368000  1
   6743   6744   6746   6747     1  180.0000771  1.0460000  2
   6743   6744   6746   6747     1  0.0000000  0.7531200  3
   6743   6744   6746   6753     1  0.0000000  0.6508444  3
   6743   6761   6748   6752     1  0.0000000  1.6038667  3
   6743   6761   6748   6747     1  180.0000771  0.4184000  2
   6743   6761   6748   6747     1  0.0000000  1.6024720  3
   6744   6746   6747   6748     1  180.0000771  0.8368000  1
   6744   6746   6747   6748     1  180.0000771  1.0460000  2
   6744   6746   6747   6748     1  0.0000000  0.7531200  3
   6744   6746   6747   6766     1  0.0000000  0.6508444  3
   6744   6743   6754   6759     1  0.0000000  0.6508444  3
   6744   6743   6761   6748     1  180.0000771  0.4184000  2
   6744   6743   6761   6748     1  0.0000000  1.6024720  3
   6746   6747   6748   6752     1  0.0000000  0.6508444  3
   6746   6747   6748   6761     1  0.0000000  0.6508444  3
   6746   6744   6743   6754     1  180.0000771  0.8368000  1
   6746   6744   6743   6754     1  180.0000771  1.0460000  2
   6746   6744   6743   6754     1  0.0000000  0.7531200  3
   6746   6744   6743   6761     1  0.0000000  0.6508444  3
   6747   6746   6744   6764     1  0.0000000  0.6508444  3
   6748   6761   6743   6754     1  180.0000771  0.4184000  2
   6748   6761   6743   6754     1  0.0000000  1.6024720  3
   6748   6747   6746   6753     1  0.0000000  0.6508444  3
   6752   6748   6747   6766     1  0.0000000  0.6508444  3
   6753   6746   6747   6766     1  0.0000000  0.6508444  3
   6753   6746   6744   6764     1  0.0000000  4.9162000  2
   6753   6746   6744   6764     1  0.0000000  0.6024960  3
   6754   6743   6744   6764     1  0.0000000  0.6508444  3
   6759   6754   6743   6761     1  0.0000000  4.9162000  2
   6759   6754   6743   6761     1  0.0000000  0.6024960  3
   6761   6748   6747   6766     1  0.0000000  0.6508444  3
   6761   6743   6744   6764     1  0.0000000  4.9162000  2
   6761   6743   6744   6764     1  0.0000000  0.6024960  3
   6767   6768   6770   6771     1  180.0000771  0.8368000  1
   6767   6768   6770   6771     1  180.0000771  1.0460000  2
   6767   6768   6770   6771     1  0.0000000  0.7531200  3
   6767   6768   6770   6777     1  0.0000000  0.6508444  3
   6767   6785   6772   6776     1  0.0000000  1.6038667  3
   6767   6785   6772   6771     1  180.0000771  0.4184000  2
   6767   6785   6772   6771     1  0.0000000  1.6024720  3
   6768   6770   6771   6772     1  180.0000771  0.8368000  1
   6768   6770   6771   6772     1  180.0000771  1.0460000  2
   6768   6770   6771   6772     1  0.0000000  0.7531200  3
   6768   6770   6771   6790     1  0.0000000  0.6508444  3
   6768   6767   6778   6783     1  0.0000000  0.6508444  3
   6768   6767   6785   6772     1  180.0000771  0.4184000  2
   6768   6767   6785   6772     1  0.0000000  1.6024720  3
   6770   6771   6772   6776     1  0.0000000  0.6508444  3
   6770   6771   6772   6785     1  0.0000000  0.6508444  3
   6770   6768   6767   6778     1  180.0000771  0.8368000  1
   6770   6768   6767   6778     1  180.0000771  1.0460000  2
   6770   6768   6767   6778     1  0.0000000  0.7531200  3
   6770   6768   6767   6785     1  0.0000000  0.6508444  3
   6771   6770   6768   6788     1  0.0000000  0.6508444  3
   6772   6785   6767   6778     1  180.0000771  0.4184000  2
   6772   6785   6767   6778     1  0.0000000  1.6024720  3
   6772   6771   6770   6777     1  0.0000000  0.6508444  3
   6776   6772   6771   6790     1  0.0000000  0.6508444  3
   6777   6770   6771   6790     1  0.0000000  0.6508444  3
   6777   6770   6768   6788     1  0.0000000  4.9162000  2
   6777   6770   6768   6788     1  0.0000000  0.6024960  3
   6778   6767   6768   6788     1  0.0000000  0.6508444  3
   6783   6778   6767   6785     1  0.0000000  4.9162000  2
   6783   6778   6767   6785     1  0.0000000  0.6024960  3
   6785   6772   6771   6790     1  0.0000000  0.6508444  3
   6785   6767   6768   6788     1  0.0000000  4.9162000  2
   6785   6767   6768   6788     1  0.0000000  0.6024960  3
   6791   6793   6795   6799     1  0.0000000  0.6508444  3
   6793   6795   6799   6800     1  180.0000771  2.0083200  2
   6793   6795   6799   6800     1  0.0000000  1.2552000  3
   6793   6795   6799   6801     1  180.0000771  2.0083200  2
   6793   6795   6799   6801     1  0.0000000  1.2552000  3
   6795   6799   6800   6811     1  180.0000771  2.0083200  2
   6795   6799   6800   6811     1  0.0000000  1.2552000  3
   6795   6799   6801   6803     1  180.0000771  2.0083200  2
   6795   6799   6801   6803     1  0.0000000  1.2552000  3
   6799   6800   6811   6814     1  0.0000000  0.6508444  3
   6799   6801   6803   6807     1  0.0000000  0.6508444  3
   6800   6799   6801   6803     1  180.0000771  2.0083200  2
   6800   6799   6801   6803     1  0.0000000  1.2552000  3
   6800   6811   6814   6815     1  180.0000771  0.0000000  2
   6800   6811   6814   6863     1  180.0000771  0.0000000  2
   6801   6799   6800   6811     1  180.0000771  2.0083200  2
   6801   6799   6800   6811     1  0.0000000  1.2552000  3
   6801   6803   6807   6808     1  180.0000771  0.0000000  2
   6801   6803   6807   6839     1  180.0000771  0.0000000  2
   6803   6807   6839   6820     1  180.0000771  6.0668000  2
   6803   6807   6839   6820     1  180.0000771  1.4644000  4
   6807   6839   6820   6819     1  0.0000000  1.2552000  3
   6807   6839   6820   6821     1  0.0000000  1.2552000  3
   6808   6807   6839   6820     1  180.0000771  6.0668000  2
   6808   6807   6839   6820     1  180.0000771  1.4644000  4
   6811   6814   6863   6844     1  180.0000771  6.0668000  2
   6811   6814   6863   6844     1  180.0000771  1.4644000  4
   6814   6863   6844   6843     1  0.0000000  1.2552000  3
   6814   6863   6844   6845     1  0.0000000  1.2552000  3
   6815   6814   6863   6844     1  180.0000771  6.0668000  2
   6815   6814   6863   6844     1  180.0000771  1.4644000  4
   6816   6817   6819   6820     1  180.0000771  0.8368000  1
   6816   6817   6819   6820     1  180.0000771  1.0460000  2
   6816   6817   6819   6820     1  0.0000000  0.7531200  3
   6816   6817   6819   6826     1  0.0000000  0.6508444  3
   6816   6834   6821   6820     1  180.0000771  0.4184000  2
   6816   6834   6821   6820     1  0.0000000  1.6024720  3
   6816   6834   6821   6825     1  0.0000000  1.6038667  3
   6817   6816   6827   6832     1  0.0000000  0.6508444  3
   6817   6816   6834   6821     1  180.0000771  0.4184000  2
   6817   6816   6834   6821     1  0.0000000  1.6024720  3
   6817   6819   6820   6821     1  180.0000771  0.8368000  1
   6817   6819   6820   6821     1  180.0000771  1.0460000  2
   6817   6819   6820   6821     1  0.0000000  0.7531200  3
   6817   6819   6820   6839     1  0.0000000  0.6508444  3
   6819   6817   6816   6827     1  180.0000771  0.8368000  1
   6819   6817   6816   6827     1  180.0000771  1.0460000  2
   6819   6817   6816   6827     1  0.0000000  0.7531200  3
   6819   6817   6816   6834     1  0.0000000  0.6508444  3
   6819   6820   6821   6825     1  0.0000000  0.6508444  3
   6819   6820   6821   6834     1  0.0000000  0.6508444  3
   6820   6819   6817   6837     1  0.0000000  0.6508444  3
   6821   6820   6819   6826     1  0.0000000  0.6508444  3
   6821   6834   6816   6827     1  180.0000771  0.4184000  2
   6821   6834   6816   6827     1  0.0000000  1.6024720  3
   6825   6821   6820   6839     1  0.0000000  0.6508444  3
   6826   6819   6817   6837     1  0.0000000  4.9162000  2
   6826   6819   6817   6837     1  0.0000000  0.6024960  3
   6826   6819   6820   6839     1  0.0000000  0.6508444  3
   6827   6816   6817   6837     1  0.0000000  0.6508444  3
   6832   6827   6816   6834     1  0.0000000  4.9162000  2
   6832   6827   6816   6834     1  0.0000000  0.6024960  3
   6834   6816   6817   6837     1  0.0000000  4.9162000  2
   6834   6816   6817   6837     1  0.0000000  0.6024960  3
   6834   6821   6820   6839     1  0.0000000  0.6508444  3
   6840   6841   6843   6844     1  180.0000771  0.8368000  1
   6840   6841   6843   6844     1  180.0000771  1.0460000  2
   6840   6841   6843   6844     1  0.0000000  0.7531200  3
   6840   6841   6843   6850     1  0.0000000  0.6508444  3
   6840   6858   6845   6844     1  180.0000771  0.4184000  2
   6840   6858   6845   6844     1  0.0000000  1.6024720  3
   6840   6858   6845   6849     1  0.0000000  1.6038667  3
   6841   6840   6851   6856     1  0.0000000  0.6508444  3
   6841   6840   6858   6845     1  180.0000771  0.4184000  2
   6841   6840   6858   6845     1  0.0000000  1.6024720  3
   6841   6843   6844   6845     1  180.0000771  0.8368000  1
   6841   6843   6844   6845     1  180.0000771  1.0460000  2
   6841   6843   6844   6845     1  0.0000000  0.7531200  3
   6841   6843   6844   6863     1  0.0000000  0.6508444  3
   6843   6841   6840   6851     1  180.0000771  0.8368000  1
   6843   6841   6840   6851     1  180.0000771  1.0460000  2
   6843   6841   6840   6851     1  0.0000000  0.7531200  3
   6843   6841   6840   6858     1  0.0000000  0.6508444  3
   6843   6844   6845   6849     1  0.0000000  0.6508444  3
   6843   6844   6845   6858     1  0.0000000  0.6508444  3
   6844   6843   6841   6861     1  0.0000000  0.6508444  3
   6845   6844   6843   6850     1  0.0000000  0.6508444  3
   6845   6858   6840   6851     1  180.0000771  0.4184000  2
   6845   6858   6840   6851     1  0.0000000  1.6024720  3
   6849   6845   6844   6863     1  0.0000000  0.6508444  3
   6850   6843   6841   6861     1  0.0000000  4.9162000  2
   6850   6843   6841   6861     1  0.0000000  0.6024960  3
   6850   6843   6844   6863     1  0.0000000  0.6508444  3
   6851   6840   6841   6861     1  0.0000000  0.6508444  3
   6856   6851   6840   6858     1  0.0000000  4.9162000  2
   6856   6851   6840   6858     1  0.0000000  0.6024960  3
   6858   6840   6841   6861     1  0.0000000  4.9162000  2
   6858   6840   6841   6861     1  0.0000000  0.6024960  3
   6858   6845   6844   6863     1  0.0000000  0.6508444  3
   6864   6866   6868   6872     1  0.0000000  0.6508444  3
   6866   6868   6872   6873     1  180.0000771  2.0083200  2
   6866   6868   6872   6873     1  0.0000000  1.2552000  3
   6866   6868   6872   6874     1  180.0000771  2.0083200  2
   6866   6868   6872   6874     1  0.0000000  1.2552000  3
   6868   6872   6873   6884     1  180.0000771  2.0083200  2
   6868   6872   6873   6884     1  0.0000000  1.2552000  3
   6868   6872   6874   6876     1  180.0000771  2.0083200  2
   6868   6872   6874   6876     1  0.0000000  1.2552000  3
   6872   6873   6884   6887     1  0.0000000  0.6508444  3
   6872   6874   6876   6880     1  0.0000000  0.6508444  3
   6873   6884   6887   6888     1  180.0000771  0.0000000  2
   6873   6884   6887   6936     1  180.0000771  0.0000000  2
   6873   6872   6874   6876     1  180.0000771  2.0083200  2
   6873   6872   6874   6876     1  0.0000000  1.2552000  3
   6874   6876   6880   6881     1  180.0000771  0.0000000  2
   6874   6876   6880   6912     1  180.0000771  0.0000000  2
   6874   6872   6873   6884     1  180.0000771  2.0083200  2
   6874   6872   6873   6884     1  0.0000000  1.2552000  3
   6876   6880   6912   6893     1  180.0000771  6.0668000  2
   6876   6880   6912   6893     1  180.0000771  1.4644000  4
   6880   6912   6893   6894     1  0.0000000  1.2552000  3
   6880   6912   6893   6892     1  0.0000000  1.2552000  3
   6881   6880   6912   6893     1  180.0000771  6.0668000  2
   6881   6880   6912   6893     1  180.0000771  1.4644000  4
   6884   6887   6936   6917     1  180.0000771  6.0668000  2
   6884   6887   6936   6917     1  180.0000771  1.4644000  4
   6887   6936   6917   6918     1  0.0000000  1.2552000  3
   6887   6936   6917   6916     1  0.0000000  1.2552000  3
   6888   6887   6936   6917     1  180.0000771  6.0668000  2
   6888   6887   6936   6917     1  180.0000771  1.4644000  4
   6889   6890   6892   6893     1  180.0000771  0.8368000  1
   6889   6890   6892   6893     1  180.0000771  1.0460000  2
   6889   6890   6892   6893     1  0.0000000  0.7531200  3
   6889   6890   6892   6899     1  0.0000000  0.6508444  3
   6889   6907   6894   6898     1  0.0000000  1.6038667  3
   6889   6907   6894   6893     1  180.0000771  0.4184000  2
   6889   6907   6894   6893     1  0.0000000  1.6024720  3
   6890   6892   6893   6894     1  180.0000771  0.8368000  1
   6890   6892   6893   6894     1  180.0000771  1.0460000  2
   6890   6892   6893   6894     1  0.0000000  0.7531200  3
   6890   6892   6893   6912     1  0.0000000  0.6508444  3
   6890   6889   6900   6905     1  0.0000000  0.6508444  3
   6890   6889   6907   6894     1  180.0000771  0.4184000  2
   6890   6889   6907   6894     1  0.0000000  1.6024720  3
   6892   6893   6894   6898     1  0.0000000  0.6508444  3
   6892   6893   6894   6907     1  0.0000000  0.6508444  3
   6892   6890   6889   6900     1  180.0000771  0.8368000  1
   6892   6890   6889   6900     1  180.0000771  1.0460000  2
   6892   6890   6889   6900     1  0.0000000  0.7531200  3
   6892   6890   6889   6907     1  0.0000000  0.6508444  3
   6893   6892   6890   6910     1  0.0000000  0.6508444  3
   6894   6907   6889   6900     1  180.0000771  0.4184000  2
   6894   6907   6889   6900     1  0.0000000  1.6024720  3
   6894   6893   6892   6899     1  0.0000000  0.6508444  3
   6898   6894   6893   6912     1  0.0000000  0.6508444  3
   6899   6892   6893   6912     1  0.0000000  0.6508444  3
   6899   6892   6890   6910     1  0.0000000  4.9162000  2
   6899   6892   6890   6910     1  0.0000000  0.6024960  3
   6900   6889   6890   6910     1  0.0000000  0.6508444  3
   6905   6900   6889   6907     1  0.0000000  4.9162000  2
   6905   6900   6889   6907     1  0.0000000  0.6024960  3
   6907   6894   6893   6912     1  0.0000000  0.6508444  3
   6907   6889   6890   6910     1  0.0000000  4.9162000  2
   6907   6889   6890   6910     1  0.0000000  0.6024960  3
   6913   6914   6916   6917     1  180.0000771  0.8368000  1
   6913   6914   6916   6917     1  180.0000771  1.0460000  2
   6913   6914   6916   6917     1  0.0000000  0.7531200  3
   6913   6914   6916   6923     1  0.0000000  0.6508444  3
   6913   6931   6918   6922     1  0.0000000  1.6038667  3
   6913   6931   6918   6917     1  180.0000771  0.4184000  2
   6913   6931   6918   6917     1  0.0000000  1.6024720  3
   6914   6916   6917   6918     1  180.0000771  0.8368000  1
   6914   6916   6917   6918     1  180.0000771  1.0460000  2
   6914   6916   6917   6918     1  0.0000000  0.7531200  3
   6914   6916   6917   6936     1  0.0000000  0.6508444  3
   6914   6913   6924   6929     1  0.0000000  0.6508444  3
   6914   6913   6931   6918     1  180.0000771  0.4184000  2
   6914   6913   6931   6918     1  0.0000000  1.6024720  3
   6916   6917   6918   6922     1  0.0000000  0.6508444  3
   6916   6917   6918   6931     1  0.0000000  0.6508444  3
   6916   6914   6913   6924     1  180.0000771  0.8368000  1
   6916   6914   6913   6924     1  180.0000771  1.0460000  2
   6916   6914   6913   6924     1  0.0000000  0.7531200  3
   6916   6914   6913   6931     1  0.0000000  0.6508444  3
   6917   6916   6914   6934     1  0.0000000  0.6508444  3
   6918   6931   6913   6924     1  180.0000771  0.4184000  2
   6918   6931   6913   6924     1  0.0000000  1.6024720  3
   6918   6917   6916   6923     1  0.0000000  0.6508444  3
   6922   6918   6917   6936     1  0.0000000  0.6508444  3
   6923   6916   6917   6936     1  0.0000000  0.6508444  3
   6923   6916   6914   6934     1  0.0000000  4.9162000  2
   6923   6916   6914   6934     1  0.0000000  0.6024960  3
   6924   6913   6914   6934     1  0.0000000  0.6508444  3
   6929   6924   6913   6931     1  0.0000000  4.9162000  2
   6929   6924   6913   6931     1  0.0000000  0.6024960  3
   6931   6918   6917   6936     1  0.0000000  0.6508444  3
   6931   6913   6914   6934     1  0.0000000  4.9162000  2
   6931   6913   6914   6934     1  0.0000000  0.6024960  3
   6937   6939   6941   6945     1  0.0000000  0.6508444  3
   6939   6941   6945   6946     1  180.0000771  2.0083200  2
   6939   6941   6945   6946     1  0.0000000  1.2552000  3
   6939   6941   6945   6947     1  180.0000771  2.0083200  2
   6939   6941   6945   6947     1  0.0000000  1.2552000  3
   6941   6945   6946   6957     1  180.0000771  2.0083200  2
   6941   6945   6946   6957     1  0.0000000  1.2552000  3
   6941   6945   6947   6949     1  180.0000771  2.0083200  2
   6941   6945   6947   6949     1  0.0000000  1.2552000  3
   6945   6946   6957   6960     1  0.0000000  0.6508444  3
   6945   6947   6949   6953     1  0.0000000  0.6508444  3
   6946   6945   6947   6949     1  180.0000771  2.0083200  2
   6946   6945   6947   6949     1  0.0000000  1.2552000  3
   6946   6957   6960   6961     1  180.0000771  0.0000000  2
   6946   6957   6960   7009     1  180.0000771  0.0000000  2
   6947   6945   6946   6957     1  180.0000771  2.0083200  2
   6947   6945   6946   6957     1  0.0000000  1.2552000  3
   6947   6949   6953   6954     1  180.0000771  0.0000000  2
   6947   6949   6953   6985     1  180.0000771  0.0000000  2
   6949   6953   6985   6966     1  180.0000771  6.0668000  2
   6949   6953   6985   6966     1  180.0000771  1.4644000  4
   6953   6985   6966   6965     1  0.0000000  1.2552000  3
   6953   6985   6966   6967     1  0.0000000  1.2552000  3
   6954   6953   6985   6966     1  180.0000771  6.0668000  2
   6954   6953   6985   6966     1  180.0000771  1.4644000  4
   6957   6960   7009   6990     1  180.0000771  6.0668000  2
   6957   6960   7009   6990     1  180.0000771  1.4644000  4
   6960   7009   6990   6989     1  0.0000000  1.2552000  3
   6960   7009   6990   6991     1  0.0000000  1.2552000  3
   6961   6960   7009   6990     1  180.0000771  6.0668000  2
   6961   6960   7009   6990     1  180.0000771  1.4644000  4
   6962   6963   6965   6966     1  180.0000771  0.8368000  1
   6962   6963   6965   6966     1  180.0000771  1.0460000  2
   6962   6963   6965   6966     1  0.0000000  0.7531200  3
   6962   6963   6965   6972     1  0.0000000  0.6508444  3
   6962   6980   6967   6966     1  180.0000771  0.4184000  2
   6962   6980   6967   6966     1  0.0000000  1.6024720  3
   6962   6980   6967   6971     1  0.0000000  1.6038667  3
   6963   6962   6973   6978     1  0.0000000  0.6508444  3
   6963   6962   6980   6967     1  180.0000771  0.4184000  2
   6963   6962   6980   6967     1  0.0000000  1.6024720  3
   6963   6965   6966   6967     1  180.0000771  0.8368000  1
   6963   6965   6966   6967     1  180.0000771  1.0460000  2
   6963   6965   6966   6967     1  0.0000000  0.7531200  3
   6963   6965   6966   6985     1  0.0000000  0.6508444  3
   6965   6963   6962   6973     1  180.0000771  0.8368000  1
   6965   6963   6962   6973     1  180.0000771  1.0460000  2
   6965   6963   6962   6973     1  0.0000000  0.7531200  3
   6965   6963   6962   6980     1  0.0000000  0.6508444  3
   6965   6966   6967   6971     1  0.0000000  0.6508444  3
   6965   6966   6967   6980     1  0.0000000  0.6508444  3
   6966   6965   6963   6983     1  0.0000000  0.6508444  3
   6967   6966   6965   6972     1  0.0000000  0.6508444  3
   6967   6980   6962   6973     1  180.0000771  0.4184000  2
   6967   6980   6962   6973     1  0.0000000  1.6024720  3
   6971   6967   6966   6985     1  0.0000000  0.6508444  3
   6972   6965   6963   6983     1  0.0000000  4.9162000  2
   6972   6965   6963   6983     1  0.0000000  0.6024960  3
   6972   6965   6966   6985     1  0.0000000  0.6508444  3
   6973   6962   6963   6983     1  0.0000000  0.6508444  3
   6978   6973   6962   6980     1  0.0000000  4.9162000  2
   6978   6973   6962   6980     1  0.0000000  0.6024960  3
   6980   6962   6963   6983     1  0.0000000  4.9162000  2
   6980   6962   6963   6983     1  0.0000000  0.6024960  3
   6980   6967   6966   6985     1  0.0000000  0.6508444  3
   6986   6987   6989   6990     1  180.0000771  0.8368000  1
   6986   6987   6989   6990     1  180.0000771  1.0460000  2
   6986   6987   6989   6990     1  0.0000000  0.7531200  3
   6986   6987   6989   6996     1  0.0000000  0.6508444  3
   6986   7004   6991   6990     1  180.0000771  0.4184000  2
   6986   7004   6991   6990     1  0.0000000  1.6024720  3
   6986   7004   6991   6995     1  0.0000000  1.6038667  3
   6987   6986   6997   7002     1  0.0000000  0.6508444  3
   6987   6986   7004   6991     1  180.0000771  0.4184000  2
   6987   6986   7004   6991     1  0.0000000  1.6024720  3
   6987   6989   6990   6991     1  180.0000771  0.8368000  1
   6987   6989   6990   6991     1  180.0000771  1.0460000  2
   6987   6989   6990   6991     1  0.0000000  0.7531200  3
   6987   6989   6990   7009     1  0.0000000  0.6508444  3
   6989   6987   6986   6997     1  180.0000771  0.8368000  1
   6989   6987   6986   6997     1  180.0000771  1.0460000  2
   6989   6987   6986   6997     1  0.0000000  0.7531200  3
   6989   6987   6986   7004     1  0.0000000  0.6508444  3
   6989   6990   6991   6995     1  0.0000000  0.6508444  3
   6989   6990   6991   7004     1  0.0000000  0.6508444  3
   6990   6989   6987   7007     1  0.0000000  0.6508444  3
   6991   6990   6989   6996     1  0.0000000  0.6508444  3
   6991   7004   6986   6997     1  180.0000771  0.4184000  2
   6991   7004   6986   6997     1  0.0000000  1.6024720  3
   6995   6991   6990   7009     1  0.0000000  0.6508444  3
   6996   6989   6987   7007     1  0.0000000  4.9162000  2
   6996   6989   6987   7007     1  0.0000000  0.6024960  3
   6996   6989   6990   7009     1  0.0000000  0.6508444  3
   6997   6986   6987   7007     1  0.0000000  0.6508444  3
   7002   6997   6986   7004     1  0.0000000  4.9162000  2
   7002   6997   6986   7004     1  0.0000000  0.6024960  3
   7004   6986   6987   7007     1  0.0000000  4.9162000  2
   7004   6986   6987   7007     1  0.0000000  0.6024960  3
   7004   6991   6990   7009     1  0.0000000  0.6508444  3
   7010   7012   7014   7018     1  0.0000000  0.6508444  3
   7012   7014   7018   7019     1  180.0000771  2.0083200  2
   7012   7014   7018   7019     1  0.0000000  1.2552000  3
   7012   7014   7018   7020     1  180.0000771  2.0083200  2
   7012   7014   7018   7020     1  0.0000000  1.2552000  3
   7014   7018   7019   7030     1  180.0000771  2.0083200  2
   7014   7018   7019   7030     1  0.0000000  1.2552000  3
   7014   7018   7020   7022     1  180.0000771  2.0083200  2
   7014   7018   7020   7022     1  0.0000000  1.2552000  3
   7018   7019   7030   7033     1  0.0000000  0.6508444  3
   7018   7020   7022   7026     1  0.0000000  0.6508444  3
   7019   7030   7033   7034     1  180.0000771  0.0000000  2
   7019   7030   7033   7082     1  180.0000771  0.0000000  2
   7019   7018   7020   7022     1  180.0000771  2.0083200  2
   7019   7018   7020   7022     1  0.0000000  1.2552000  3
   7020   7022   7026   7027     1  180.0000771  0.0000000  2
   7020   7022   7026   7058     1  180.0000771  0.0000000  2
   7020   7018   7019   7030     1  180.0000771  2.0083200  2
   7020   7018   7019   7030     1  0.0000000  1.2552000  3
   7022   7026   7058   7039     1  180.0000771  6.0668000  2
   7022   7026   7058   7039     1  180.0000771  1.4644000  4
   7026   7058   7039   7040     1  0.0000000  1.2552000  3
   7026   7058   7039   7038     1  0.0000000  1.2552000  3
   7027   7026   7058   7039     1  180.0000771  6.0668000  2
   7027   7026   7058   7039     1  180.0000771  1.4644000  4
   7030   7033   7082   7063     1  180.0000771  6.0668000  2
   7030   7033   7082   7063     1  180.0000771  1.4644000  4
   7033   7082   7063   7064     1  0.0000000  1.2552000  3
   7033   7082   7063   7062     1  0.0000000  1.2552000  3
   7034   7033   7082   7063     1  180.0000771  6.0668000  2
   7034   7033   7082   7063     1  180.0000771  1.4644000  4
   7035   7036   7038   7039     1  180.0000771  0.8368000  1
   7035   7036   7038   7039     1  180.0000771  1.0460000  2
   7035   7036   7038   7039     1  0.0000000  0.7531200  3
   7035   7036   7038   7045     1  0.0000000  0.6508444  3
   7035   7053   7040   7044     1  0.0000000  1.6038667  3
   7035   7053   7040   7039     1  180.0000771  0.4184000  2
   7035   7053   7040   7039     1  0.0000000  1.6024720  3
   7036   7038   7039   7040     1  180.0000771  0.8368000  1
   7036   7038   7039   7040     1  180.0000771  1.0460000  2
   7036   7038   7039   7040     1  0.0000000  0.7531200  3
   7036   7038   7039   7058     1  0.0000000  0.6508444  3
   7036   7035   7046   7051     1  0.0000000  0.6508444  3
   7036   7035   7053   7040     1  180.0000771  0.4184000  2
   7036   7035   7053   7040     1  0.0000000  1.6024720  3
   7038   7039   7040   7044     1  0.0000000  0.6508444  3
   7038   7039   7040   7053     1  0.0000000  0.6508444  3
   7038   7036   7035   7046     1  180.0000771  0.8368000  1
   7038   7036   7035   7046     1  180.0000771  1.0460000  2
   7038   7036   7035   7046     1  0.0000000  0.7531200  3
   7038   7036   7035   7053     1  0.0000000  0.6508444  3
   7039   7038   7036   7056     1  0.0000000  0.6508444  3
   7040   7053   7035   7046     1  180.0000771  0.4184000  2
   7040   7053   7035   7046     1  0.0000000  1.6024720  3
   7040   7039   7038   7045     1  0.0000000  0.6508444  3
   7044   7040   7039   7058     1  0.0000000  0.6508444  3
   7045   7038   7039   7058     1  0.0000000  0.6508444  3
   7045   7038   7036   7056     1  0.0000000  4.9162000  2
   7045   7038   7036   7056     1  0.0000000  0.6024960  3
   7046   7035   7036   7056     1  0.0000000  0.6508444  3
   7051   7046   7035   7053     1  0.0000000  4.9162000  2
   7051   7046   7035   7053     1  0.0000000  0.6024960  3
   7053   7040   7039   7058     1  0.0000000  0.6508444  3
   7053   7035   7036   7056     1  0.0000000  4.9162000  2
   7053   7035   7036   7056     1  0.0000000  0.6024960  3
   7059   7060   7062   7063     1  180.0000771  0.8368000  1
   7059   7060   7062   7063     1  180.0000771  1.0460000  2
   7059   7060   7062   7063     1  0.0000000  0.7531200  3
   7059   7060   7062   7069     1  0.0000000  0.6508444  3
   7059   7077   7064   7068     1  0.0000000  1.6038667  3
   7059   7077   7064   7063     1  180.0000771  0.4184000  2
   7059   7077   7064   7063     1  0.0000000  1.6024720  3
   7060   7062   7063   7064     1  180.0000771  0.8368000  1
   7060   7062   7063   7064     1  180.0000771  1.0460000  2
   7060   7062   7063   7064     1  0.0000000  0.7531200  3
   7060   7062   7063   7082     1  0.0000000  0.6508444  3
   7060   7059   7070   7075     1  0.0000000  0.6508444  3
   7060   7059   7077   7064     1  180.0000771  0.4184000  2
   7060   7059   7077   7064     1  0.0000000  1.6024720  3
   7062   7063   7064   7068     1  0.0000000  0.6508444  3
   7062   7063   7064   7077     1  0.0000000  0.6508444  3
   7062   7060   7059   7070     1  180.0000771  0.8368000  1
   7062   7060   7059   7070     1  180.0000771  1.0460000  2
   7062   7060   7059   7070     1  0.0000000  0.7531200  3
   7062   7060   7059   7077     1  0.0000000  0.6508444  3
   7063   7062   7060   7080     1  0.0000000  0.6508444  3
   7064   7077   7059   7070     1  180.0000771  0.4184000  2
   7064   7077   7059   7070     1  0.0000000  1.6024720  3
   7064   7063   7062   7069     1  0.0000000  0.6508444  3
   7068   7064   7063   7082     1  0.0000000  0.6508444  3
   7069   7062   7063   7082     1  0.0000000  0.6508444  3
   7069   7062   7060   7080     1  0.0000000  4.9162000  2
   7069   7062   7060   7080     1  0.0000000  0.6024960  3
   7070   7059   7060   7080     1  0.0000000  0.6508444  3
   7075   7070   7059   7077     1  0.0000000  4.9162000  2
   7075   7070   7059   7077     1  0.0000000  0.6024960  3
   7077   7064   7063   7082     1  0.0000000  0.6508444  3
   7077   7059   7060   7080     1  0.0000000  4.9162000  2
   7077   7059   7060   7080     1  0.0000000  0.6024960  3
   7083   7085   7087   7091     1  0.0000000  0.6508444  3
   7085   7087   7091   7092     1  180.0000771  2.0083200  2
   7085   7087   7091   7092     1  0.0000000  1.2552000  3
   7085   7087   7091   7093     1  180.0000771  2.0083200  2
   7085   7087   7091   7093     1  0.0000000  1.2552000  3
   7087   7091   7092   7103     1  180.0000771  2.0083200  2
   7087   7091   7092   7103     1  0.0000000  1.2552000  3
   7087   7091   7093   7095     1  180.0000771  2.0083200  2
   7087   7091   7093   7095     1  0.0000000  1.2552000  3
   7091   7092   7103   7106     1  0.0000000  0.6508444  3
   7091   7093   7095   7099     1  0.0000000  0.6508444  3
   7092   7091   7093   7095     1  180.0000771  2.0083200  2
   7092   7091   7093   7095     1  0.0000000  1.2552000  3
   7092   7103   7106   7107     1  180.0000771  0.0000000  2
   7092   7103   7106   7155     1  180.0000771  0.0000000  2
   7093   7091   7092   7103     1  180.0000771  2.0083200  2
   7093   7091   7092   7103     1  0.0000000  1.2552000  3
   7093   7095   7099   7100     1  180.0000771  0.0000000  2
   7093   7095   7099   7131     1  180.0000771  0.0000000  2
   7095   7099   7131   7112     1  180.0000771  6.0668000  2
   7095   7099   7131   7112     1  180.0000771  1.4644000  4
   7099   7131   7112   7111     1  0.0000000  1.2552000  3
   7099   7131   7112   7113     1  0.0000000  1.2552000  3
   7100   7099   7131   7112     1  180.0000771  6.0668000  2
   7100   7099   7131   7112     1  180.0000771  1.4644000  4
   7103   7106   7155   7136     1  180.0000771  6.0668000  2
   7103   7106   7155   7136     1  180.0000771  1.4644000  4
   7106   7155   7136   7135     1  0.0000000  1.2552000  3
   7106   7155   7136   7137     1  0.0000000  1.2552000  3
   7107   7106   7155   7136     1  180.0000771  6.0668000  2
   7107   7106   7155   7136     1  180.0000771  1.4644000  4
   7108   7109   7111   7112     1  180.0000771  0.8368000  1
   7108   7109   7111   7112     1  180.0000771  1.0460000  2
   7108   7109   7111   7112     1  0.0000000  0.7531200  3
   7108   7109   7111   7118     1  0.0000000  0.6508444  3
   7108   7126   7113   7112     1  180.0000771  0.4184000  2
   7108   7126   7113   7112     1  0.0000000  1.6024720  3
   7108   7126   7113   7117     1  0.0000000  1.6038667  3
   7109   7108   7119   7124     1  0.0000000  0.6508444  3
   7109   7108   7126   7113     1  180.0000771  0.4184000  2
   7109   7108   7126   7113     1  0.0000000  1.6024720  3
   7109   7111   7112   7113     1  180.0000771  0.8368000  1
   7109   7111   7112   7113     1  180.0000771  1.0460000  2
   7109   7111   7112   7113     1  0.0000000  0.7531200  3
   7109   7111   7112   7131     1  0.0000000  0.6508444  3
   7111   7109   7108   7119     1  180.0000771  0.8368000  1
   7111   7109   7108   7119     1  180.0000771  1.0460000  2
   7111   7109   7108   7119     1  0.0000000  0.7531200  3
   7111   7109   7108   7126     1  0.0000000  0.6508444  3
   7111   7112   7113   7117     1  0.0000000  0.6508444  3
   7111   7112   7113   7126     1  0.0000000  0.6508444  3
   7112   7111   7109   7129     1  0.0000000  0.6508444  3
   7113   7112   7111   7118     1  0.0000000  0.6508444  3
   7113   7126   7108   7119     1  180.0000771  0.4184000  2
   7113   7126   7108   7119     1  0.0000000  1.6024720  3
   7117   7113   7112   7131     1  0.0000000  0.6508444  3
   7118   7111   7109   7129     1  0.0000000  4.9162000  2
   7118   7111   7109   7129     1  0.0000000  0.6024960  3
   7118   7111   7112   7131     1  0.0000000  0.6508444  3
   7119   7108   7109   7129     1  0.0000000  0.6508444  3
   7124   7119   7108   7126     1  0.0000000  4.9162000  2
   7124   7119   7108   7126     1  0.0000000  0.6024960  3
   7126   7108   7109   7129     1  0.0000000  4.9162000  2
   7126   7108   7109   7129     1  0.0000000  0.6024960  3
   7126   7113   7112   7131     1  0.0000000  0.6508444  3
   7132   7133   7135   7136     1  180.0000771  0.8368000  1
   7132   7133   7135   7136     1  180.0000771  1.0460000  2
   7132   7133   7135   7136     1  0.0000000  0.7531200  3
   7132   7133   7135   7142     1  0.0000000  0.6508444  3
   7132   7150   7137   7136     1  180.0000771  0.4184000  2
   7132   7150   7137   7136     1  0.0000000  1.6024720  3
   7132   7150   7137   7141     1  0.0000000  1.6038667  3
   7133   7132   7143   7148     1  0.0000000  0.6508444  3
   7133   7132   7150   7137     1  180.0000771  0.4184000  2
   7133   7132   7150   7137     1  0.0000000  1.6024720  3
   7133   7135   7136   7137     1  180.0000771  0.8368000  1
   7133   7135   7136   7137     1  180.0000771  1.0460000  2
   7133   7135   7136   7137     1  0.0000000  0.7531200  3
   7133   7135   7136   7155     1  0.0000000  0.6508444  3
   7135   7133   7132   7143     1  180.0000771  0.8368000  1
   7135   7133   7132   7143     1  180.0000771  1.0460000  2
   7135   7133   7132   7143     1  0.0000000  0.7531200  3
   7135   7133   7132   7150     1  0.0000000  0.6508444  3
   7135   7136   7137   7141     1  0.0000000  0.6508444  3
   7135   7136   7137   7150     1  0.0000000  0.6508444  3
   7136   7135   7133   7153     1  0.0000000  0.6508444  3
   7137   7136   7135   7142     1  0.0000000  0.6508444  3
   7137   7150   7132   7143     1  180.0000771  0.4184000  2
   7137   7150   7132   7143     1  0.0000000  1.6024720  3
   7141   7137   7136   7155     1  0.0000000  0.6508444  3
   7142   7135   7133   7153     1  0.0000000  4.9162000  2
   7142   7135   7133   7153     1  0.0000000  0.6024960  3
   7142   7135   7136   7155     1  0.0000000  0.6508444  3
   7143   7132   7133   7153     1  0.0000000  0.6508444  3
   7148   7143   7132   7150     1  0.0000000  4.9162000  2
   7148   7143   7132   7150     1  0.0000000  0.6024960  3
   7150   7132   7133   7153     1  0.0000000  4.9162000  2
   7150   7132   7133   7153     1  0.0000000  0.6024960  3
   7150   7137   7136   7155     1  0.0000000  0.6508444  3
   7156   7158   7160   7164     1  0.0000000  0.6508444  3
   7158   7160   7164   7165     1  180.0000771  2.0083200  2
   7158   7160   7164   7165     1  0.0000000  1.2552000  3
   7158   7160   7164   7166     1  180.0000771  2.0083200  2
   7158   7160   7164   7166     1  0.0000000  1.2552000  3
   7160   7164   7165   7176     1  180.0000771  2.0083200  2
   7160   7164   7165   7176     1  0.0000000  1.2552000  3
   7160   7164   7166   7168     1  180.0000771  2.0083200  2
   7160   7164   7166   7168     1  0.0000000  1.2552000  3
   7164   7165   7176   7179     1  0.0000000  0.6508444  3
   7164   7166   7168   7172     1  0.0000000  0.6508444  3
   7165   7176   7179   7180     1  180.0000771  0.0000000  2
   7165   7176   7179   7228     1  180.0000771  0.0000000  2
   7165   7164   7166   7168     1  180.0000771  2.0083200  2
   7165   7164   7166   7168     1  0.0000000  1.2552000  3
   7166   7168   7172   7173     1  180.0000771  0.0000000  2
   7166   7168   7172   7204     1  180.0000771  0.0000000  2
   7166   7164   7165   7176     1  180.0000771  2.0083200  2
   7166   7164   7165   7176     1  0.0000000  1.2552000  3
   7168   7172   7204   7185     1  180.0000771  6.0668000  2
   7168   7172   7204   7185     1  180.0000771  1.4644000  4
   7172   7204   7185   7186     1  0.0000000  1.2552000  3
   7172   7204   7185   7184     1  0.0000000  1.2552000  3
   7173   7172   7204   7185     1  180.0000771  6.0668000  2
   7173   7172   7204   7185     1  180.0000771  1.4644000  4
   7176   7179   7228   7209     1  180.0000771  6.0668000  2
   7176   7179   7228   7209     1  180.0000771  1.4644000  4
   7179   7228   7209   7210     1  0.0000000  1.2552000  3
   7179   7228   7209   7208     1  0.0000000  1.2552000  3
   7180   7179   7228   7209     1  180.0000771  6.0668000  2
   7180   7179   7228   7209     1  180.0000771  1.4644000  4
   7181   7182   7184   7185     1  180.0000771  0.8368000  1
   7181   7182   7184   7185     1  180.0000771  1.0460000  2
   7181   7182   7184   7185     1  0.0000000  0.7531200  3
   7181   7182   7184   7191     1  0.0000000  0.6508444  3
   7181   7199   7186   7190     1  0.0000000  1.6038667  3
   7181   7199   7186   7185     1  180.0000771  0.4184000  2
   7181   7199   7186   7185     1  0.0000000  1.6024720  3
   7182   7184   7185   7186     1  180.0000771  0.8368000  1
   7182   7184   7185   7186     1  180.0000771  1.0460000  2
   7182   7184   7185   7186     1  0.0000000  0.7531200  3
   7182   7184   7185   7204     1  0.0000000  0.6508444  3
   7182   7181   7192   7197     1  0.0000000  0.6508444  3
   7182   7181   7199   7186     1  180.0000771  0.4184000  2
   7182   7181   7199   7186     1  0.0000000  1.6024720  3
   7184   7185   7186   7190     1  0.0000000  0.6508444  3
   7184   7185   7186   7199     1  0.0000000  0.6508444  3
   7184   7182   7181   7192     1  180.0000771  0.8368000  1
   7184   7182   7181   7192     1  180.0000771  1.0460000  2
   7184   7182   7181   7192     1  0.0000000  0.7531200  3
   7184   7182   7181   7199     1  0.0000000  0.6508444  3
   7185   7184   7182   7202     1  0.0000000  0.6508444  3
   7186   7199   7181   7192     1  180.0000771  0.4184000  2
   7186   7199   7181   7192     1  0.0000000  1.6024720  3
   7186   7185   7184   7191     1  0.0000000  0.6508444  3
   7190   7186   7185   7204     1  0.0000000  0.6508444  3
   7191   7184   7185   7204     1  0.0000000  0.6508444  3
   7191   7184   7182   7202     1  0.0000000  4.9162000  2
   7191   7184   7182   7202     1  0.0000000  0.6024960  3
   7192   7181   7182   7202     1  0.0000000  0.6508444  3
   7197   7192   7181   7199     1  0.0000000  4.9162000  2
   7197   7192   7181   7199     1  0.0000000  0.6024960  3
   7199   7186   7185   7204     1  0.0000000  0.6508444  3
   7199   7181   7182   7202     1  0.0000000  4.9162000  2
   7199   7181   7182   7202     1  0.0000000  0.6024960  3
   7205   7206   7208   7209     1  180.0000771  0.8368000  1
   7205   7206   7208   7209     1  180.0000771  1.0460000  2
   7205   7206   7208   7209     1  0.0000000  0.7531200  3
   7205   7206   7208   7215     1  0.0000000  0.6508444  3
   7205   7223   7210   7214     1  0.0000000  1.6038667  3
   7205   7223   7210   7209     1  180.0000771  0.4184000  2
   7205   7223   7210   7209     1  0.0000000  1.6024720  3
   7206   7208   7209   7210     1  180.0000771  0.8368000  1
   7206   7208   7209   7210     1  180.0000771  1.0460000  2
   7206   7208   7209   7210     1  0.0000000  0.7531200  3
   7206   7208   7209   7228     1  0.0000000  0.6508444  3
   7206   7205   7216   7221     1  0.0000000  0.6508444  3
   7206   7205   7223   7210     1  180.0000771  0.4184000  2
   7206   7205   7223   7210     1  0.0000000  1.6024720  3
   7208   7209   7210   7214     1  0.0000000  0.6508444  3
   7208   7209   7210   7223     1  0.0000000  0.6508444  3
   7208   7206   7205   7216     1  180.0000771  0.8368000  1
   7208   7206   7205   7216     1  180.0000771  1.0460000  2
   7208   7206   7205   7216     1  0.0000000  0.7531200  3
   7208   7206   7205   7223     1  0.0000000  0.6508444  3
   7209   7208   7206   7226     1  0.0000000  0.6508444  3
   7210   7223   7205   7216     1  180.0000771  0.4184000  2
   7210   7223   7205   7216     1  0.0000000  1.6024720  3
   7210   7209   7208   7215     1  0.0000000  0.6508444  3
   7214   7210   7209   7228     1  0.0000000  0.6508444  3
   7215   7208   7209   7228     1  0.0000000  0.6508444  3
   7215   7208   7206   7226     1  0.0000000  4.9162000  2
   7215   7208   7206   7226     1  0.0000000  0.6024960  3
   7216   7205   7206   7226     1  0.0000000  0.6508444  3
   7221   7216   7205   7223     1  0.0000000  4.9162000  2
   7221   7216   7205   7223     1  0.0000000  0.6024960  3
   7223   7210   7209   7228     1  0.0000000  0.6508444  3
   7223   7205   7206   7226     1  0.0000000  4.9162000  2
   7223   7205   7206   7226     1  0.0000000  0.6024960  3
   7229   7231   7233   7237     1  0.0000000  0.6508444  3
   7231   7233   7237   7238     1  180.0000771  2.0083200  2
   7231   7233   7237   7238     1  0.0000000  1.2552000  3
   7231   7233   7237   7239     1  180.0000771  2.0083200  2
   7231   7233   7237   7239     1  0.0000000  1.2552000  3
   7233   7237   7238   7249     1  180.0000771  2.0083200  2
   7233   7237   7238   7249     1  0.0000000  1.2552000  3
   7233   7237   7239   7241     1  180.0000771  2.0083200  2
   7233   7237   7239   7241     1  0.0000000  1.2552000  3
   7237   7238   7249   7252     1  0.0000000  0.6508444  3
   7237   7239   7241   7245     1  0.0000000  0.6508444  3
   7238   7237   7239   7241     1  180.0000771  2.0083200  2
   7238   7237   7239   7241     1  0.0000000  1.2552000  3
   7238   7249   7252   7253     1  180.0000771  0.0000000  2
   7238   7249   7252   7301     1  180.0000771  0.0000000  2
   7239   7237   7238   7249     1  180.0000771  2.0083200  2
   7239   7237   7238   7249     1  0.0000000  1.2552000  3
   7239   7241   7245   7246     1  180.0000771  0.0000000  2
   7239   7241   7245   7277     1  180.0000771  0.0000000  2
   7241   7245   7277   7258     1  180.0000771  6.0668000  2
   7241   7245   7277   7258     1  180.0000771  1.4644000  4
   7245   7277   7258   7257     1  0.0000000  1.2552000  3
   7245   7277   7258   7259     1  0.0000000  1.2552000  3
   7246   7245   7277   7258     1  180.0000771  6.0668000  2
   7246   7245   7277   7258     1  180.0000771  1.4644000  4
   7249   7252   7301   7282     1  180.0000771  6.0668000  2
   7249   7252   7301   7282     1  180.0000771  1.4644000  4
   7252   7301   7282   7281     1  0.0000000  1.2552000  3
   7252   7301   7282   7283     1  0.0000000  1.2552000  3
   7253   7252   7301   7282     1  180.0000771  6.0668000  2
   7253   7252   7301   7282     1  180.0000771  1.4644000  4
   7254   7255   7257   7258     1  180.0000771  0.8368000  1
   7254   7255   7257   7258     1  180.0000771  1.0460000  2
   7254   7255   7257   7258     1  0.0000000  0.7531200  3
   7254   7255   7257   7264     1  0.0000000  0.6508444  3
   7254   7272   7259   7258     1  180.0000771  0.4184000  2
   7254   7272   7259   7258     1  0.0000000  1.6024720  3
   7254   7272   7259   7263     1  0.0000000  1.6038667  3
   7255   7254   7265   7270     1  0.0000000  0.6508444  3
   7255   7254   7272   7259     1  180.0000771  0.4184000  2
   7255   7254   7272   7259     1  0.0000000  1.6024720  3
   7255   7257   7258   7259     1  180.0000771  0.8368000  1
   7255   7257   7258   7259     1  180.0000771  1.0460000  2
   7255   7257   7258   7259     1  0.0000000  0.7531200  3
   7255   7257   7258   7277     1  0.0000000  0.6508444  3
   7257   7255   7254   7265     1  180.0000771  0.8368000  1
   7257   7255   7254   7265     1  180.0000771  1.0460000  2
   7257   7255   7254   7265     1  0.0000000  0.7531200  3
   7257   7255   7254   7272     1  0.0000000  0.6508444  3
   7257   7258   7259   7263     1  0.0000000  0.6508444  3
   7257   7258   7259   7272     1  0.0000000  0.6508444  3
   7258   7257   7255   7275     1  0.0000000  0.6508444  3
   7259   7258   7257   7264     1  0.0000000  0.6508444  3
   7259   7272   7254   7265     1  180.0000771  0.4184000  2
   7259   7272   7254   7265     1  0.0000000  1.6024720  3
   7263   7259   7258   7277     1  0.0000000  0.6508444  3
   7264   7257   7255   7275     1  0.0000000  4.9162000  2
   7264   7257   7255   7275     1  0.0000000  0.6024960  3
   7264   7257   7258   7277     1  0.0000000  0.6508444  3
   7265   7254   7255   7275     1  0.0000000  0.6508444  3
   7270   7265   7254   7272     1  0.0000000  4.9162000  2
   7270   7265   7254   7272     1  0.0000000  0.6024960  3
   7272   7254   7255   7275     1  0.0000000  4.9162000  2
   7272   7254   7255   7275     1  0.0000000  0.6024960  3
   7272   7259   7258   7277     1  0.0000000  0.6508444  3
   7278   7279   7281   7282     1  180.0000771  0.8368000  1
   7278   7279   7281   7282     1  180.0000771  1.0460000  2
   7278   7279   7281   7282     1  0.0000000  0.7531200  3
   7278   7279   7281   7288     1  0.0000000  0.6508444  3
   7278   7296   7283   7282     1  180.0000771  0.4184000  2
   7278   7296   7283   7282     1  0.0000000  1.6024720  3
   7278   7296   7283   7287     1  0.0000000  1.6038667  3
   7279   7278   7289   7294     1  0.0000000  0.6508444  3
   7279   7278   7296   7283     1  180.0000771  0.4184000  2
   7279   7278   7296   7283     1  0.0000000  1.6024720  3
   7279   7281   7282   7283     1  180.0000771  0.8368000  1
   7279   7281   7282   7283     1  180.0000771  1.0460000  2
   7279   7281   7282   7283     1  0.0000000  0.7531200  3
   7279   7281   7282   7301     1  0.0000000  0.6508444  3
   7281   7279   7278   7289     1  180.0000771  0.8368000  1
   7281   7279   7278   7289     1  180.0000771  1.0460000  2
   7281   7279   7278   7289     1  0.0000000  0.7531200  3
   7281   7279   7278   7296     1  0.0000000  0.6508444  3
   7281   7282   7283   7287     1  0.0000000  0.6508444  3
   7281   7282   7283   7296     1  0.0000000  0.6508444  3
   7282   7281   7279   7299     1  0.0000000  0.6508444  3
   7283   7282   7281   7288     1  0.0000000  0.6508444  3
   7283   7296   7278   7289     1  180.0000771  0.4184000  2
   7283   7296   7278   7289     1  0.0000000  1.6024720  3
   7287   7283   7282   7301     1  0.0000000  0.6508444  3
   7288   7281   7279   7299     1  0.0000000  4.9162000  2
   7288   7281   7279   7299     1  0.0000000  0.6024960  3
   7288   7281   7282   7301     1  0.0000000  0.6508444  3
   7289   7278   7279   7299     1  0.0000000  0.6508444  3
   7294   7289   7278   7296     1  0.0000000  4.9162000  2
   7294   7289   7278   7296     1  0.0000000  0.6024960  3
   7296   7278   7279   7299     1  0.0000000  4.9162000  2
   7296   7278   7279   7299     1  0.0000000  0.6024960  3
   7296   7283   7282   7301     1  0.0000000  0.6508444  3
   7302   7304   7306   7310     1  0.0000000  0.6508444  3
   7304   7306   7310   7311     1  180.0000771  2.0083200  2
   7304   7306   7310   7311     1  0.0000000  1.2552000  3
   7304   7306   7310   7312     1  180.0000771  2.0083200  2
   7304   7306   7310   7312     1  0.0000000  1.2552000  3
   7306   7310   7311   7322     1  180.0000771  2.0083200  2
   7306   7310   7311   7322     1  0.0000000  1.2552000  3
   7306   7310   7312   7314     1  180.0000771  2.0083200  2
   7306   7310   7312   7314     1  0.0000000  1.2552000  3
   7310   7311   7322   7325     1  0.0000000  0.6508444  3
   7310   7312   7314   7318     1  0.0000000  0.6508444  3
   7311   7322   7325   7326     1  180.0000771  0.0000000  2
   7311   7322   7325   7374     1  180.0000771  0.0000000  2
   7311   7310   7312   7314     1  180.0000771  2.0083200  2
   7311   7310   7312   7314     1  0.0000000  1.2552000  3
   7312   7314   7318   7319     1  180.0000771  0.0000000  2
   7312   7314   7318   7350     1  180.0000771  0.0000000  2
   7312   7310   7311   7322     1  180.0000771  2.0083200  2
   7312   7310   7311   7322     1  0.0000000  1.2552000  3
   7314   7318   7350   7331     1  180.0000771  6.0668000  2
   7314   7318   7350   7331     1  180.0000771  1.4644000  4
   7318   7350   7331   7332     1  0.0000000  1.2552000  3
   7318   7350   7331   7330     1  0.0000000  1.2552000  3
   7319   7318   7350   7331     1  180.0000771  6.0668000  2
   7319   7318   7350   7331     1  180.0000771  1.4644000  4
   7322   7325   7374   7355     1  180.0000771  6.0668000  2
   7322   7325   7374   7355     1  180.0000771  1.4644000  4
   7325   7374   7355   7356     1  0.0000000  1.2552000  3
   7325   7374   7355   7354     1  0.0000000  1.2552000  3
   7326   7325   7374   7355     1  180.0000771  6.0668000  2
   7326   7325   7374   7355     1  180.0000771  1.4644000  4
   7327   7328   7330   7331     1  180.0000771  0.8368000  1
   7327   7328   7330   7331     1  180.0000771  1.0460000  2
   7327   7328   7330   7331     1  0.0000000  0.7531200  3
   7327   7328   7330   7337     1  0.0000000  0.6508444  3
   7327   7345   7332   7336     1  0.0000000  1.6038667  3
   7327   7345   7332   7331     1  180.0000771  0.4184000  2
   7327   7345   7332   7331     1  0.0000000  1.6024720  3
   7328   7330   7331   7332     1  180.0000771  0.8368000  1
   7328   7330   7331   7332     1  180.0000771  1.0460000  2
   7328   7330   7331   7332     1  0.0000000  0.7531200  3
   7328   7330   7331   7350     1  0.0000000  0.6508444  3
   7328   7327   7338   7343     1  0.0000000  0.6508444  3
   7328   7327   7345   7332     1  180.0000771  0.4184000  2
   7328   7327   7345   7332     1  0.0000000  1.6024720  3
   7330   7331   7332   7336     1  0.0000000  0.6508444  3
   7330   7331   7332   7345     1  0.0000000  0.6508444  3
   7330   7328   7327   7338     1  180.0000771  0.8368000  1
   7330   7328   7327   7338     1  180.0000771  1.0460000  2
   7330   7328   7327   7338     1  0.0000000  0.7531200  3
   7330   7328   7327   7345     1  0.0000000  0.6508444  3
   7331   7330   7328   7348     1  0.0000000  0.6508444  3
   7332   7345   7327   7338     1  180.0000771  0.4184000  2
   7332   7345   7327   7338     1  0.0000000  1.6024720  3
   7332   7331   7330   7337     1  0.0000000  0.6508444  3
   7336   7332   7331   7350     1  0.0000000  0.6508444  3
   7337   7330   7331   7350     1  0.0000000  0.6508444  3
   7337   7330   7328   7348     1  0.0000000  4.9162000  2
   7337   7330   7328   7348     1  0.0000000  0.6024960  3
   7338   7327   7328   7348     1  0.0000000  0.6508444  3
   7343   7338   7327   7345     1  0.0000000  4.9162000  2
   7343   7338   7327   7345     1  0.0000000  0.6024960  3
   7345   7332   7331   7350     1  0.0000000  0.6508444  3
   7345   7327   7328   7348     1  0.0000000  4.9162000  2
   7345   7327   7328   7348     1  0.0000000  0.6024960  3
   7351   7352   7354   7355     1  180.0000771  0.8368000  1
   7351   7352   7354   7355     1  180.0000771  1.0460000  2
   7351   7352   7354   7355     1  0.0000000  0.7531200  3
   7351   7352   7354   7361     1  0.0000000  0.6508444  3
   7351   7369   7356   7360     1  0.0000000  1.6038667  3
   7351   7369   7356   7355     1  180.0000771  0.4184000  2
   7351   7369   7356   7355     1  0.0000000  1.6024720  3
   7352   7354   7355   7356     1  180.0000771  0.8368000  1
   7352   7354   7355   7356     1  180.0000771  1.0460000  2
   7352   7354   7355   7356     1  0.0000000  0.7531200  3
   7352   7354   7355   7374     1  0.0000000  0.6508444  3
   7352   7351   7362   7367     1  0.0000000  0.6508444  3
   7352   7351   7369   7356     1  180.0000771  0.4184000  2
   7352   7351   7369   7356     1  0.0000000  1.6024720  3
   7354   7355   7356   7360     1  0.0000000  0.6508444  3
   7354   7355   7356   7369     1  0.0000000  0.6508444  3
   7354   7352   7351   7362     1  180.0000771  0.8368000  1
   7354   7352   7351   7362     1  180.0000771  1.0460000  2
   7354   7352   7351   7362     1  0.0000000  0.7531200  3
   7354   7352   7351   7369     1  0.0000000  0.6508444  3
   7355   7354   7352   7372     1  0.0000000  0.6508444  3
   7356   7369   7351   7362     1  180.0000771  0.4184000  2
   7356   7369   7351   7362     1  0.0000000  1.6024720  3
   7356   7355   7354   7361     1  0.0000000  0.6508444  3
   7360   7356   7355   7374     1  0.0000000  0.6508444  3
   7361   7354   7355   7374     1  0.0000000  0.6508444  3
   7361   7354   7352   7372     1  0.0000000  4.9162000  2
   7361   7354   7352   7372     1  0.0000000  0.6024960  3
   7362   7351   7352   7372     1  0.0000000  0.6508444  3
   7367   7362   7351   7369     1  0.0000000  4.9162000  2
   7367   7362   7351   7369     1  0.0000000  0.6024960  3
   7369   7356   7355   7374     1  0.0000000  0.6508444  3
   7369   7351   7352   7372     1  0.0000000  4.9162000  2
   7369   7351   7352   7372     1  0.0000000  0.6024960  3
   7375   7377   7379   7383     1  0.0000000  0.6508444  3
   7377   7379   7383   7384     1  180.0000771  2.0083200  2
   7377   7379   7383   7384     1  0.0000000  1.2552000  3
   7377   7379   7383   7385     1  180.0000771  2.0083200  2
   7377   7379   7383   7385     1  0.0000000  1.2552000  3
   7379   7383   7384   7395     1  180.0000771  2.0083200  2
   7379   7383   7384   7395     1  0.0000000  1.2552000  3
   7379   7383   7385   7387     1  180.0000771  2.0083200  2
   7379   7383   7385   7387     1  0.0000000  1.2552000  3
   7383   7384   7395   7398     1  0.0000000  0.6508444  3
   7383   7385   7387   7391     1  0.0000000  0.6508444  3
   7384   7383   7385   7387     1  180.0000771  2.0083200  2
   7384   7383   7385   7387     1  0.0000000  1.2552000  3
   7384   7395   7398   7399     1  180.0000771  0.0000000  2
   7384   7395   7398   7447     1  180.0000771  0.0000000  2
   7385   7383   7384   7395     1  180.0000771  2.0083200  2
   7385   7383   7384   7395     1  0.0000000  1.2552000  3
   7385   7387   7391   7392     1  180.0000771  0.0000000  2
   7385   7387   7391   7423     1  180.0000771  0.0000000  2
   7387   7391   7423   7404     1  180.0000771  6.0668000  2
   7387   7391   7423   7404     1  180.0000771  1.4644000  4
   7391   7423   7404   7403     1  0.0000000  1.2552000  3
   7391   7423   7404   7405     1  0.0000000  1.2552000  3
   7392   7391   7423   7404     1  180.0000771  6.0668000  2
   7392   7391   7423   7404     1  180.0000771  1.4644000  4
   7395   7398   7447   7428     1  180.0000771  6.0668000  2
   7395   7398   7447   7428     1  180.0000771  1.4644000  4
   7398   7447   7428   7427     1  0.0000000  1.2552000  3
   7398   7447   7428   7429     1  0.0000000  1.2552000  3
   7399   7398   7447   7428     1  180.0000771  6.0668000  2
   7399   7398   7447   7428     1  180.0000771  1.4644000  4
   7400   7401   7403   7404     1  180.0000771  0.8368000  1
   7400   7401   7403   7404     1  180.0000771  1.0460000  2
   7400   7401   7403   7404     1  0.0000000  0.7531200  3
   7400   7401   7403   7410     1  0.0000000  0.6508444  3
   7400   7418   7405   7404     1  180.0000771  0.4184000  2
   7400   7418   7405   7404     1  0.0000000  1.6024720  3
   7400   7418   7405   7409     1  0.0000000  1.6038667  3
   7401   7400   7411   7416     1  0.0000000  0.6508444  3
   7401   7400   7418   7405     1  180.0000771  0.4184000  2
   7401   7400   7418   7405     1  0.0000000  1.6024720  3
   7401   7403   7404   7405     1  180.0000771  0.8368000  1
   7401   7403   7404   7405     1  180.0000771  1.0460000  2
   7401   7403   7404   7405     1  0.0000000  0.7531200  3
   7401   7403   7404   7423     1  0.0000000  0.6508444  3
   7403   7401   7400   7411     1  180.0000771  0.8368000  1
   7403   7401   7400   7411     1  180.0000771  1.0460000  2
   7403   7401   7400   7411     1  0.0000000  0.7531200  3
   7403   7401   7400   7418     1  0.0000000  0.6508444  3
   7403   7404   7405   7409     1  0.0000000  0.6508444  3
   7403   7404   7405   7418     1  0.0000000  0.6508444  3
   7404   7403   7401   7421     1  0.0000000  0.6508444  3
   7405   7404   7403   7410     1  0.0000000  0.6508444  3
   7405   7418   7400   7411     1  180.0000771  0.4184000  2
   7405   7418   7400   7411     1  0.0000000  1.6024720  3
   7409   7405   7404   7423     1  0.0000000  0.6508444  3
   7410   7403   7401   7421     1  0.0000000  4.9162000  2
   7410   7403   7401   7421     1  0.0000000  0.6024960  3
   7410   7403   7404   7423     1  0.0000000  0.6508444  3
   7411   7400   7401   7421     1  0.0000000  0.6508444  3
   7416   7411   7400   7418     1  0.0000000  4.9162000  2
   7416   7411   7400   7418     1  0.0000000  0.6024960  3
   7418   7400   7401   7421     1  0.0000000  4.9162000  2
   7418   7400   7401   7421     1  0.0000000  0.6024960  3
   7418   7405   7404   7423     1  0.0000000  0.6508444  3
   7424   7425   7427   7428     1  180.0000771  0.8368000  1
   7424   7425   7427   7428     1  180.0000771  1.0460000  2
   7424   7425   7427   7428     1  0.0000000  0.7531200  3
   7424   7425   7427   7434     1  0.0000000  0.6508444  3
   7424   7442   7429   7428     1  180.0000771  0.4184000  2
   7424   7442   7429   7428     1  0.0000000  1.6024720  3
   7424   7442   7429   7433     1  0.0000000  1.6038667  3
   7425   7424   7435   7440     1  0.0000000  0.6508444  3
   7425   7424   7442   7429     1  180.0000771  0.4184000  2
   7425   7424   7442   7429     1  0.0000000  1.6024720  3
   7425   7427   7428   7429     1  180.0000771  0.8368000  1
   7425   7427   7428   7429     1  180.0000771  1.0460000  2
   7425   7427   7428   7429     1  0.0000000  0.7531200  3
   7425   7427   7428   7447     1  0.0000000  0.6508444  3
   7427   7425   7424   7435     1  180.0000771  0.8368000  1
   7427   7425   7424   7435     1  180.0000771  1.0460000  2
   7427   7425   7424   7435     1  0.0000000  0.7531200  3
   7427   7425   7424   7442     1  0.0000000  0.6508444  3
   7427   7428   7429   7433     1  0.0000000  0.6508444  3
   7427   7428   7429   7442     1  0.0000000  0.6508444  3
   7428   7427   7425   7445     1  0.0000000  0.6508444  3
   7429   7428   7427   7434     1  0.0000000  0.6508444  3
   7429   7442   7424   7435     1  180.0000771  0.4184000  2
   7429   7442   7424   7435     1  0.0000000  1.6024720  3
   7433   7429   7428   7447     1  0.0000000  0.6508444  3
   7434   7427   7425   7445     1  0.0000000  4.9162000  2
   7434   7427   7425   7445     1  0.0000000  0.6024960  3
   7434   7427   7428   7447     1  0.0000000  0.6508444  3
   7435   7424   7425   7445     1  0.0000000  0.6508444  3
   7440   7435   7424   7442     1  0.0000000  4.9162000  2
   7440   7435   7424   7442     1  0.0000000  0.6024960  3
   7442   7424   7425   7445     1  0.0000000  4.9162000  2
   7442   7424   7425   7445     1  0.0000000  0.6024960  3
   7442   7429   7428   7447     1  0.0000000  0.6508444  3
   7448   7450   7452   7456     1  0.0000000  0.6508444  3
   7450   7452   7456   7457     1  180.0000771  2.0083200  2
   7450   7452   7456   7457     1  0.0000000  1.2552000  3
   7450   7452   7456   7458     1  180.0000771  2.0083200  2
   7450   7452   7456   7458     1  0.0000000  1.2552000  3
   7452   7456   7457   7468     1  180.0000771  2.0083200  2
   7452   7456   7457   7468     1  0.0000000  1.2552000  3
   7452   7456   7458   7460     1  180.0000771  2.0083200  2
   7452   7456   7458   7460     1  0.0000000  1.2552000  3
   7456   7457   7468   7471     1  0.0000000  0.6508444  3
   7456   7458   7460   7464     1  0.0000000  0.6508444  3
   7457   7468   7471   7472     1  180.0000771  0.0000000  2
   7457   7468   7471   7520     1  180.0000771  0.0000000  2
   7457   7456   7458   7460     1  180.0000771  2.0083200  2
   7457   7456   7458   7460     1  0.0000000  1.2552000  3
   7458   7460   7464   7465     1  180.0000771  0.0000000  2
   7458   7460   7464   7496     1  180.0000771  0.0000000  2
   7458   7456   7457   7468     1  180.0000771  2.0083200  2
   7458   7456   7457   7468     1  0.0000000  1.2552000  3
   7460   7464   7496   7477     1  180.0000771  6.0668000  2
   7460   7464   7496   7477     1  180.0000771  1.4644000  4
   7464   7496   7477   7478     1  0.0000000  1.2552000  3
   7464   7496   7477   7476     1  0.0000000  1.2552000  3
   7465   7464   7496   7477     1  180.0000771  6.0668000  2
   7465   7464   7496   7477     1  180.0000771  1.4644000  4
   7468   7471   7520   7501     1  180.0000771  6.0668000  2
   7468   7471   7520   7501     1  180.0000771  1.4644000  4
   7471   7520   7501   7502     1  0.0000000  1.2552000  3
   7471   7520   7501   7500     1  0.0000000  1.2552000  3
   7472   7471   7520   7501     1  180.0000771  6.0668000  2
   7472   7471   7520   7501     1  180.0000771  1.4644000  4
   7473   7474   7476   7477     1  180.0000771  0.8368000  1
   7473   7474   7476   7477     1  180.0000771  1.0460000  2
   7473   7474   7476   7477     1  0.0000000  0.7531200  3
   7473   7474   7476   7483     1  0.0000000  0.6508444  3
   7473   7491   7478   7482     1  0.0000000  1.6038667  3
   7473   7491   7478   7477     1  180.0000771  0.4184000  2
   7473   7491   7478   7477     1  0.0000000  1.6024720  3
   7474   7476   7477   7478     1  180.0000771  0.8368000  1
   7474   7476   7477   7478     1  180.0000771  1.0460000  2
   7474   7476   7477   7478     1  0.0000000  0.7531200  3
   7474   7476   7477   7496     1  0.0000000  0.6508444  3
   7474   7473   7484   7489     1  0.0000000  0.6508444  3
   7474   7473   7491   7478     1  180.0000771  0.4184000  2
   7474   7473   7491   7478     1  0.0000000  1.6024720  3
   7476   7477   7478   7482     1  0.0000000  0.6508444  3
   7476   7477   7478   7491     1  0.0000000  0.6508444  3
   7476   7474   7473   7484     1  180.0000771  0.8368000  1
   7476   7474   7473   7484     1  180.0000771  1.0460000  2
   7476   7474   7473   7484     1  0.0000000  0.7531200  3
   7476   7474   7473   7491     1  0.0000000  0.6508444  3
   7477   7476   7474   7494     1  0.0000000  0.6508444  3
   7478   7491   7473   7484     1  180.0000771  0.4184000  2
   7478   7491   7473   7484     1  0.0000000  1.6024720  3
   7478   7477   7476   7483     1  0.0000000  0.6508444  3
   7482   7478   7477   7496     1  0.0000000  0.6508444  3
   7483   7476   7477   7496     1  0.0000000  0.6508444  3
   7483   7476   7474   7494     1  0.0000000  4.9162000  2
   7483   7476   7474   7494     1  0.0000000  0.6024960  3
   7484   7473   7474   7494     1  0.0000000  0.6508444  3
   7489   7484   7473   7491     1  0.0000000  4.9162000  2
   7489   7484   7473   7491     1  0.0000000  0.6024960  3
   7491   7478   7477   7496     1  0.0000000  0.6508444  3
   7491   7473   7474   7494     1  0.0000000  4.9162000  2
   7491   7473   7474   7494     1  0.0000000  0.6024960  3
   7497   7498   7500   7501     1  180.0000771  0.8368000  1
   7497   7498   7500   7501     1  180.0000771  1.0460000  2
   7497   7498   7500   7501     1  0.0000000  0.7531200  3
   7497   7498   7500   7507     1  0.0000000  0.6508444  3
   7497   7515   7502   7506     1  0.0000000  1.6038667  3
   7497   7515   7502   7501     1  180.0000771  0.4184000  2
   7497   7515   7502   7501     1  0.0000000  1.6024720  3
   7498   7500   7501   7502     1  180.0000771  0.8368000  1
   7498   7500   7501   7502     1  180.0000771  1.0460000  2
   7498   7500   7501   7502     1  0.0000000  0.7531200  3
   7498   7500   7501   7520     1  0.0000000  0.6508444  3
   7498   7497   7508   7513     1  0.0000000  0.6508444  3
   7498   7497   7515   7502     1  180.0000771  0.4184000  2
   7498   7497   7515   7502     1  0.0000000  1.6024720  3
   7500   7501   7502   7506     1  0.0000000  0.6508444  3
   7500   7501   7502   7515     1  0.0000000  0.6508444  3
   7500   7498   7497   7508     1  180.0000771  0.8368000  1
   7500   7498   7497   7508     1  180.0000771  1.0460000  2
   7500   7498   7497   7508     1  0.0000000  0.7531200  3
   7500   7498   7497   7515     1  0.0000000  0.6508444  3
   7501   7500   7498   7518     1  0.0000000  0.6508444  3
   7502   7515   7497   7508     1  180.0000771  0.4184000  2
   7502   7515   7497   7508     1  0.0000000  1.6024720  3
   7502   7501   7500   7507     1  0.0000000  0.6508444  3
   7506   7502   7501   7520     1  0.0000000  0.6508444  3
   7507   7500   7501   7520     1  0.0000000  0.6508444  3
   7507   7500   7498   7518     1  0.0000000  4.9162000  2
   7507   7500   7498   7518     1  0.0000000  0.6024960  3
   7508   7497   7498   7518     1  0.0000000  0.6508444  3
   7513   7508   7497   7515     1  0.0000000  4.9162000  2
   7513   7508   7497   7515     1  0.0000000  0.6024960  3
   7515   7502   7501   7520     1  0.0000000  0.6508444  3
   7515   7497   7498   7518     1  0.0000000  4.9162000  2
   7515   7497   7498   7518     1  0.0000000  0.6024960  3
   7521   7523   7525   7529     1  0.0000000  0.6508444  3
   7523   7525   7529   7530     1  180.0000771  2.0083200  2
   7523   7525   7529   7530     1  0.0000000  1.2552000  3
   7523   7525   7529   7531     1  180.0000771  2.0083200  2
   7523   7525   7529   7531     1  0.0000000  1.2552000  3
   7525   7529   7530   7541     1  180.0000771  2.0083200  2
   7525   7529   7530   7541     1  0.0000000  1.2552000  3
   7525   7529   7531   7533     1  180.0000771  2.0083200  2
   7525   7529   7531   7533     1  0.0000000  1.2552000  3
   7529   7530   7541   7544     1  0.0000000  0.6508444  3
   7529   7531   7533   7537     1  0.0000000  0.6508444  3
   7530   7529   7531   7533     1  180.0000771  2.0083200  2
   7530   7529   7531   7533     1  0.0000000  1.2552000  3
   7530   7541   7544   7545     1  180.0000771  0.0000000  2
   7530   7541   7544   7593     1  180.0000771  0.0000000  2
   7531   7529   7530   7541     1  180.0000771  2.0083200  2
   7531   7529   7530   7541     1  0.0000000  1.2552000  3
   7531   7533   7537   7538     1  180.0000771  0.0000000  2
   7531   7533   7537   7569     1  180.0000771  0.0000000  2
   7533   7537   7569   7550     1  180.0000771  6.0668000  2
   7533   7537   7569   7550     1  180.0000771  1.4644000  4
   7537   7569   7550   7549     1  0.0000000  1.2552000  3
   7537   7569   7550   7551     1  0.0000000  1.2552000  3
   7538   7537   7569   7550     1  180.0000771  6.0668000  2
   7538   7537   7569   7550     1  180.0000771  1.4644000  4
   7541   7544   7593   7574     1  180.0000771  6.0668000  2
   7541   7544   7593   7574     1  180.0000771  1.4644000  4
   7544   7593   7574   7573     1  0.0000000  1.2552000  3
   7544   7593   7574   7575     1  0.0000000  1.2552000  3
   7545   7544   7593   7574     1  180.0000771  6.0668000  2
   7545   7544   7593   7574     1  180.0000771  1.4644000  4
   7546   7547   7549   7550     1  180.0000771  0.8368000  1
   7546   7547   7549   7550     1  180.0000771  1.0460000  2
   7546   7547   7549   7550     1  0.0000000  0.7531200  3
   7546   7547   7549   7556     1  0.0000000  0.6508444  3
   7546   7564   7551   7550     1  180.0000771  0.4184000  2
   7546   7564   7551   7550     1  0.0000000  1.6024720  3
   7546   7564   7551   7555     1  0.0000000  1.6038667  3
   7547   7546   7557   7562     1  0.0000000  0.6508444  3
   7547   7546   7564   7551     1  180.0000771  0.4184000  2
   7547   7546   7564   7551     1  0.0000000  1.6024720  3
   7547   7549   7550   7551     1  180.0000771  0.8368000  1
   7547   7549   7550   7551     1  180.0000771  1.0460000  2
   7547   7549   7550   7551     1  0.0000000  0.7531200  3
   7547   7549   7550   7569     1  0.0000000  0.6508444  3
   7549   7547   7546   7557     1  180.0000771  0.8368000  1
   7549   7547   7546   7557     1  180.0000771  1.0460000  2
   7549   7547   7546   7557     1  0.0000000  0.7531200  3
   7549   7547   7546   7564     1  0.0000000  0.6508444  3
   7549   7550   7551   7555     1  0.0000000  0.6508444  3
   7549   7550   7551   7564     1  0.0000000  0.6508444  3
   7550   7549   7547   7567     1  0.0000000  0.6508444  3
   7551   7550   7549   7556     1  0.0000000  0.6508444  3
   7551   7564   7546   7557     1  180.0000771  0.4184000  2
   7551   7564   7546   7557     1  0.0000000  1.6024720  3
   7555   7551   7550   7569     1  0.0000000  0.6508444  3
   7556   7549   7547   7567     1  0.0000000  4.9162000  2
   7556   7549   7547   7567     1  0.0000000  0.6024960  3
   7556   7549   7550   7569     1  0.0000000  0.6508444  3
   7557   7546   7547   7567     1  0.0000000  0.6508444  3
   7562   7557   7546   7564     1  0.0000000  4.9162000  2
   7562   7557   7546   7564     1  0.0000000  0.6024960  3
   7564   7546   7547   7567     1  0.0000000  4.9162000  2
   7564   7546   7547   7567     1  0.0000000  0.6024960  3
   7564   7551   7550   7569     1  0.0000000  0.6508444  3
   7570   7571   7573   7574     1  180.0000771  0.8368000  1
   7570   7571   7573   7574     1  180.0000771  1.0460000  2
   7570   7571   7573   7574     1  0.0000000  0.7531200  3
   7570   7571   7573   7580     1  0.0000000  0.6508444  3
   7570   7588   7575   7574     1  180.0000771  0.4184000  2
   7570   7588   7575   7574     1  0.0000000  1.6024720  3
   7570   7588   7575   7579     1  0.0000000  1.6038667  3
   7571   7570   7581   7586     1  0.0000000  0.6508444  3
   7571   7570   7588   7575     1  180.0000771  0.4184000  2
   7571   7570   7588   7575     1  0.0000000  1.6024720  3
   7571   7573   7574   7575     1  180.0000771  0.8368000  1
   7571   7573   7574   7575     1  180.0000771  1.0460000  2
   7571   7573   7574   7575     1  0.0000000  0.7531200  3
   7571   7573   7574   7593     1  0.0000000  0.6508444  3
   7573   7571   7570   7581     1  180.0000771  0.8368000  1
   7573   7571   7570   7581     1  180.0000771  1.0460000  2
   7573   7571   7570   7581     1  0.0000000  0.7531200  3
   7573   7571   7570   7588     1  0.0000000  0.6508444  3
   7573   7574   7575   7579     1  0.0000000  0.6508444  3
   7573   7574   7575   7588     1  0.0000000  0.6508444  3
   7574   7573   7571   7591     1  0.0000000  0.6508444  3
   7575   7574   7573   7580     1  0.0000000  0.6508444  3
   7575   7588   7570   7581     1  180.0000771  0.4184000  2
   7575   7588   7570   7581     1  0.0000000  1.6024720  3
   7579   7575   7574   7593     1  0.0000000  0.6508444  3
   7580   7573   7571   7591     1  0.0000000  4.9162000  2
   7580   7573   7571   7591     1  0.0000000  0.6024960  3
   7580   7573   7574   7593     1  0.0000000  0.6508444  3
   7581   7570   7571   7591     1  0.0000000  0.6508444  3
   7586   7581   7570   7588     1  0.0000000  4.9162000  2
   7586   7581   7570   7588     1  0.0000000  0.6024960  3
   7588   7570   7571   7591     1  0.0000000  4.9162000  2
   7588   7570   7571   7591     1  0.0000000  0.6024960  3
   7588   7575   7574   7593     1  0.0000000  0.6508444  3
   7594   7596   7598   7602     1  0.0000000  0.6508444  3
   7596   7598   7602   7603     1  180.0000771  2.0083200  2
   7596   7598   7602   7603     1  0.0000000  1.2552000  3
   7596   7598   7602   7604     1  180.0000771  2.0083200  2
   7596   7598   7602   7604     1  0.0000000  1.2552000  3
   7598   7602   7603   7614     1  180.0000771  2.0083200  2
   7598   7602   7603   7614     1  0.0000000  1.2552000  3
   7598   7602   7604   7606     1  180.0000771  2.0083200  2
   7598   7602   7604   7606     1  0.0000000  1.2552000  3
   7602   7603   7614   7617     1  0.0000000  0.6508444  3
   7602   7604   7606   7610     1  0.0000000  0.6508444  3
   7603   7614   7617   7618     1  180.0000771  0.0000000  2
   7603   7614   7617   7666     1  180.0000771  0.0000000  2
   7603   7602   7604   7606     1  180.0000771  2.0083200  2
   7603   7602   7604   7606     1  0.0000000  1.2552000  3
   7604   7606   7610   7611     1  180.0000771  0.0000000  2
   7604   7606   7610   7642     1  180.0000771  0.0000000  2
   7604   7602   7603   7614     1  180.0000771  2.0083200  2
   7604   7602   7603   7614     1  0.0000000  1.2552000  3
   7606   7610   7642   7623     1  180.0000771  6.0668000  2
   7606   7610   7642   7623     1  180.0000771  1.4644000  4
   7610   7642   7623   7624     1  0.0000000  1.2552000  3
   7610   7642   7623   7622     1  0.0000000  1.2552000  3
   7611   7610   7642   7623     1  180.0000771  6.0668000  2
   7611   7610   7642   7623     1  180.0000771  1.4644000  4
   7614   7617   7666   7647     1  180.0000771  6.0668000  2
   7614   7617   7666   7647     1  180.0000771  1.4644000  4
   7617   7666   7647   7648     1  0.0000000  1.2552000  3
   7617   7666   7647   7646     1  0.0000000  1.2552000  3
   7618   7617   7666   7647     1  180.0000771  6.0668000  2
   7618   7617   7666   7647     1  180.0000771  1.4644000  4
   7619   7620   7622   7623     1  180.0000771  0.8368000  1
   7619   7620   7622   7623     1  180.0000771  1.0460000  2
   7619   7620   7622   7623     1  0.0000000  0.7531200  3
   7619   7620   7622   7629     1  0.0000000  0.6508444  3
   7619   7637   7624   7628     1  0.0000000  1.6038667  3
   7619   7637   7624   7623     1  180.0000771  0.4184000  2
   7619   7637   7624   7623     1  0.0000000  1.6024720  3
   7620   7622   7623   7624     1  180.0000771  0.8368000  1
   7620   7622   7623   7624     1  180.0000771  1.0460000  2
   7620   7622   7623   7624     1  0.0000000  0.7531200  3
   7620   7622   7623   7642     1  0.0000000  0.6508444  3
   7620   7619   7630   7635     1  0.0000000  0.6508444  3
   7620   7619   7637   7624     1  180.0000771  0.4184000  2
   7620   7619   7637   7624     1  0.0000000  1.6024720  3
   7622   7623   7624   7628     1  0.0000000  0.6508444  3
   7622   7623   7624   7637     1  0.0000000  0.6508444  3
   7622   7620   7619   7630     1  180.0000771  0.8368000  1
   7622   7620   7619   7630     1  180.0000771  1.0460000  2
   7622   7620   7619   7630     1  0.0000000  0.7531200  3
   7622   7620   7619   7637     1  0.0000000  0.6508444  3
   7623   7622   7620   7640     1  0.0000000  0.6508444  3
   7624   7637   7619   7630     1  180.0000771  0.4184000  2
   7624   7637   7619   7630     1  0.0000000  1.6024720  3
   7624   7623   7622   7629     1  0.0000000  0.6508444  3
   7628   7624   7623   7642     1  0.0000000  0.6508444  3
   7629   7622   7623   7642     1  0.0000000  0.6508444  3
   7629   7622   7620   7640     1  0.0000000  4.9162000  2
   7629   7622   7620   7640     1  0.0000000  0.6024960  3
   7630   7619   7620   7640     1  0.0000000  0.6508444  3
   7635   7630   7619   7637     1  0.0000000  4.9162000  2
   7635   7630   7619   7637     1  0.0000000  0.6024960  3
   7637   7624   7623   7642     1  0.0000000  0.6508444  3
   7637   7619   7620   7640     1  0.0000000  4.9162000  2
   7637   7619   7620   7640     1  0.0000000  0.6024960  3
   7643   7644   7646   7647     1  180.0000771  0.8368000  1
   7643   7644   7646   7647     1  180.0000771  1.0460000  2
   7643   7644   7646   7647     1  0.0000000  0.7531200  3
   7643   7644   7646   7653     1  0.0000000  0.6508444  3
   7643   7661   7648   7652     1  0.0000000  1.6038667  3
   7643   7661   7648   7647     1  180.0000771  0.4184000  2
   7643   7661   7648   7647     1  0.0000000  1.6024720  3
   7644   7646   7647   7648     1  180.0000771  0.8368000  1
   7644   7646   7647   7648     1  180.0000771  1.0460000  2
   7644   7646   7647   7648     1  0.0000000  0.7531200  3
   7644   7646   7647   7666     1  0.0000000  0.6508444  3
   7644   7643   7654   7659     1  0.0000000  0.6508444  3
   7644   7643   7661   7648     1  180.0000771  0.4184000  2
   7644   7643   7661   7648     1  0.0000000  1.6024720  3
   7646   7647   7648   7652     1  0.0000000  0.6508444  3
   7646   7647   7648   7661     1  0.0000000  0.6508444  3
   7646   7644   7643   7654     1  180.0000771  0.8368000  1
   7646   7644   7643   7654     1  180.0000771  1.0460000  2
   7646   7644   7643   7654     1  0.0000000  0.7531200  3
   7646   7644   7643   7661     1  0.0000000  0.6508444  3
   7647   7646   7644   7664     1  0.0000000  0.6508444  3
   7648   7661   7643   7654     1  180.0000771  0.4184000  2
   7648   7661   7643   7654     1  0.0000000  1.6024720  3
   7648   7647   7646   7653     1  0.0000000  0.6508444  3
   7652   7648   7647   7666     1  0.0000000  0.6508444  3
   7653   7646   7647   7666     1  0.0000000  0.6508444  3
   7653   7646   7644   7664     1  0.0000000  4.9162000  2
   7653   7646   7644   7664     1  0.0000000  0.6024960  3
   7654   7643   7644   7664     1  0.0000000  0.6508444  3
   7659   7654   7643   7661     1  0.0000000  4.9162000  2
   7659   7654   7643   7661     1  0.0000000  0.6024960  3
   7661   7648   7647   7666     1  0.0000000  0.6508444  3
   7661   7643   7644   7664     1  0.0000000  4.9162000  2
   7661   7643   7644   7664     1  0.0000000  0.6024960  3
   7667   7669   7671   7675     1  0.0000000  0.6508444  3
   7669   7671   7675   7676     1  180.0000771  2.0083200  2
   7669   7671   7675   7676     1  0.0000000  1.2552000  3
   7669   7671   7675   7677     1  180.0000771  2.0083200  2
   7669   7671   7675   7677     1  0.0000000  1.2552000  3
   7671   7675   7676   7687     1  180.0000771  2.0083200  2
   7671   7675   7676   7687     1  0.0000000  1.2552000  3
   7671   7675   7677   7679     1  180.0000771  2.0083200  2
   7671   7675   7677   7679     1  0.0000000  1.2552000  3
   7675   7676   7687   7690     1  0.0000000  0.6508444  3
   7675   7677   7679   7683     1  0.0000000  0.6508444  3
   7676   7675   7677   7679     1  180.0000771  2.0083200  2
   7676   7675   7677   7679     1  0.0000000  1.2552000  3
   7676   7687   7690   7691     1  180.0000771  0.0000000  2
   7676   7687   7690   7739     1  180.0000771  0.0000000  2
   7677   7675   7676   7687     1  180.0000771  2.0083200  2
   7677   7675   7676   7687     1  0.0000000  1.2552000  3
   7677   7679   7683   7684     1  180.0000771  0.0000000  2
   7677   7679   7683   7715     1  180.0000771  0.0000000  2
   7679   7683   7715   7696     1  180.0000771  6.0668000  2
   7679   7683   7715   7696     1  180.0000771  1.4644000  4
   7683   7715   7696   7695     1  0.0000000  1.2552000  3
   7683   7715   7696   7697     1  0.0000000  1.2552000  3
   7684   7683   7715   7696     1  180.0000771  6.0668000  2
   7684   7683   7715   7696     1  180.0000771  1.4644000  4
   7687   7690   7739   7720     1  180.0000771  6.0668000  2
   7687   7690   7739   7720     1  180.0000771  1.4644000  4
   7690   7739   7720   7719     1  0.0000000  1.2552000  3
   7690   7739   7720   7721     1  0.0000000  1.2552000  3
   7691   7690   7739   7720     1  180.0000771  6.0668000  2
   7691   7690   7739   7720     1  180.0000771  1.4644000  4
   7692   7693   7695   7696     1  180.0000771  0.8368000  1
   7692   7693   7695   7696     1  180.0000771  1.0460000  2
   7692   7693   7695   7696     1  0.0000000  0.7531200  3
   7692   7693   7695   7702     1  0.0000000  0.6508444  3
   7692   7710   7697   7696     1  180.0000771  0.4184000  2
   7692   7710   7697   7696     1  0.0000000  1.6024720  3
   7692   7710   7697   7701     1  0.0000000  1.6038667  3
   7693   7692   7703   7708     1  0.0000000  0.6508444  3
   7693   7692   7710   7697     1  180.0000771  0.4184000  2
   7693   7692   7710   7697     1  0.0000000  1.6024720  3
   7693   7695   7696   7697     1  180.0000771  0.8368000  1
   7693   7695   7696   7697     1  180.0000771  1.0460000  2
   7693   7695   7696   7697     1  0.0000000  0.7531200  3
   7693   7695   7696   7715     1  0.0000000  0.6508444  3
   7695   7693   7692   7703     1  180.0000771  0.8368000  1
   7695   7693   7692   7703     1  180.0000771  1.0460000  2
   7695   7693   7692   7703     1  0.0000000  0.7531200  3
   7695   7693   7692   7710     1  0.0000000  0.6508444  3
   7695   7696   7697   7701     1  0.0000000  0.6508444  3
   7695   7696   7697   7710     1  0.0000000  0.6508444  3
   7696   7695   7693   7713     1  0.0000000  0.6508444  3
   7697   7696   7695   7702     1  0.0000000  0.6508444  3
   7697   7710   7692   7703     1  180.0000771  0.4184000  2
   7697   7710   7692   7703     1  0.0000000  1.6024720  3
   7701   7697   7696   7715     1  0.0000000  0.6508444  3
   7702   7695   7693   7713     1  0.0000000  4.9162000  2
   7702   7695   7693   7713     1  0.0000000  0.6024960  3
   7702   7695   7696   7715     1  0.0000000  0.6508444  3
   7703   7692   7693   7713     1  0.0000000  0.6508444  3
   7708   7703   7692   7710     1  0.0000000  4.9162000  2
   7708   7703   7692   7710     1  0.0000000  0.6024960  3
   7710   7692   7693   7713     1  0.0000000  4.9162000  2
   7710   7692   7693   7713     1  0.0000000  0.6024960  3
   7710   7697   7696   7715     1  0.0000000  0.6508444  3
   7716   7717   7719   7720     1  180.0000771  0.8368000  1
   7716   7717   7719   7720     1  180.0000771  1.0460000  2
   7716   7717   7719   7720     1  0.0000000  0.7531200  3
   7716   7717   7719   7726     1  0.0000000  0.6508444  3
   7716   7734   7721   7720     1  180.0000771  0.4184000  2
   7716   7734   7721   7720     1  0.0000000  1.6024720  3
   7716   7734   7721   7725     1  0.0000000  1.6038667  3
   7717   7716   7727   7732     1  0.0000000  0.6508444  3
   7717   7716   7734   7721     1  180.0000771  0.4184000  2
   7717   7716   7734   7721     1  0.0000000  1.6024720  3
   7717   7719   7720   7721     1  180.0000771  0.8368000  1
   7717   7719   7720   7721     1  180.0000771  1.0460000  2
   7717   7719   7720   7721     1  0.0000000  0.7531200  3
   7717   7719   7720   7739     1  0.0000000  0.6508444  3
   7719   7717   7716   7727     1  180.0000771  0.8368000  1
   7719   7717   7716   7727     1  180.0000771  1.0460000  2
   7719   7717   7716   7727     1  0.0000000  0.7531200  3
   7719   7717   7716   7734     1  0.0000000  0.6508444  3
   7719   7720   7721   7725     1  0.0000000  0.6508444  3
   7719   7720   7721   7734     1  0.0000000  0.6508444  3
   7720   7719   7717   7737     1  0.0000000  0.6508444  3
   7721   7720   7719   7726     1  0.0000000  0.6508444  3
   7721   7734   7716   7727     1  180.0000771  0.4184000  2
   7721   7734   7716   7727     1  0.0000000  1.6024720  3
   7725   7721   7720   7739     1  0.0000000  0.6508444  3
   7726   7719   7717   7737     1  0.0000000  4.9162000  2
   7726   7719   7717   7737     1  0.0000000  0.6024960  3
   7726   7719   7720   7739     1  0.0000000  0.6508444  3
   7727   7716   7717   7737     1  0.0000000  0.6508444  3
   7732   7727   7716   7734     1  0.0000000  4.9162000  2
   7732   7727   7716   7734     1  0.0000000  0.6024960  3
   7734   7716   7717   7737     1  0.0000000  4.9162000  2
   7734   7716   7717   7737     1  0.0000000  0.6024960  3
   7734   7721   7720   7739     1  0.0000000  0.6508444  3
   7740   7742   7744   7748     1  0.0000000  0.6508444  3
   7742   7744   7748   7749     1  180.0000771  2.0083200  2
   7742   7744   7748   7749     1  0.0000000  1.2552000  3
   7742   7744   7748   7750     1  180.0000771  2.0083200  2
   7742   7744   7748   7750     1  0.0000000  1.2552000  3
   7744   7748   7749   7760     1  180.0000771  2.0083200  2
   7744   7748   7749   7760     1  0.0000000  1.2552000  3
   7744   7748   7750   7752     1  180.0000771  2.0083200  2
   7744   7748   7750   7752     1  0.0000000  1.2552000  3
   7748   7749   7760   7763     1  0.0000000  0.6508444  3
   7748   7750   7752   7756     1  0.0000000  0.6508444  3
   7749   7760   7763   7764     1  180.0000771  0.0000000  2
   7749   7760   7763   7812     1  180.0000771  0.0000000  2
   7749   7748   7750   7752     1  180.0000771  2.0083200  2
   7749   7748   7750   7752     1  0.0000000  1.2552000  3
   7750   7752   7756   7757     1  180.0000771  0.0000000  2
   7750   7752   7756   7788     1  180.0000771  0.0000000  2
   7750   7748   7749   7760     1  180.0000771  2.0083200  2
   7750   7748   7749   7760     1  0.0000000  1.2552000  3
   7752   7756   7788   7769     1  180.0000771  6.0668000  2
   7752   7756   7788   7769     1  180.0000771  1.4644000  4
   7756   7788   7769   7770     1  0.0000000  1.2552000  3
   7756   7788   7769   7768     1  0.0000000  1.2552000  3
   7757   7756   7788   7769     1  180.0000771  6.0668000  2
   7757   7756   7788   7769     1  180.0000771  1.4644000  4
   7760   7763   7812   7793     1  180.0000771  6.0668000  2
   7760   7763   7812   7793     1  180.0000771  1.4644000  4
   7763   7812   7793   7794     1  0.0000000  1.2552000  3
   7763   7812   7793   7792     1  0.0000000  1.2552000  3
   7764   7763   7812   7793     1  180.0000771  6.0668000  2
   7764   7763   7812   7793     1  180.0000771  1.4644000  4
   7765   7766   7768   7769     1  180.0000771  0.8368000  1
   7765   7766   7768   7769     1  180.0000771  1.0460000  2
   7765   7766   7768   7769     1  0.0000000  0.7531200  3
   7765   7766   7768   7775     1  0.0000000  0.6508444  3
   7765   7783   7770   7774     1  0.0000000  1.6038667  3
   7765   7783   7770   7769     1  180.0000771  0.4184000  2
   7765   7783   7770   7769     1  0.0000000  1.6024720  3
   7766   7768   7769   7770     1  180.0000771  0.8368000  1
   7766   7768   7769   7770     1  180.0000771  1.0460000  2
   7766   7768   7769   7770     1  0.0000000  0.7531200  3
   7766   7768   7769   7788     1  0.0000000  0.6508444  3
   7766   7765   7776   7781     1  0.0000000  0.6508444  3
   7766   7765   7783   7770     1  180.0000771  0.4184000  2
   7766   7765   7783   7770     1  0.0000000  1.6024720  3
   7768   7769   7770   7774     1  0.0000000  0.6508444  3
   7768   7769   7770   7783     1  0.0000000  0.6508444  3
   7768   7766   7765   7776     1  180.0000771  0.8368000  1
   7768   7766   7765   7776     1  180.0000771  1.0460000  2
   7768   7766   7765   7776     1  0.0000000  0.7531200  3
   7768   7766   7765   7783     1  0.0000000  0.6508444  3
   7769   7768   7766   7786     1  0.0000000  0.6508444  3
   7770   7783   7765   7776     1  180.0000771  0.4184000  2
   7770   7783   7765   7776     1  0.0000000  1.6024720  3
   7770   7769   7768   7775     1  0.0000000  0.6508444  3
   7774   7770   7769   7788     1  0.0000000  0.6508444  3
   7775   7768   7769   7788     1  0.0000000  0.6508444  3
   7775   7768   7766   7786     1  0.0000000  4.9162000  2
   7775   7768   7766   7786     1  0.0000000  0.6024960  3
   7776   7765   7766   7786     1  0.0000000  0.6508444  3
   7781   7776   7765   7783     1  0.0000000  4.9162000  2
   7781   7776   7765   7783     1  0.0000000  0.6024960  3
   7783   7770   7769   7788     1  0.0000000  0.6508444  3
   7783   7765   7766   7786     1  0.0000000  4.9162000  2
   7783   7765   7766   7786     1  0.0000000  0.6024960  3
   7789   7790   7792   7793     1  180.0000771  0.8368000  1
   7789   7790   7792   7793     1  180.0000771  1.0460000  2
   7789   7790   7792   7793     1  0.0000000  0.7531200  3
   7789   7790   7792   7799     1  0.0000000  0.6508444  3
   7789   7807   7794   7798     1  0.0000000  1.6038667  3
   7789   7807   7794   7793     1  180.0000771  0.4184000  2
   7789   7807   7794   7793     1  0.0000000  1.6024720  3
   7790   7792   7793   7794     1  180.0000771  0.8368000  1
   7790   7792   7793   7794     1  180.0000771  1.0460000  2
   7790   7792   7793   7794     1  0.0000000  0.7531200  3
   7790   7792   7793   7812     1  0.0000000  0.6508444  3
   7790   7789   7800   7805     1  0.0000000  0.6508444  3
   7790   7789   7807   7794     1  180.0000771  0.4184000  2
   7790   7789   7807   7794     1  0.0000000  1.6024720  3
   7792   7793   7794   7798     1  0.0000000  0.6508444  3
   7792   7793   7794   7807     1  0.0000000  0.6508444  3
   7792   7790   7789   7800     1  180.0000771  0.8368000  1
   7792   7790   7789   7800     1  180.0000771  1.0460000  2
   7792   7790   7789   7800     1  0.0000000  0.7531200  3
   7792   7790   7789   7807     1  0.0000000  0.6508444  3
   7793   7792   7790   7810     1  0.0000000  0.6508444  3
   7794   7807   7789   7800     1  180.0000771  0.4184000  2
   7794   7807   7789   7800     1  0.0000000  1.6024720  3
   7794   7793   7792   7799     1  0.0000000  0.6508444  3
   7798   7794   7793   7812     1  0.0000000  0.6508444  3
   7799   7792   7793   7812     1  0.0000000  0.6508444  3
   7799   7792   7790   7810     1  0.0000000  4.9162000  2
   7799   7792   7790   7810     1  0.0000000  0.6024960  3
   7800   7789   7790   7810     1  0.0000000  0.6508444  3
   7805   7800   7789   7807     1  0.0000000  4.9162000  2
   7805   7800   7789   7807     1  0.0000000  0.6024960  3
   7807   7794   7793   7812     1  0.0000000  0.6508444  3
   7807   7789   7790   7810     1  0.0000000  4.9162000  2
   7807   7789   7790   7810     1  0.0000000  0.6024960  3
   7813   7815   7817   7821     1  0.0000000  0.6508444  3
   7815   7817   7821   7822     1  180.0000771  2.0083200  2
   7815   7817   7821   7822     1  0.0000000  1.2552000  3
   7815   7817   7821   7823     1  180.0000771  2.0083200  2
   7815   7817   7821   7823     1  0.0000000  1.2552000  3
   7817   7821   7822   7833     1  180.0000771  2.0083200  2
   7817   7821   7822   7833     1  0.0000000  1.2552000  3
   7817   7821   7823   7825     1  180.0000771  2.0083200  2
   7817   7821   7823   7825     1  0.0000000  1.2552000  3
   7821   7822   7833   7836     1  0.0000000  0.6508444  3
   7821   7823   7825   7829     1  0.0000000  0.6508444  3
   7822   7821   7823   7825     1  180.0000771  2.0083200  2
   7822   7821   7823   7825     1  0.0000000  1.2552000  3
   7822   7833   7836   7837     1  180.0000771  0.0000000  2
   7822   7833   7836   7885     1  180.0000771  0.0000000  2
   7823   7821   7822   7833     1  180.0000771  2.0083200  2
   7823   7821   7822   7833     1  0.0000000  1.2552000  3
   7823   7825   7829   7830     1  180.0000771  0.0000000  2
   7823   7825   7829   7861     1  180.0000771  0.0000000  2
   7825   7829   7861   7842     1  180.0000771  6.0668000  2
   7825   7829   7861   7842     1  180.0000771  1.4644000  4
   7829   7861   7842   7841     1  0.0000000  1.2552000  3
   7829   7861   7842   7843     1  0.0000000  1.2552000  3
   7830   7829   7861   7842     1  180.0000771  6.0668000  2
   7830   7829   7861   7842     1  180.0000771  1.4644000  4
   7833   7836   7885   7866     1  180.0000771  6.0668000  2
   7833   7836   7885   7866     1  180.0000771  1.4644000  4
   7836   7885   7866   7865     1  0.0000000  1.2552000  3
   7836   7885   7866   7867     1  0.0000000  1.2552000  3
   7837   7836   7885   7866     1  180.0000771  6.0668000  2
   7837   7836   7885   7866     1  180.0000771  1.4644000  4
   7838   7839   7841   7842     1  180.0000771  0.8368000  1
   7838   7839   7841   7842     1  180.0000771  1.0460000  2
   7838   7839   7841   7842     1  0.0000000  0.7531200  3
   7838   7839   7841   7848     1  0.0000000  0.6508444  3
   7838   7856   7843   7842     1  180.0000771  0.4184000  2
   7838   7856   7843   7842     1  0.0000000  1.6024720  3
   7838   7856   7843   7847     1  0.0000000  1.6038667  3
   7839   7838   7849   7854     1  0.0000000  0.6508444  3
   7839   7838   7856   7843     1  180.0000771  0.4184000  2
   7839   7838   7856   7843     1  0.0000000  1.6024720  3
   7839   7841   7842   7843     1  180.0000771  0.8368000  1
   7839   7841   7842   7843     1  180.0000771  1.0460000  2
   7839   7841   7842   7843     1  0.0000000  0.7531200  3
   7839   7841   7842   7861     1  0.0000000  0.6508444  3
   7841   7839   7838   7849     1  180.0000771  0.8368000  1
   7841   7839   7838   7849     1  180.0000771  1.0460000  2
   7841   7839   7838   7849     1  0.0000000  0.7531200  3
   7841   7839   7838   7856     1  0.0000000  0.6508444  3
   7841   7842   7843   7847     1  0.0000000  0.6508444  3
   7841   7842   7843   7856     1  0.0000000  0.6508444  3
   7842   7841   7839   7859     1  0.0000000  0.6508444  3
   7843   7842   7841   7848     1  0.0000000  0.6508444  3
   7843   7856   7838   7849     1  180.0000771  0.4184000  2
   7843   7856   7838   7849     1  0.0000000  1.6024720  3
   7847   7843   7842   7861     1  0.0000000  0.6508444  3
   7848   7841   7839   7859     1  0.0000000  4.9162000  2
   7848   7841   7839   7859     1  0.0000000  0.6024960  3
   7848   7841   7842   7861     1  0.0000000  0.6508444  3
   7849   7838   7839   7859     1  0.0000000  0.6508444  3
   7854   7849   7838   7856     1  0.0000000  4.9162000  2
   7854   7849   7838   7856     1  0.0000000  0.6024960  3
   7856   7838   7839   7859     1  0.0000000  4.9162000  2
   7856   7838   7839   7859     1  0.0000000  0.6024960  3
   7856   7843   7842   7861     1  0.0000000  0.6508444  3
   7862   7863   7865   7866     1  180.0000771  0.8368000  1
   7862   7863   7865   7866     1  180.0000771  1.0460000  2
   7862   7863   7865   7866     1  0.0000000  0.7531200  3
   7862   7863   7865   7872     1  0.0000000  0.6508444  3
   7862   7880   7867   7866     1  180.0000771  0.4184000  2
   7862   7880   7867   7866     1  0.0000000  1.6024720  3
   7862   7880   7867   7871     1  0.0000000  1.6038667  3
   7863   7862   7873   7878     1  0.0000000  0.6508444  3
   7863   7862   7880   7867     1  180.0000771  0.4184000  2
   7863   7862   7880   7867     1  0.0000000  1.6024720  3
   7863   7865   7866   7867     1  180.0000771  0.8368000  1
   7863   7865   7866   7867     1  180.0000771  1.0460000  2
   7863   7865   7866   7867     1  0.0000000  0.7531200  3
   7863   7865   7866   7885     1  0.0000000  0.6508444  3
   7865   7863   7862   7873     1  180.0000771  0.8368000  1
   7865   7863   7862   7873     1  180.0000771  1.0460000  2
   7865   7863   7862   7873     1  0.0000000  0.7531200  3
   7865   7863   7862   7880     1  0.0000000  0.6508444  3
   7865   7866   7867   7871     1  0.0000000  0.6508444  3
   7865   7866   7867   7880     1  0.0000000  0.6508444  3
   7866   7865   7863   7883     1  0.0000000  0.6508444  3
   7867   7866   7865   7872     1  0.0000000  0.6508444  3
   7867   7880   7862   7873     1  180.0000771  0.4184000  2
   7867   7880   7862   7873     1  0.0000000  1.6024720  3
   7871   7867   7866   7885     1  0.0000000  0.6508444  3
   7872   7865   7863   7883     1  0.0000000  4.9162000  2
   7872   7865   7863   7883     1  0.0000000  0.6024960  3
   7872   7865   7866   7885     1  0.0000000  0.6508444  3
   7873   7862   7863   7883     1  0.0000000  0.6508444  3
   7878   7873   7862   7880     1  0.0000000  4.9162000  2
   7878   7873   7862   7880     1  0.0000000  0.6024960  3
   7880   7862   7863   7883     1  0.0000000  4.9162000  2
   7880   7862   7863   7883     1  0.0000000  0.6024960  3
   7880   7867   7866   7885     1  0.0000000  0.6508444  3
   7886   7888   7890   7894     1  0.0000000  0.6508444  3
   7888   7890   7894   7895     1  180.0000771  2.0083200  2
   7888   7890   7894   7895     1  0.0000000  1.2552000  3
   7888   7890   7894   7896     1  180.0000771  2.0083200  2
   7888   7890   7894   7896     1  0.0000000  1.2552000  3
   7890   7894   7895   7906     1  180.0000771  2.0083200  2
   7890   7894   7895   7906     1  0.0000000  1.2552000  3
   7890   7894   7896   7898     1  180.0000771  2.0083200  2
   7890   7894   7896   7898     1  0.0000000  1.2552000  3
   7894   7895   7906   7909     1  0.0000000  0.6508444  3
   7894   7896   7898   7902     1  0.0000000  0.6508444  3
   7895   7906   7909   7910     1  180.0000771  0.0000000  2
   7895   7906   7909   7958     1  180.0000771  0.0000000  2
   7895   7894   7896   7898     1  180.0000771  2.0083200  2
   7895   7894   7896   7898     1  0.0000000  1.2552000  3
   7896   7898   7902   7903     1  180.0000771  0.0000000  2
   7896   7898   7902   7934     1  180.0000771  0.0000000  2
   7896   7894   7895   7906     1  180.0000771  2.0083200  2
   7896   7894   7895   7906     1  0.0000000  1.2552000  3
   7898   7902   7934   7915     1  180.0000771  6.0668000  2
   7898   7902   7934   7915     1  180.0000771  1.4644000  4
   7902   7934   7915   7916     1  0.0000000  1.2552000  3
   7902   7934   7915   7914     1  0.0000000  1.2552000  3
   7903   7902   7934   7915     1  180.0000771  6.0668000  2
   7903   7902   7934   7915     1  180.0000771  1.4644000  4
   7906   7909   7958   7939     1  180.0000771  6.0668000  2
   7906   7909   7958   7939     1  180.0000771  1.4644000  4
   7909   7958   7939   7940     1  0.0000000  1.2552000  3
   7909   7958   7939   7938     1  0.0000000  1.2552000  3
   7910   7909   7958   7939     1  180.0000771  6.0668000  2
   7910   7909   7958   7939     1  180.0000771  1.4644000  4
   7911   7912   7914   7915     1  180.0000771  0.8368000  1
   7911   7912   7914   7915     1  180.0000771  1.0460000  2
   7911   7912   7914   7915     1  0.0000000  0.7531200  3
   7911   7912   7914   7921     1  0.0000000  0.6508444  3
   7911   7929   7916   7920     1  0.0000000  1.6038667  3
   7911   7929   7916   7915     1  180.0000771  0.4184000  2
   7911   7929   7916   7915     1  0.0000000  1.6024720  3
   7912   7914   7915   7916     1  180.0000771  0.8368000  1
   7912   7914   7915   7916     1  180.0000771  1.0460000  2
   7912   7914   7915   7916     1  0.0000000  0.7531200  3
   7912   7914   7915   7934     1  0.0000000  0.6508444  3
   7912   7911   7922   7927     1  0.0000000  0.6508444  3
   7912   7911   7929   7916     1  180.0000771  0.4184000  2
   7912   7911   7929   7916     1  0.0000000  1.6024720  3
   7914   7915   7916   7920     1  0.0000000  0.6508444  3
   7914   7915   7916   7929     1  0.0000000  0.6508444  3
   7914   7912   7911   7922     1  180.0000771  0.8368000  1
   7914   7912   7911   7922     1  180.0000771  1.0460000  2
   7914   7912   7911   7922     1  0.0000000  0.7531200  3
   7914   7912   7911   7929     1  0.0000000  0.6508444  3
   7915   7914   7912   7932     1  0.0000000  0.6508444  3
   7916   7929   7911   7922     1  180.0000771  0.4184000  2
   7916   7929   7911   7922     1  0.0000000  1.6024720  3
   7916   7915   7914   7921     1  0.0000000  0.6508444  3
   7920   7916   7915   7934     1  0.0000000  0.6508444  3
   7921   7914   7915   7934     1  0.0000000  0.6508444  3
   7921   7914   7912   7932     1  0.0000000  4.9162000  2
   7921   7914   7912   7932     1  0.0000000  0.6024960  3
   7922   7911   7912   7932     1  0.0000000  0.6508444  3
   7927   7922   7911   7929     1  0.0000000  4.9162000  2
   7927   7922   7911   7929     1  0.0000000  0.6024960  3
   7929   7916   7915   7934     1  0.0000000  0.6508444  3
   7929   7911   7912   7932     1  0.0000000  4.9162000  2
   7929   7911   7912   7932     1  0.0000000  0.6024960  3
   7935   7936   7938   7939     1  180.0000771  0.8368000  1
   7935   7936   7938   7939     1  180.0000771  1.0460000  2
   7935   7936   7938   7939     1  0.0000000  0.7531200  3
   7935   7936   7938   7945     1  0.0000000  0.6508444  3
   7935   7953   7940   7944     1  0.0000000  1.6038667  3
   7935   7953   7940   7939     1  180.0000771  0.4184000  2
   7935   7953   7940   7939     1  0.0000000  1.6024720  3
   7936   7938   7939   7940     1  180.0000771  0.8368000  1
   7936   7938   7939   7940     1  180.0000771  1.0460000  2
   7936   7938   7939   7940     1  0.0000000  0.7531200  3
   7936   7938   7939   7958     1  0.0000000  0.6508444  3
   7936   7935   7946   7951     1  0.0000000  0.6508444  3
   7936   7935   7953   7940     1  180.0000771  0.4184000  2
   7936   7935   7953   7940     1  0.0000000  1.6024720  3
   7938   7939   7940   7944     1  0.0000000  0.6508444  3
   7938   7939   7940   7953     1  0.0000000  0.6508444  3
   7938   7936   7935   7946     1  180.0000771  0.8368000  1
   7938   7936   7935   7946     1  180.0000771  1.0460000  2
   7938   7936   7935   7946     1  0.0000000  0.7531200  3
   7938   7936   7935   7953     1  0.0000000  0.6508444  3
   7939   7938   7936   7956     1  0.0000000  0.6508444  3
   7940   7953   7935   7946     1  180.0000771  0.4184000  2
   7940   7953   7935   7946     1  0.0000000  1.6024720  3
   7940   7939   7938   7945     1  0.0000000  0.6508444  3
   7944   7940   7939   7958     1  0.0000000  0.6508444  3
   7945   7938   7939   7958     1  0.0000000  0.6508444  3
   7945   7938   7936   7956     1  0.0000000  4.9162000  2
   7945   7938   7936   7956     1  0.0000000  0.6024960  3
   7946   7935   7936   7956     1  0.0000000  0.6508444  3
   7951   7946   7935   7953     1  0.0000000  4.9162000  2
   7951   7946   7935   7953     1  0.0000000  0.6024960  3
   7953   7940   7939   7958     1  0.0000000  0.6508444  3
   7953   7935   7936   7956     1  0.0000000  4.9162000  2
   7953   7935   7936   7956     1  0.0000000  0.6024960  3
   7959   7961   7963   7967     1  0.0000000  0.6508444  3
   7961   7963   7967   7968     1  180.0000771  2.0083200  2
   7961   7963   7967   7968     1  0.0000000  1.2552000  3
   7961   7963   7967   7969     1  180.0000771  2.0083200  2
   7961   7963   7967   7969     1  0.0000000  1.2552000  3
   7963   7967   7968   7979     1  180.0000771  2.0083200  2
   7963   7967   7968   7979     1  0.0000000  1.2552000  3
   7963   7967   7969   7971     1  180.0000771  2.0083200  2
   7963   7967   7969   7971     1  0.0000000  1.2552000  3
   7967   7968   7979   7982     1  0.0000000  0.6508444  3
   7967   7969   7971   7975     1  0.0000000  0.6508444  3
   7968   7967   7969   7971     1  180.0000771  2.0083200  2
   7968   7967   7969   7971     1  0.0000000  1.2552000  3
   7968   7979   7982   7983     1  180.0000771  0.0000000  2
   7968   7979   7982   8031     1  180.0000771  0.0000000  2
   7969   7967   7968   7979     1  180.0000771  2.0083200  2
   7969   7967   7968   7979     1  0.0000000  1.2552000  3
   7969   7971   7975   7976     1  180.0000771  0.0000000  2
   7969   7971   7975   8007     1  180.0000771  0.0000000  2
   7971   7975   8007   7988     1  180.0000771  6.0668000  2
   7971   7975   8007   7988     1  180.0000771  1.4644000  4
   7975   8007   7988   7987     1  0.0000000  1.2552000  3
   7975   8007   7988   7989     1  0.0000000  1.2552000  3
   7976   7975   8007   7988     1  180.0000771  6.0668000  2
   7976   7975   8007   7988     1  180.0000771  1.4644000  4
   7979   7982   8031   8012     1  180.0000771  6.0668000  2
   7979   7982   8031   8012     1  180.0000771  1.4644000  4
   7982   8031   8012   8011     1  0.0000000  1.2552000  3
   7982   8031   8012   8013     1  0.0000000  1.2552000  3
   7983   7982   8031   8012     1  180.0000771  6.0668000  2
   7983   7982   8031   8012     1  180.0000771  1.4644000  4
   7984   7985   7987   7988     1  180.0000771  0.8368000  1
   7984   7985   7987   7988     1  180.0000771  1.0460000  2
   7984   7985   7987   7988     1  0.0000000  0.7531200  3
   7984   7985   7987   7994     1  0.0000000  0.6508444  3
   7984   8002   7989   7988     1  180.0000771  0.4184000  2
   7984   8002   7989   7988     1  0.0000000  1.6024720  3
   7984   8002   7989   7993     1  0.0000000  1.6038667  3
   7985   7984   7995   8000     1  0.0000000  0.6508444  3
   7985   7984   8002   7989     1  180.0000771  0.4184000  2
   7985   7984   8002   7989     1  0.0000000  1.6024720  3
   7985   7987   7988   7989     1  180.0000771  0.8368000  1
   7985   7987   7988   7989     1  180.0000771  1.0460000  2
   7985   7987   7988   7989     1  0.0000000  0.7531200  3
   7985   7987   7988   8007     1  0.0000000  0.6508444  3
   7987   7985   7984   7995     1  180.0000771  0.8368000  1
   7987   7985   7984   7995     1  180.0000771  1.0460000  2
   7987   7985   7984   7995     1  0.0000000  0.7531200  3
   7987   7985   7984   8002     1  0.0000000  0.6508444  3
   7987   7988   7989   7993     1  0.0000000  0.6508444  3
   7987   7988   7989   8002     1  0.0000000  0.6508444  3
   7988   7987   7985   8005     1  0.0000000  0.6508444  3
   7989   7988   7987   7994     1  0.0000000  0.6508444  3
   7989   8002   7984   7995     1  180.0000771  0.4184000  2
   7989   8002   7984   7995     1  0.0000000  1.6024720  3
   7993   7989   7988   8007     1  0.0000000  0.6508444  3
   7994   7987   7985   8005     1  0.0000000  4.9162000  2
   7994   7987   7985   8005     1  0.0000000  0.6024960  3
   7994   7987   7988   8007     1  0.0000000  0.6508444  3
   7995   7984   7985   8005     1  0.0000000  0.6508444  3
   8000   7995   7984   8002     1  0.0000000  4.9162000  2
   8000   7995   7984   8002     1  0.0000000  0.6024960  3
   8002   7984   7985   8005     1  0.0000000  4.9162000  2
   8002   7984   7985   8005     1  0.0000000  0.6024960  3
   8002   7989   7988   8007     1  0.0000000  0.6508444  3
   8008   8009   8011   8012     1  180.0000771  0.8368000  1
   8008   8009   8011   8012     1  180.0000771  1.0460000  2
   8008   8009   8011   8012     1  0.0000000  0.7531200  3
   8008   8009   8011   8018     1  0.0000000  0.6508444  3
   8008   8026   8013   8012     1  180.0000771  0.4184000  2
   8008   8026   8013   8012     1  0.0000000  1.6024720  3
   8008   8026   8013   8017     1  0.0000000  1.6038667  3
   8009   8008   8019   8024     1  0.0000000  0.6508444  3
   8009   8008   8026   8013     1  180.0000771  0.4184000  2
   8009   8008   8026   8013     1  0.0000000  1.6024720  3
   8009   8011   8012   8013     1  180.0000771  0.8368000  1
   8009   8011   8012   8013     1  180.0000771  1.0460000  2
   8009   8011   8012   8013     1  0.0000000  0.7531200  3
   8009   8011   8012   8031     1  0.0000000  0.6508444  3
   8011   8009   8008   8019     1  180.0000771  0.8368000  1
   8011   8009   8008   8019     1  180.0000771  1.0460000  2
   8011   8009   8008   8019     1  0.0000000  0.7531200  3
   8011   8009   8008   8026     1  0.0000000  0.6508444  3
   8011   8012   8013   8017     1  0.0000000  0.6508444  3
   8011   8012   8013   8026     1  0.0000000  0.6508444  3
   8012   8011   8009   8029     1  0.0000000  0.6508444  3
   8013   8012   8011   8018     1  0.0000000  0.6508444  3
   8013   8026   8008   8019     1  180.0000771  0.4184000  2
   8013   8026   8008   8019     1  0.0000000  1.6024720  3
   8017   8013   8012   8031     1  0.0000000  0.6508444  3
   8018   8011   8009   8029     1  0.0000000  4.9162000  2
   8018   8011   8009   8029     1  0.0000000  0.6024960  3
   8018   8011   8012   8031     1  0.0000000  0.6508444  3
   8019   8008   8009   8029     1  0.0000000  0.6508444  3
   8024   8019   8008   8026     1  0.0000000  4.9162000  2
   8024   8019   8008   8026     1  0.0000000  0.6024960  3
   8026   8008   8009   8029     1  0.0000000  4.9162000  2
   8026   8008   8009   8029     1  0.0000000  0.6024960  3
   8026   8013   8012   8031     1  0.0000000  0.6508444  3
   8032   8034   8036   8040     1  0.0000000  0.6508444  3
   8034   8036   8040   8041     1  180.0000771  2.0083200  2
   8034   8036   8040   8041     1  0.0000000  1.2552000  3
   8034   8036   8040   8042     1  180.0000771  2.0083200  2
   8034   8036   8040   8042     1  0.0000000  1.2552000  3
   8036   8040   8041   8052     1  180.0000771  2.0083200  2
   8036   8040   8041   8052     1  0.0000000  1.2552000  3
   8036   8040   8042   8044     1  180.0000771  2.0083200  2
   8036   8040   8042   8044     1  0.0000000  1.2552000  3
   8040   8041   8052   8055     1  0.0000000  0.6508444  3
   8040   8042   8044   8048     1  0.0000000  0.6508444  3
   8041   8052   8055   8056     1  180.0000771  0.0000000  2
   8041   8052   8055   8104     1  180.0000771  0.0000000  2
   8041   8040   8042   8044     1  180.0000771  2.0083200  2
   8041   8040   8042   8044     1  0.0000000  1.2552000  3
   8042   8044   8048   8049     1  180.0000771  0.0000000  2
   8042   8044   8048   8080     1  180.0000771  0.0000000  2
   8042   8040   8041   8052     1  180.0000771  2.0083200  2
   8042   8040   8041   8052     1  0.0000000  1.2552000  3
   8044   8048   8080   8061     1  180.0000771  6.0668000  2
   8044   8048   8080   8061     1  180.0000771  1.4644000  4
   8048   8080   8061   8062     1  0.0000000  1.2552000  3
   8048   8080   8061   8060     1  0.0000000  1.2552000  3
   8049   8048   8080   8061     1  180.0000771  6.0668000  2
   8049   8048   8080   8061     1  180.0000771  1.4644000  4
   8052   8055   8104   8085     1  180.0000771  6.0668000  2
   8052   8055   8104   8085     1  180.0000771  1.4644000  4
   8055   8104   8085   8086     1  0.0000000  1.2552000  3
   8055   8104   8085   8084     1  0.0000000  1.2552000  3
   8056   8055   8104   8085     1  180.0000771  6.0668000  2
   8056   8055   8104   8085     1  180.0000771  1.4644000  4
   8057   8058   8060   8061     1  180.0000771  0.8368000  1
   8057   8058   8060   8061     1  180.0000771  1.0460000  2
   8057   8058   8060   8061     1  0.0000000  0.7531200  3
   8057   8058   8060   8067     1  0.0000000  0.6508444  3
   8057   8075   8062   8066     1  0.0000000  1.6038667  3
   8057   8075   8062   8061     1  180.0000771  0.4184000  2
   8057   8075   8062   8061     1  0.0000000  1.6024720  3
   8058   8060   8061   8062     1  180.0000771  0.8368000  1
   8058   8060   8061   8062     1  180.0000771  1.0460000  2
   8058   8060   8061   8062     1  0.0000000  0.7531200  3
   8058   8060   8061   8080     1  0.0000000  0.6508444  3
   8058   8057   8068   8073     1  0.0000000  0.6508444  3
   8058   8057   8075   8062     1  180.0000771  0.4184000  2
   8058   8057   8075   8062     1  0.0000000  1.6024720  3
   8060   8061   8062   8066     1  0.0000000  0.6508444  3
   8060   8061   8062   8075     1  0.0000000  0.6508444  3
   8060   8058   8057   8068     1  180.0000771  0.8368000  1
   8060   8058   8057   8068     1  180.0000771  1.0460000  2
   8060   8058   8057   8068     1  0.0000000  0.7531200  3
   8060   8058   8057   8075     1  0.0000000  0.6508444  3
   8061   8060   8058   8078     1  0.0000000  0.6508444  3
   8062   8075   8057   8068     1  180.0000771  0.4184000  2
   8062   8075   8057   8068     1  0.0000000  1.6024720  3
   8062   8061   8060   8067     1  0.0000000  0.6508444  3
   8066   8062   8061   8080     1  0.0000000  0.6508444  3
   8067   8060   8061   8080     1  0.0000000  0.6508444  3
   8067   8060   8058   8078     1  0.0000000  4.9162000  2
   8067   8060   8058   8078     1  0.0000000  0.6024960  3
   8068   8057   8058   8078     1  0.0000000  0.6508444  3
   8073   8068   8057   8075     1  0.0000000  4.9162000  2
   8073   8068   8057   8075     1  0.0000000  0.6024960  3
   8075   8062   8061   8080     1  0.0000000  0.6508444  3
   8075   8057   8058   8078     1  0.0000000  4.9162000  2
   8075   8057   8058   8078     1  0.0000000  0.6024960  3
   8081   8082   8084   8085     1  180.0000771  0.8368000  1
   8081   8082   8084   8085     1  180.0000771  1.0460000  2
   8081   8082   8084   8085     1  0.0000000  0.7531200  3
   8081   8082   8084   8091     1  0.0000000  0.6508444  3
   8081   8099   8086   8090     1  0.0000000  1.6038667  3
   8081   8099   8086   8085     1  180.0000771  0.4184000  2
   8081   8099   8086   8085     1  0.0000000  1.6024720  3
   8082   8084   8085   8086     1  180.0000771  0.8368000  1
   8082   8084   8085   8086     1  180.0000771  1.0460000  2
   8082   8084   8085   8086     1  0.0000000  0.7531200  3
   8082   8084   8085   8104     1  0.0000000  0.6508444  3
   8082   8081   8092   8097     1  0.0000000  0.6508444  3
   8082   8081   8099   8086     1  180.0000771  0.4184000  2
   8082   8081   8099   8086     1  0.0000000  1.6024720  3
   8084   8085   8086   8090     1  0.0000000  0.6508444  3
   8084   8085   8086   8099     1  0.0000000  0.6508444  3
   8084   8082   8081   8092     1  180.0000771  0.8368000  1
   8084   8082   8081   8092     1  180.0000771  1.0460000  2
   8084   8082   8081   8092     1  0.0000000  0.7531200  3
   8084   8082   8081   8099     1  0.0000000  0.6508444  3
   8085   8084   8082   8102     1  0.0000000  0.6508444  3
   8086   8099   8081   8092     1  180.0000771  0.4184000  2
   8086   8099   8081   8092     1  0.0000000  1.6024720  3
   8086   8085   8084   8091     1  0.0000000  0.6508444  3
   8090   8086   8085   8104     1  0.0000000  0.6508444  3
   8091   8084   8085   8104     1  0.0000000  0.6508444  3
   8091   8084   8082   8102     1  0.0000000  4.9162000  2
   8091   8084   8082   8102     1  0.0000000  0.6024960  3
   8092   8081   8082   8102     1  0.0000000  0.6508444  3
   8097   8092   8081   8099     1  0.0000000  4.9162000  2
   8097   8092   8081   8099     1  0.0000000  0.6024960  3
   8099   8086   8085   8104     1  0.0000000  0.6508444  3
   8099   8081   8082   8102     1  0.0000000  4.9162000  2
   8099   8081   8082   8102     1  0.0000000  0.6024960  3
   8105   8107   8109   8113     1  0.0000000  0.6508444  3
   8107   8109   8113   8114     1  180.0000771  2.0083200  2
   8107   8109   8113   8114     1  0.0000000  1.2552000  3
   8107   8109   8113   8115     1  180.0000771  2.0083200  2
   8107   8109   8113   8115     1  0.0000000  1.2552000  3
   8109   8113   8114   8125     1  180.0000771  2.0083200  2
   8109   8113   8114   8125     1  0.0000000  1.2552000  3
   8109   8113   8115   8117     1  180.0000771  2.0083200  2
   8109   8113   8115   8117     1  0.0000000  1.2552000  3
   8113   8114   8125   8128     1  0.0000000  0.6508444  3
   8113   8115   8117   8121     1  0.0000000  0.6508444  3
   8114   8113   8115   8117     1  180.0000771  2.0083200  2
   8114   8113   8115   8117     1  0.0000000  1.2552000  3
   8114   8125   8128   8129     1  180.0000771  0.0000000  2
   8114   8125   8128   8177     1  180.0000771  0.0000000  2
   8115   8113   8114   8125     1  180.0000771  2.0083200  2
   8115   8113   8114   8125     1  0.0000000  1.2552000  3
   8115   8117   8121   8122     1  180.0000771  0.0000000  2
   8115   8117   8121   8153     1  180.0000771  0.0000000  2
   8117   8121   8153   8134     1  180.0000771  6.0668000  2
   8117   8121   8153   8134     1  180.0000771  1.4644000  4
   8121   8153   8134   8133     1  0.0000000  1.2552000  3
   8121   8153   8134   8135     1  0.0000000  1.2552000  3
   8122   8121   8153   8134     1  180.0000771  6.0668000  2
   8122   8121   8153   8134     1  180.0000771  1.4644000  4
   8125   8128   8177   8158     1  180.0000771  6.0668000  2
   8125   8128   8177   8158     1  180.0000771  1.4644000  4
   8128   8177   8158   8157     1  0.0000000  1.2552000  3
   8128   8177   8158   8159     1  0.0000000  1.2552000  3
   8129   8128   8177   8158     1  180.0000771  6.0668000  2
   8129   8128   8177   8158     1  180.0000771  1.4644000  4
   8130   8131   8133   8134     1  180.0000771  0.8368000  1
   8130   8131   8133   8134     1  180.0000771  1.0460000  2
   8130   8131   8133   8134     1  0.0000000  0.7531200  3
   8130   8131   8133   8140     1  0.0000000  0.6508444  3
   8130   8148   8135   8134     1  180.0000771  0.4184000  2
   8130   8148   8135   8134     1  0.0000000  1.6024720  3
   8130   8148   8135   8139     1  0.0000000  1.6038667  3
   8131   8130   8141   8146     1  0.0000000  0.6508444  3
   8131   8130   8148   8135     1  180.0000771  0.4184000  2
   8131   8130   8148   8135     1  0.0000000  1.6024720  3
   8131   8133   8134   8135     1  180.0000771  0.8368000  1
   8131   8133   8134   8135     1  180.0000771  1.0460000  2
   8131   8133   8134   8135     1  0.0000000  0.7531200  3
   8131   8133   8134   8153     1  0.0000000  0.6508444  3
   8133   8131   8130   8141     1  180.0000771  0.8368000  1
   8133   8131   8130   8141     1  180.0000771  1.0460000  2
   8133   8131   8130   8141     1  0.0000000  0.7531200  3
   8133   8131   8130   8148     1  0.0000000  0.6508444  3
   8133   8134   8135   8139     1  0.0000000  0.6508444  3
   8133   8134   8135   8148     1  0.0000000  0.6508444  3
   8134   8133   8131   8151     1  0.0000000  0.6508444  3
   8135   8134   8133   8140     1  0.0000000  0.6508444  3
   8135   8148   8130   8141     1  180.0000771  0.4184000  2
   8135   8148   8130   8141     1  0.0000000  1.6024720  3
   8139   8135   8134   8153     1  0.0000000  0.6508444  3
   8140   8133   8131   8151     1  0.0000000  4.9162000  2
   8140   8133   8131   8151     1  0.0000000  0.6024960  3
   8140   8133   8134   8153     1  0.0000000  0.6508444  3
   8141   8130   8131   8151     1  0.0000000  0.6508444  3
   8146   8141   8130   8148     1  0.0000000  4.9162000  2
   8146   8141   8130   8148     1  0.0000000  0.6024960  3
   8148   8130   8131   8151     1  0.0000000  4.9162000  2
   8148   8130   8131   8151     1  0.0000000  0.6024960  3
   8148   8135   8134   8153     1  0.0000000  0.6508444  3
   8154   8155   8157   8158     1  180.0000771  0.8368000  1
   8154   8155   8157   8158     1  180.0000771  1.0460000  2
   8154   8155   8157   8158     1  0.0000000  0.7531200  3
   8154   8155   8157   8164     1  0.0000000  0.6508444  3
   8154   8172   8159   8158     1  180.0000771  0.4184000  2
   8154   8172   8159   8158     1  0.0000000  1.6024720  3
   8154   8172   8159   8163     1  0.0000000  1.6038667  3
   8155   8154   8165   8170     1  0.0000000  0.6508444  3
   8155   8154   8172   8159     1  180.0000771  0.4184000  2
   8155   8154   8172   8159     1  0.0000000  1.6024720  3
   8155   8157   8158   8159     1  180.0000771  0.8368000  1
   8155   8157   8158   8159     1  180.0000771  1.0460000  2
   8155   8157   8158   8159     1  0.0000000  0.7531200  3
   8155   8157   8158   8177     1  0.0000000  0.6508444  3
   8157   8155   8154   8165     1  180.0000771  0.8368000  1
   8157   8155   8154   8165     1  180.0000771  1.0460000  2
   8157   8155   8154   8165     1  0.0000000  0.7531200  3
   8157   8155   8154   8172     1  0.0000000  0.6508444  3
   8157   8158   8159   8163     1  0.0000000  0.6508444  3
   8157   8158   8159   8172     1  0.0000000  0.6508444  3
   8158   8157   8155   8175     1  0.0000000  0.6508444  3
   8159   8158   8157   8164     1  0.0000000  0.6508444  3
   8159   8172   8154   8165     1  180.0000771  0.4184000  2
   8159   8172   8154   8165     1  0.0000000  1.6024720  3
   8163   8159   8158   8177     1  0.0000000  0.6508444  3
   8164   8157   8155   8175     1  0.0000000  4.9162000  2
   8164   8157   8155   8175     1  0.0000000  0.6024960  3
   8164   8157   8158   8177     1  0.0000000  0.6508444  3
   8165   8154   8155   8175     1  0.0000000  0.6508444  3
   8170   8165   8154   8172     1  0.0000000  4.9162000  2
   8170   8165   8154   8172     1  0.0000000  0.6024960  3
   8172   8154   8155   8175     1  0.0000000  4.9162000  2
   8172   8154   8155   8175     1  0.0000000  0.6024960  3
   8172   8159   8158   8177     1  0.0000000  0.6508444  3
   8178   8180   8182   8186     1  0.0000000  0.6508444  3
   8180   8182   8186   8187     1  180.0000771  2.0083200  2
   8180   8182   8186   8187     1  0.0000000  1.2552000  3
   8180   8182   8186   8188     1  180.0000771  2.0083200  2
   8180   8182   8186   8188     1  0.0000000  1.2552000  3
   8182   8186   8187   8198     1  180.0000771  2.0083200  2
   8182   8186   8187   8198     1  0.0000000  1.2552000  3
   8182   8186   8188   8190     1  180.0000771  2.0083200  2
   8182   8186   8188   8190     1  0.0000000  1.2552000  3
   8186   8187   8198   8201     1  0.0000000  0.6508444  3
   8186   8188   8190   8194     1  0.0000000  0.6508444  3
   8187   8198   8201   8202     1  180.0000771  0.0000000  2
   8187   8198   8201   8250     1  180.0000771  0.0000000  2
   8187   8186   8188   8190     1  180.0000771  2.0083200  2
   8187   8186   8188   8190     1  0.0000000  1.2552000  3
   8188   8190   8194   8195     1  180.0000771  0.0000000  2
   8188   8190   8194   8226     1  180.0000771  0.0000000  2
   8188   8186   8187   8198     1  180.0000771  2.0083200  2
   8188   8186   8187   8198     1  0.0000000  1.2552000  3
   8190   8194   8226   8207     1  180.0000771  6.0668000  2
   8190   8194   8226   8207     1  180.0000771  1.4644000  4
   8194   8226   8207   8208     1  0.0000000  1.2552000  3
   8194   8226   8207   8206     1  0.0000000  1.2552000  3
   8195   8194   8226   8207     1  180.0000771  6.0668000  2
   8195   8194   8226   8207     1  180.0000771  1.4644000  4
   8198   8201   8250   8231     1  180.0000771  6.0668000  2
   8198   8201   8250   8231     1  180.0000771  1.4644000  4
   8201   8250   8231   8232     1  0.0000000  1.2552000  3
   8201   8250   8231   8230     1  0.0000000  1.2552000  3
   8202   8201   8250   8231     1  180.0000771  6.0668000  2
   8202   8201   8250   8231     1  180.0000771  1.4644000  4
   8203   8204   8206   8207     1  180.0000771  0.8368000  1
   8203   8204   8206   8207     1  180.0000771  1.0460000  2
   8203   8204   8206   8207     1  0.0000000  0.7531200  3
   8203   8204   8206   8213     1  0.0000000  0.6508444  3
   8203   8221   8208   8212     1  0.0000000  1.6038667  3
   8203   8221   8208   8207     1  180.0000771  0.4184000  2
   8203   8221   8208   8207     1  0.0000000  1.6024720  3
   8204   8206   8207   8208     1  180.0000771  0.8368000  1
   8204   8206   8207   8208     1  180.0000771  1.0460000  2
   8204   8206   8207   8208     1  0.0000000  0.7531200  3
   8204   8206   8207   8226     1  0.0000000  0.6508444  3
   8204   8203   8214   8219     1  0.0000000  0.6508444  3
   8204   8203   8221   8208     1  180.0000771  0.4184000  2
   8204   8203   8221   8208     1  0.0000000  1.6024720  3
   8206   8207   8208   8212     1  0.0000000  0.6508444  3
   8206   8207   8208   8221     1  0.0000000  0.6508444  3
   8206   8204   8203   8214     1  180.0000771  0.8368000  1
   8206   8204   8203   8214     1  180.0000771  1.0460000  2
   8206   8204   8203   8214     1  0.0000000  0.7531200  3
   8206   8204   8203   8221     1  0.0000000  0.6508444  3
   8207   8206   8204   8224     1  0.0000000  0.6508444  3
   8208   8221   8203   8214     1  180.0000771  0.4184000  2
   8208   8221   8203   8214     1  0.0000000  1.6024720  3
   8208   8207   8206   8213     1  0.0000000  0.6508444  3
   8212   8208   8207   8226     1  0.0000000  0.6508444  3
   8213   8206   8207   8226     1  0.0000000  0.6508444  3
   8213   8206   8204   8224     1  0.0000000  4.9162000  2
   8213   8206   8204   8224     1  0.0000000  0.6024960  3
   8214   8203   8204   8224     1  0.0000000  0.6508444  3
   8219   8214   8203   8221     1  0.0000000  4.9162000  2
   8219   8214   8203   8221     1  0.0000000  0.6024960  3
   8221   8208   8207   8226     1  0.0000000  0.6508444  3
   8221   8203   8204   8224     1  0.0000000  4.9162000  2
   8221   8203   8204   8224     1  0.0000000  0.6024960  3
   8227   8228   8230   8231     1  180.0000771  0.8368000  1
   8227   8228   8230   8231     1  180.0000771  1.0460000  2
   8227   8228   8230   8231     1  0.0000000  0.7531200  3
   8227   8228   8230   8237     1  0.0000000  0.6508444  3
   8227   8245   8232   8236     1  0.0000000  1.6038667  3
   8227   8245   8232   8231     1  180.0000771  0.4184000  2
   8227   8245   8232   8231     1  0.0000000  1.6024720  3
   8228   8230   8231   8232     1  180.0000771  0.8368000  1
   8228   8230   8231   8232     1  180.0000771  1.0460000  2
   8228   8230   8231   8232     1  0.0000000  0.7531200  3
   8228   8230   8231   8250     1  0.0000000  0.6508444  3
   8228   8227   8238   8243     1  0.0000000  0.6508444  3
   8228   8227   8245   8232     1  180.0000771  0.4184000  2
   8228   8227   8245   8232     1  0.0000000  1.6024720  3
   8230   8231   8232   8236     1  0.0000000  0.6508444  3
   8230   8231   8232   8245     1  0.0000000  0.6508444  3
   8230   8228   8227   8238     1  180.0000771  0.8368000  1
   8230   8228   8227   8238     1  180.0000771  1.0460000  2
   8230   8228   8227   8238     1  0.0000000  0.7531200  3
   8230   8228   8227   8245     1  0.0000000  0.6508444  3
   8231   8230   8228   8248     1  0.0000000  0.6508444  3
   8232   8245   8227   8238     1  180.0000771  0.4184000  2
   8232   8245   8227   8238     1  0.0000000  1.6024720  3
   8232   8231   8230   8237     1  0.0000000  0.6508444  3
   8236   8232   8231   8250     1  0.0000000  0.6508444  3
   8237   8230   8231   8250     1  0.0000000  0.6508444  3
   8237   8230   8228   8248     1  0.0000000  4.9162000  2
   8237   8230   8228   8248     1  0.0000000  0.6024960  3
   8238   8227   8228   8248     1  0.0000000  0.6508444  3
   8243   8238   8227   8245     1  0.0000000  4.9162000  2
   8243   8238   8227   8245     1  0.0000000  0.6024960  3
   8245   8232   8231   8250     1  0.0000000  0.6508444  3
   8245   8227   8228   8248     1  0.0000000  4.9162000  2
   8245   8227   8228   8248     1  0.0000000  0.6024960  3
   8251   8253   8255   8259     1  0.0000000  0.6508444  3
   8253   8255   8259   8260     1  180.0000771  2.0083200  2
   8253   8255   8259   8260     1  0.0000000  1.2552000  3
   8253   8255   8259   8261     1  180.0000771  2.0083200  2
   8253   8255   8259   8261     1  0.0000000  1.2552000  3
   8255   8259   8260   8271     1  180.0000771  2.0083200  2
   8255   8259   8260   8271     1  0.0000000  1.2552000  3
   8255   8259   8261   8263     1  180.0000771  2.0083200  2
   8255   8259   8261   8263     1  0.0000000  1.2552000  3
   8259   8260   8271   8274     1  0.0000000  0.6508444  3
   8259   8261   8263   8267     1  0.0000000  0.6508444  3
   8260   8259   8261   8263     1  180.0000771  2.0083200  2
   8260   8259   8261   8263     1  0.0000000  1.2552000  3
   8260   8271   8274   8275     1  180.0000771  0.0000000  2
   8260   8271   8274   8323     1  180.0000771  0.0000000  2
   8261   8259   8260   8271     1  180.0000771  2.0083200  2
   8261   8259   8260   8271     1  0.0000000  1.2552000  3
   8261   8263   8267   8268     1  180.0000771  0.0000000  2
   8261   8263   8267   8299     1  180.0000771  0.0000000  2
   8263   8267   8299   8280     1  180.0000771  6.0668000  2
   8263   8267   8299   8280     1  180.0000771  1.4644000  4
   8267   8299   8280   8279     1  0.0000000  1.2552000  3
   8267   8299   8280   8281     1  0.0000000  1.2552000  3
   8268   8267   8299   8280     1  180.0000771  6.0668000  2
   8268   8267   8299   8280     1  180.0000771  1.4644000  4
   8271   8274   8323   8304     1  180.0000771  6.0668000  2
   8271   8274   8323   8304     1  180.0000771  1.4644000  4
   8274   8323   8304   8303     1  0.0000000  1.2552000  3
   8274   8323   8304   8305     1  0.0000000  1.2552000  3
   8275   8274   8323   8304     1  180.0000771  6.0668000  2
   8275   8274   8323   8304     1  180.0000771  1.4644000  4
   8276   8277   8279   8280     1  180.0000771  0.8368000  1
   8276   8277   8279   8280     1  180.0000771  1.0460000  2
   8276   8277   8279   8280     1  0.0000000  0.7531200  3
   8276   8277   8279   8286     1  0.0000000  0.6508444  3
   8276   8294   8281   8280     1  180.0000771  0.4184000  2
   8276   8294   8281   8280     1  0.0000000  1.6024720  3
   8276   8294   8281   8285     1  0.0000000  1.6038667  3
   8277   8276   8287   8292     1  0.0000000  0.6508444  3
   8277   8276   8294   8281     1  180.0000771  0.4184000  2
   8277   8276   8294   8281     1  0.0000000  1.6024720  3
   8277   8279   8280   8281     1  180.0000771  0.8368000  1
   8277   8279   8280   8281     1  180.0000771  1.0460000  2
   8277   8279   8280   8281     1  0.0000000  0.7531200  3
   8277   8279   8280   8299     1  0.0000000  0.6508444  3
   8279   8277   8276   8287     1  180.0000771  0.8368000  1
   8279   8277   8276   8287     1  180.0000771  1.0460000  2
   8279   8277   8276   8287     1  0.0000000  0.7531200  3
   8279   8277   8276   8294     1  0.0000000  0.6508444  3
   8279   8280   8281   8285     1  0.0000000  0.6508444  3
   8279   8280   8281   8294     1  0.0000000  0.6508444  3
   8280   8279   8277   8297     1  0.0000000  0.6508444  3
   8281   8280   8279   8286     1  0.0000000  0.6508444  3
   8281   8294   8276   8287     1  180.0000771  0.4184000  2
   8281   8294   8276   8287     1  0.0000000  1.6024720  3
   8285   8281   8280   8299     1  0.0000000  0.6508444  3
   8286   8279   8277   8297     1  0.0000000  4.9162000  2
   8286   8279   8277   8297     1  0.0000000  0.6024960  3
   8286   8279   8280   8299     1  0.0000000  0.6508444  3
   8287   8276   8277   8297     1  0.0000000  0.6508444  3
   8292   8287   8276   8294     1  0.0000000  4.9162000  2
   8292   8287   8276   8294     1  0.0000000  0.6024960  3
   8294   8276   8277   8297     1  0.0000000  4.9162000  2
   8294   8276   8277   8297     1  0.0000000  0.6024960  3
   8294   8281   8280   8299     1  0.0000000  0.6508444  3
   8300   8301   8303   8304     1  180.0000771  0.8368000  1
   8300   8301   8303   8304     1  180.0000771  1.0460000  2
   8300   8301   8303   8304     1  0.0000000  0.7531200  3
   8300   8301   8303   8310     1  0.0000000  0.6508444  3
   8300   8318   8305   8304     1  180.0000771  0.4184000  2
   8300   8318   8305   8304     1  0.0000000  1.6024720  3
   8300   8318   8305   8309     1  0.0000000  1.6038667  3
   8301   8300   8311   8316     1  0.0000000  0.6508444  3
   8301   8300   8318   8305     1  180.0000771  0.4184000  2
   8301   8300   8318   8305     1  0.0000000  1.6024720  3
   8301   8303   8304   8305     1  180.0000771  0.8368000  1
   8301   8303   8304   8305     1  180.0000771  1.0460000  2
   8301   8303   8304   8305     1  0.0000000  0.7531200  3
   8301   8303   8304   8323     1  0.0000000  0.6508444  3
   8303   8301   8300   8311     1  180.0000771  0.8368000  1
   8303   8301   8300   8311     1  180.0000771  1.0460000  2
   8303   8301   8300   8311     1  0.0000000  0.7531200  3
   8303   8301   8300   8318     1  0.0000000  0.6508444  3
   8303   8304   8305   8309     1  0.0000000  0.6508444  3
   8303   8304   8305   8318     1  0.0000000  0.6508444  3
   8304   8303   8301   8321     1  0.0000000  0.6508444  3
   8305   8304   8303   8310     1  0.0000000  0.6508444  3
   8305   8318   8300   8311     1  180.0000771  0.4184000  2
   8305   8318   8300   8311     1  0.0000000  1.6024720  3
   8309   8305   8304   8323     1  0.0000000  0.6508444  3
   8310   8303   8301   8321     1  0.0000000  4.9162000  2
   8310   8303   8301   8321     1  0.0000000  0.6024960  3
   8310   8303   8304   8323     1  0.0000000  0.6508444  3
   8311   8300   8301   8321     1  0.0000000  0.6508444  3
   8316   8311   8300   8318     1  0.0000000  4.9162000  2
   8316   8311   8300   8318     1  0.0000000  0.6024960  3
   8318   8300   8301   8321     1  0.0000000  4.9162000  2
   8318   8300   8301   8321     1  0.0000000  0.6024960  3
   8318   8305   8304   8323     1  0.0000000  0.6508444  3
   8324   8326   8328   8332     1  0.0000000  0.6508444  3
   8326   8328   8332   8333     1  180.0000771  2.0083200  2
   8326   8328   8332   8333     1  0.0000000  1.2552000  3
   8326   8328   8332   8334     1  180.0000771  2.0083200  2
   8326   8328   8332   8334     1  0.0000000  1.2552000  3
   8328   8332   8333   8344     1  180.0000771  2.0083200  2
   8328   8332   8333   8344     1  0.0000000  1.2552000  3
   8328   8332   8334   8336     1  180.0000771  2.0083200  2
   8328   8332   8334   8336     1  0.0000000  1.2552000  3
   8332   8333   8344   8347     1  0.0000000  0.6508444  3
   8332   8334   8336   8340     1  0.0000000  0.6508444  3
   8333   8344   8347   8348     1  180.0000771  0.0000000  2
   8333   8344   8347   8396     1  180.0000771  0.0000000  2
   8333   8332   8334   8336     1  180.0000771  2.0083200  2
   8333   8332   8334   8336     1  0.0000000  1.2552000  3
   8334   8336   8340   8341     1  180.0000771  0.0000000  2
   8334   8336   8340   8372     1  180.0000771  0.0000000  2
   8334   8332   8333   8344     1  180.0000771  2.0083200  2
   8334   8332   8333   8344     1  0.0000000  1.2552000  3
   8336   8340   8372   8353     1  180.0000771  6.0668000  2
   8336   8340   8372   8353     1  180.0000771  1.4644000  4
   8340   8372   8353   8354     1  0.0000000  1.2552000  3
   8340   8372   8353   8352     1  0.0000000  1.2552000  3
   8341   8340   8372   8353     1  180.0000771  6.0668000  2
   8341   8340   8372   8353     1  180.0000771  1.4644000  4
   8344   8347   8396   8377     1  180.0000771  6.0668000  2
   8344   8347   8396   8377     1  180.0000771  1.4644000  4
   8347   8396   8377   8378     1  0.0000000  1.2552000  3
   8347   8396   8377   8376     1  0.0000000  1.2552000  3
   8348   8347   8396   8377     1  180.0000771  6.0668000  2
   8348   8347   8396   8377     1  180.0000771  1.4644000  4
   8349   8350   8352   8353     1  180.0000771  0.8368000  1
   8349   8350   8352   8353     1  180.0000771  1.0460000  2
   8349   8350   8352   8353     1  0.0000000  0.7531200  3
   8349   8350   8352   8359     1  0.0000000  0.6508444  3
   8349   8367   8354   8358     1  0.0000000  1.6038667  3
   8349   8367   8354   8353     1  180.0000771  0.4184000  2
   8349   8367   8354   8353     1  0.0000000  1.6024720  3
   8350   8352   8353   8354     1  180.0000771  0.8368000  1
   8350   8352   8353   8354     1  180.0000771  1.0460000  2
   8350   8352   8353   8354     1  0.0000000  0.7531200  3
   8350   8352   8353   8372     1  0.0000000  0.6508444  3
   8350   8349   8360   8365     1  0.0000000  0.6508444  3
   8350   8349   8367   8354     1  180.0000771  0.4184000  2
   8350   8349   8367   8354     1  0.0000000  1.6024720  3
   8352   8353   8354   8358     1  0.0000000  0.6508444  3
   8352   8353   8354   8367     1  0.0000000  0.6508444  3
   8352   8350   8349   8360     1  180.0000771  0.8368000  1
   8352   8350   8349   8360     1  180.0000771  1.0460000  2
   8352   8350   8349   8360     1  0.0000000  0.7531200  3
   8352   8350   8349   8367     1  0.0000000  0.6508444  3
   8353   8352   8350   8370     1  0.0000000  0.6508444  3
   8354   8367   8349   8360     1  180.0000771  0.4184000  2
   8354   8367   8349   8360     1  0.0000000  1.6024720  3
   8354   8353   8352   8359     1  0.0000000  0.6508444  3
   8358   8354   8353   8372     1  0.0000000  0.6508444  3
   8359   8352   8353   8372     1  0.0000000  0.6508444  3
   8359   8352   8350   8370     1  0.0000000  4.9162000  2
   8359   8352   8350   8370     1  0.0000000  0.6024960  3
   8360   8349   8350   8370     1  0.0000000  0.6508444  3
   8365   8360   8349   8367     1  0.0000000  4.9162000  2
   8365   8360   8349   8367     1  0.0000000  0.6024960  3
   8367   8354   8353   8372     1  0.0000000  0.6508444  3
   8367   8349   8350   8370     1  0.0000000  4.9162000  2
   8367   8349   8350   8370     1  0.0000000  0.6024960  3
   8373   8374   8376   8377     1  180.0000771  0.8368000  1
   8373   8374   8376   8377     1  180.0000771  1.0460000  2
   8373   8374   8376   8377     1  0.0000000  0.7531200  3
   8373   8374   8376   8383     1  0.0000000  0.6508444  3
   8373   8391   8378   8382     1  0.0000000  1.6038667  3
   8373   8391   8378   8377     1  180.0000771  0.4184000  2
   8373   8391   8378   8377     1  0.0000000  1.6024720  3
   8374   8376   8377   8378     1  180.0000771  0.8368000  1
   8374   8376   8377   8378     1  180.0000771  1.0460000  2
   8374   8376   8377   8378     1  0.0000000  0.7531200  3
   8374   8376   8377   8396     1  0.0000000  0.6508444  3
   8374   8373   8384   8389     1  0.0000000  0.6508444  3
   8374   8373   8391   8378     1  180.0000771  0.4184000  2
   8374   8373   8391   8378     1  0.0000000  1.6024720  3
   8376   8377   8378   8382     1  0.0000000  0.6508444  3
   8376   8377   8378   8391     1  0.0000000  0.6508444  3
   8376   8374   8373   8384     1  180.0000771  0.8368000  1
   8376   8374   8373   8384     1  180.0000771  1.0460000  2
   8376   8374   8373   8384     1  0.0000000  0.7531200  3
   8376   8374   8373   8391     1  0.0000000  0.6508444  3
   8377   8376   8374   8394     1  0.0000000  0.6508444  3
   8378   8391   8373   8384     1  180.0000771  0.4184000  2
   8378   8391   8373   8384     1  0.0000000  1.6024720  3
   8378   8377   8376   8383     1  0.0000000  0.6508444  3
   8382   8378   8377   8396     1  0.0000000  0.6508444  3
   8383   8376   8377   8396     1  0.0000000  0.6508444  3
   8383   8376   8374   8394     1  0.0000000  4.9162000  2
   8383   8376   8374   8394     1  0.0000000  0.6024960  3
   8384   8373   8374   8394     1  0.0000000  0.6508444  3
   8389   8384   8373   8391     1  0.0000000  4.9162000  2
   8389   8384   8373   8391     1  0.0000000  0.6024960  3
   8391   8378   8377   8396     1  0.0000000  0.6508444  3
   8391   8373   8374   8394     1  0.0000000  4.9162000  2
   8391   8373   8374   8394     1  0.0000000  0.6024960  3
   8397   8399   8401   8405     1  0.0000000  0.6508444  3
   8399   8401   8405   8406     1  180.0000771  2.0083200  2
   8399   8401   8405   8406     1  0.0000000  1.2552000  3
   8399   8401   8405   8407     1  180.0000771  2.0083200  2
   8399   8401   8405   8407     1  0.0000000  1.2552000  3
   8401   8405   8406   8417     1  180.0000771  2.0083200  2
   8401   8405   8406   8417     1  0.0000000  1.2552000  3
   8401   8405   8407   8409     1  180.0000771  2.0083200  2
   8401   8405   8407   8409     1  0.0000000  1.2552000  3
   8405   8406   8417   8420     1  0.0000000  0.6508444  3
   8405   8407   8409   8413     1  0.0000000  0.6508444  3
   8406   8405   8407   8409     1  180.0000771  2.0083200  2
   8406   8405   8407   8409     1  0.0000000  1.2552000  3
   8406   8417   8420   8421     1  180.0000771  0.0000000  2
   8406   8417   8420   8469     1  180.0000771  0.0000000  2
   8407   8405   8406   8417     1  180.0000771  2.0083200  2
   8407   8405   8406   8417     1  0.0000000  1.2552000  3
   8407   8409   8413   8414     1  180.0000771  0.0000000  2
   8407   8409   8413   8445     1  180.0000771  0.0000000  2
   8409   8413   8445   8426     1  180.0000771  6.0668000  2
   8409   8413   8445   8426     1  180.0000771  1.4644000  4
   8413   8445   8426   8425     1  0.0000000  1.2552000  3
   8413   8445   8426   8427     1  0.0000000  1.2552000  3
   8414   8413   8445   8426     1  180.0000771  6.0668000  2
   8414   8413   8445   8426     1  180.0000771  1.4644000  4
   8417   8420   8469   8450     1  180.0000771  6.0668000  2
   8417   8420   8469   8450     1  180.0000771  1.4644000  4
   8420   8469   8450   8449     1  0.0000000  1.2552000  3
   8420   8469   8450   8451     1  0.0000000  1.2552000  3
   8421   8420   8469   8450     1  180.0000771  6.0668000  2
   8421   8420   8469   8450     1  180.0000771  1.4644000  4
   8422   8423   8425   8426     1  180.0000771  0.8368000  1
   8422   8423   8425   8426     1  180.0000771  1.0460000  2
   8422   8423   8425   8426     1  0.0000000  0.7531200  3
   8422   8423   8425   8432     1  0.0000000  0.6508444  3
   8422   8440   8427   8426     1  180.0000771  0.4184000  2
   8422   8440   8427   8426     1  0.0000000  1.6024720  3
   8422   8440   8427   8431     1  0.0000000  1.6038667  3
   8423   8422   8433   8438     1  0.0000000  0.6508444  3
   8423   8422   8440   8427     1  180.0000771  0.4184000  2
   8423   8422   8440   8427     1  0.0000000  1.6024720  3
   8423   8425   8426   8427     1  180.0000771  0.8368000  1
   8423   8425   8426   8427     1  180.0000771  1.0460000  2
   8423   8425   8426   8427     1  0.0000000  0.7531200  3
   8423   8425   8426   8445     1  0.0000000  0.6508444  3
   8425   8423   8422   8433     1  180.0000771  0.8368000  1
   8425   8423   8422   8433     1  180.0000771  1.0460000  2
   8425   8423   8422   8433     1  0.0000000  0.7531200  3
   8425   8423   8422   8440     1  0.0000000  0.6508444  3
   8425   8426   8427   8431     1  0.0000000  0.6508444  3
   8425   8426   8427   8440     1  0.0000000  0.6508444  3
   8426   8425   8423   8443     1  0.0000000  0.6508444  3
   8427   8426   8425   8432     1  0.0000000  0.6508444  3
   8427   8440   8422   8433     1  180.0000771  0.4184000  2
   8427   8440   8422   8433     1  0.0000000  1.6024720  3
   8431   8427   8426   8445     1  0.0000000  0.6508444  3
   8432   8425   8423   8443     1  0.0000000  4.9162000  2
   8432   8425   8423   8443     1  0.0000000  0.6024960  3
   8432   8425   8426   8445     1  0.0000000  0.6508444  3
   8433   8422   8423   8443     1  0.0000000  0.6508444  3
   8438   8433   8422   8440     1  0.0000000  4.9162000  2
   8438   8433   8422   8440     1  0.0000000  0.6024960  3
   8440   8422   8423   8443     1  0.0000000  4.9162000  2
   8440   8422   8423   8443     1  0.0000000  0.6024960  3
   8440   8427   8426   8445     1  0.0000000  0.6508444  3
   8446   8447   8449   8450     1  180.0000771  0.8368000  1
   8446   8447   8449   8450     1  180.0000771  1.0460000  2
   8446   8447   8449   8450     1  0.0000000  0.7531200  3
   8446   8447   8449   8456     1  0.0000000  0.6508444  3
   8446   8464   8451   8450     1  180.0000771  0.4184000  2
   8446   8464   8451   8450     1  0.0000000  1.6024720  3
   8446   8464   8451   8455     1  0.0000000  1.6038667  3
   8447   8446   8457   8462     1  0.0000000  0.6508444  3
   8447   8446   8464   8451     1  180.0000771  0.4184000  2
   8447   8446   8464   8451     1  0.0000000  1.6024720  3
   8447   8449   8450   8451     1  180.0000771  0.8368000  1
   8447   8449   8450   8451     1  180.0000771  1.0460000  2
   8447   8449   8450   8451     1  0.0000000  0.7531200  3
   8447   8449   8450   8469     1  0.0000000  0.6508444  3
   8449   8447   8446   8457     1  180.0000771  0.8368000  1
   8449   8447   8446   8457     1  180.0000771  1.0460000  2
   8449   8447   8446   8457     1  0.0000000  0.7531200  3
   8449   8447   8446   8464     1  0.0000000  0.6508444  3
   8449   8450   8451   8455     1  0.0000000  0.6508444  3
   8449   8450   8451   8464     1  0.0000000  0.6508444  3
   8450   8449   8447   8467     1  0.0000000  0.6508444  3
   8451   8450   8449   8456     1  0.0000000  0.6508444  3
   8451   8464   8446   8457     1  180.0000771  0.4184000  2
   8451   8464   8446   8457     1  0.0000000  1.6024720  3
   8455   8451   8450   8469     1  0.0000000  0.6508444  3
   8456   8449   8447   8467     1  0.0000000  4.9162000  2
   8456   8449   8447   8467     1  0.0000000  0.6024960  3
   8456   8449   8450   8469     1  0.0000000  0.6508444  3
   8457   8446   8447   8467     1  0.0000000  0.6508444  3
   8462   8457   8446   8464     1  0.0000000  4.9162000  2
   8462   8457   8446   8464     1  0.0000000  0.6024960  3
   8464   8446   8447   8467     1  0.0000000  4.9162000  2
   8464   8446   8447   8467     1  0.0000000  0.6024960  3
   8464   8451   8450   8469     1  0.0000000  0.6508444  3
   8470   8472   8474   8478     1  0.0000000  0.6508444  3
   8472   8474   8478   8479     1  180.0000771  2.0083200  2
   8472   8474   8478   8479     1  0.0000000  1.2552000  3
   8472   8474   8478   8480     1  180.0000771  2.0083200  2
   8472   8474   8478   8480     1  0.0000000  1.2552000  3
   8474   8478   8479   8490     1  180.0000771  2.0083200  2
   8474   8478   8479   8490     1  0.0000000  1.2552000  3
   8474   8478   8480   8482     1  180.0000771  2.0083200  2
   8474   8478   8480   8482     1  0.0000000  1.2552000  3
   8478   8479   8490   8493     1  0.0000000  0.6508444  3
   8478   8480   8482   8486     1  0.0000000  0.6508444  3
   8479   8490   8493   8494     1  180.0000771  0.0000000  2
   8479   8490   8493   8542     1  180.0000771  0.0000000  2
   8479   8478   8480   8482     1  180.0000771  2.0083200  2
   8479   8478   8480   8482     1  0.0000000  1.2552000  3
   8480   8482   8486   8487     1  180.0000771  0.0000000  2
   8480   8482   8486   8518     1  180.0000771  0.0000000  2
   8480   8478   8479   8490     1  180.0000771  2.0083200  2
   8480   8478   8479   8490     1  0.0000000  1.2552000  3
   8482   8486   8518   8499     1  180.0000771  6.0668000  2
   8482   8486   8518   8499     1  180.0000771  1.4644000  4
   8486   8518   8499   8500     1  0.0000000  1.2552000  3
   8486   8518   8499   8498     1  0.0000000  1.2552000  3
   8487   8486   8518   8499     1  180.0000771  6.0668000  2
   8487   8486   8518   8499     1  180.0000771  1.4644000  4
   8490   8493   8542   8523     1  180.0000771  6.0668000  2
   8490   8493   8542   8523     1  180.0000771  1.4644000  4
   8493   8542   8523   8524     1  0.0000000  1.2552000  3
   8493   8542   8523   8522     1  0.0000000  1.2552000  3
   8494   8493   8542   8523     1  180.0000771  6.0668000  2
   8494   8493   8542   8523     1  180.0000771  1.4644000  4
   8495   8496   8498   8499     1  180.0000771  0.8368000  1
   8495   8496   8498   8499     1  180.0000771  1.0460000  2
   8495   8496   8498   8499     1  0.0000000  0.7531200  3
   8495   8496   8498   8505     1  0.0000000  0.6508444  3
   8495   8513   8500   8504     1  0.0000000  1.6038667  3
   8495   8513   8500   8499     1  180.0000771  0.4184000  2
   8495   8513   8500   8499     1  0.0000000  1.6024720  3
   8496   8498   8499   8500     1  180.0000771  0.8368000  1
   8496   8498   8499   8500     1  180.0000771  1.0460000  2
   8496   8498   8499   8500     1  0.0000000  0.7531200  3
   8496   8498   8499   8518     1  0.0000000  0.6508444  3
   8496   8495   8506   8511     1  0.0000000  0.6508444  3
   8496   8495   8513   8500     1  180.0000771  0.4184000  2
   8496   8495   8513   8500     1  0.0000000  1.6024720  3
   8498   8499   8500   8504     1  0.0000000  0.6508444  3
   8498   8499   8500   8513     1  0.0000000  0.6508444  3
   8498   8496   8495   8506     1  180.0000771  0.8368000  1
   8498   8496   8495   8506     1  180.0000771  1.0460000  2
   8498   8496   8495   8506     1  0.0000000  0.7531200  3
   8498   8496   8495   8513     1  0.0000000  0.6508444  3
   8499   8498   8496   8516     1  0.0000000  0.6508444  3
   8500   8513   8495   8506     1  180.0000771  0.4184000  2
   8500   8513   8495   8506     1  0.0000000  1.6024720  3
   8500   8499   8498   8505     1  0.0000000  0.6508444  3
   8504   8500   8499   8518     1  0.0000000  0.6508444  3
   8505   8498   8499   8518     1  0.0000000  0.6508444  3
   8505   8498   8496   8516     1  0.0000000  4.9162000  2
   8505   8498   8496   8516     1  0.0000000  0.6024960  3
   8506   8495   8496   8516     1  0.0000000  0.6508444  3
   8511   8506   8495   8513     1  0.0000000  4.9162000  2
   8511   8506   8495   8513     1  0.0000000  0.6024960  3
   8513   8500   8499   8518     1  0.0000000  0.6508444  3
   8513   8495   8496   8516     1  0.0000000  4.9162000  2
   8513   8495   8496   8516     1  0.0000000  0.6024960  3
   8519   8520   8522   8523     1  180.0000771  0.8368000  1
   8519   8520   8522   8523     1  180.0000771  1.0460000  2
   8519   8520   8522   8523     1  0.0000000  0.7531200  3
   8519   8520   8522   8529     1  0.0000000  0.6508444  3
   8519   8537   8524   8528     1  0.0000000  1.6038667  3
   8519   8537   8524   8523     1  180.0000771  0.4184000  2
   8519   8537   8524   8523     1  0.0000000  1.6024720  3
   8520   8522   8523   8524     1  180.0000771  0.8368000  1
   8520   8522   8523   8524     1  180.0000771  1.0460000  2
   8520   8522   8523   8524     1  0.0000000  0.7531200  3
   8520   8522   8523   8542     1  0.0000000  0.6508444  3
   8520   8519   8530   8535     1  0.0000000  0.6508444  3
   8520   8519   8537   8524     1  180.0000771  0.4184000  2
   8520   8519   8537   8524     1  0.0000000  1.6024720  3
   8522   8523   8524   8528     1  0.0000000  0.6508444  3
   8522   8523   8524   8537     1  0.0000000  0.6508444  3
   8522   8520   8519   8530     1  180.0000771  0.8368000  1
   8522   8520   8519   8530     1  180.0000771  1.0460000  2
   8522   8520   8519   8530     1  0.0000000  0.7531200  3
   8522   8520   8519   8537     1  0.0000000  0.6508444  3
   8523   8522   8520   8540     1  0.0000000  0.6508444  3
   8524   8537   8519   8530     1  180.0000771  0.4184000  2
   8524   8537   8519   8530     1  0.0000000  1.6024720  3
   8524   8523   8522   8529     1  0.0000000  0.6508444  3
   8528   8524   8523   8542     1  0.0000000  0.6508444  3
   8529   8522   8523   8542     1  0.0000000  0.6508444  3
   8529   8522   8520   8540     1  0.0000000  4.9162000  2
   8529   8522   8520   8540     1  0.0000000  0.6024960  3
   8530   8519   8520   8540     1  0.0000000  0.6508444  3
   8535   8530   8519   8537     1  0.0000000  4.9162000  2
   8535   8530   8519   8537     1  0.0000000  0.6024960  3
   8537   8524   8523   8542     1  0.0000000  0.6508444  3
   8537   8519   8520   8540     1  0.0000000  4.9162000  2
   8537   8519   8520   8540     1  0.0000000  0.6024960  3
   8543   8545   8547   8551     1  0.0000000  0.6508444  3
   8545   8547   8551   8552     1  180.0000771  2.0083200  2
   8545   8547   8551   8552     1  0.0000000  1.2552000  3
   8545   8547   8551   8553     1  180.0000771  2.0083200  2
   8545   8547   8551   8553     1  0.0000000  1.2552000  3
   8547   8551   8552   8563     1  180.0000771  2.0083200  2
   8547   8551   8552   8563     1  0.0000000  1.2552000  3
   8547   8551   8553   8555     1  180.0000771  2.0083200  2
   8547   8551   8553   8555     1  0.0000000  1.2552000  3
   8551   8552   8563   8566     1  0.0000000  0.6508444  3
   8551   8553   8555   8559     1  0.0000000  0.6508444  3
   8552   8551   8553   8555     1  180.0000771  2.0083200  2
   8552   8551   8553   8555     1  0.0000000  1.2552000  3
   8552   8563   8566   8567     1  180.0000771  0.0000000  2
   8552   8563   8566   8615     1  180.0000771  0.0000000  2
   8553   8551   8552   8563     1  180.0000771  2.0083200  2
   8553   8551   8552   8563     1  0.0000000  1.2552000  3
   8553   8555   8559   8560     1  180.0000771  0.0000000  2
   8553   8555   8559   8591     1  180.0000771  0.0000000  2
   8555   8559   8591   8572     1  180.0000771  6.0668000  2
   8555   8559   8591   8572     1  180.0000771  1.4644000  4
   8559   8591   8572   8571     1  0.0000000  1.2552000  3
   8559   8591   8572   8573     1  0.0000000  1.2552000  3
   8560   8559   8591   8572     1  180.0000771  6.0668000  2
   8560   8559   8591   8572     1  180.0000771  1.4644000  4
   8563   8566   8615   8596     1  180.0000771  6.0668000  2
   8563   8566   8615   8596     1  180.0000771  1.4644000  4
   8566   8615   8596   8595     1  0.0000000  1.2552000  3
   8566   8615   8596   8597     1  0.0000000  1.2552000  3
   8567   8566   8615   8596     1  180.0000771  6.0668000  2
   8567   8566   8615   8596     1  180.0000771  1.4644000  4
   8568   8569   8571   8572     1  180.0000771  0.8368000  1
   8568   8569   8571   8572     1  180.0000771  1.0460000  2
   8568   8569   8571   8572     1  0.0000000  0.7531200  3
   8568   8569   8571   8578     1  0.0000000  0.6508444  3
   8568   8586   8573   8572     1  180.0000771  0.4184000  2
   8568   8586   8573   8572     1  0.0000000  1.6024720  3
   8568   8586   8573   8577     1  0.0000000  1.6038667  3
   8569   8568   8579   8584     1  0.0000000  0.6508444  3
   8569   8568   8586   8573     1  180.0000771  0.4184000  2
   8569   8568   8586   8573     1  0.0000000  1.6024720  3
   8569   8571   8572   8573     1  180.0000771  0.8368000  1
   8569   8571   8572   8573     1  180.0000771  1.0460000  2
   8569   8571   8572   8573     1  0.0000000  0.7531200  3
   8569   8571   8572   8591     1  0.0000000  0.6508444  3
   8571   8569   8568   8579     1  180.0000771  0.8368000  1
   8571   8569   8568   8579     1  180.0000771  1.0460000  2
   8571   8569   8568   8579     1  0.0000000  0.7531200  3
   8571   8569   8568   8586     1  0.0000000  0.6508444  3
   8571   8572   8573   8577     1  0.0000000  0.6508444  3
   8571   8572   8573   8586     1  0.0000000  0.6508444  3
   8572   8571   8569   8589     1  0.0000000  0.6508444  3
   8573   8572   8571   8578     1  0.0000000  0.6508444  3
   8573   8586   8568   8579     1  180.0000771  0.4184000  2
   8573   8586   8568   8579     1  0.0000000  1.6024720  3
   8577   8573   8572   8591     1  0.0000000  0.6508444  3
   8578   8571   8569   8589     1  0.0000000  4.9162000  2
   8578   8571   8569   8589     1  0.0000000  0.6024960  3
   8578   8571   8572   8591     1  0.0000000  0.6508444  3
   8579   8568   8569   8589     1  0.0000000  0.6508444  3
   8584   8579   8568   8586     1  0.0000000  4.9162000  2
   8584   8579   8568   8586     1  0.0000000  0.6024960  3
   8586   8568   8569   8589     1  0.0000000  4.9162000  2
   8586   8568   8569   8589     1  0.0000000  0.6024960  3
   8586   8573   8572   8591     1  0.0000000  0.6508444  3
   8592   8593   8595   8596     1  180.0000771  0.8368000  1
   8592   8593   8595   8596     1  180.0000771  1.0460000  2
   8592   8593   8595   8596     1  0.0000000  0.7531200  3
   8592   8593   8595   8602     1  0.0000000  0.6508444  3
   8592   8610   8597   8596     1  180.0000771  0.4184000  2
   8592   8610   8597   8596     1  0.0000000  1.6024720  3
   8592   8610   8597   8601     1  0.0000000  1.6038667  3
   8593   8592   8603   8608     1  0.0000000  0.6508444  3
   8593   8592   8610   8597     1  180.0000771  0.4184000  2
   8593   8592   8610   8597     1  0.0000000  1.6024720  3
   8593   8595   8596   8597     1  180.0000771  0.8368000  1
   8593   8595   8596   8597     1  180.0000771  1.0460000  2
   8593   8595   8596   8597     1  0.0000000  0.7531200  3
   8593   8595   8596   8615     1  0.0000000  0.6508444  3
   8595   8593   8592   8603     1  180.0000771  0.8368000  1
   8595   8593   8592   8603     1  180.0000771  1.0460000  2
   8595   8593   8592   8603     1  0.0000000  0.7531200  3
   8595   8593   8592   8610     1  0.0000000  0.6508444  3
   8595   8596   8597   8601     1  0.0000000  0.6508444  3
   8595   8596   8597   8610     1  0.0000000  0.6508444  3
   8596   8595   8593   8613     1  0.0000000  0.6508444  3
   8597   8596   8595   8602     1  0.0000000  0.6508444  3
   8597   8610   8592   8603     1  180.0000771  0.4184000  2
   8597   8610   8592   8603     1  0.0000000  1.6024720  3
   8601   8597   8596   8615     1  0.0000000  0.6508444  3
   8602   8595   8593   8613     1  0.0000000  4.9162000  2
   8602   8595   8593   8613     1  0.0000000  0.6024960  3
   8602   8595   8596   8615     1  0.0000000  0.6508444  3
   8603   8592   8593   8613     1  0.0000000  0.6508444  3
   8608   8603   8592   8610     1  0.0000000  4.9162000  2
   8608   8603   8592   8610     1  0.0000000  0.6024960  3
   8610   8592   8593   8613     1  0.0000000  4.9162000  2
   8610   8592   8593   8613     1  0.0000000  0.6024960  3
   8610   8597   8596   8615     1  0.0000000  0.6508444  3
   8616   8618   8620   8624     1  0.0000000  0.6508444  3
   8618   8620   8624   8625     1  180.0000771  2.0083200  2
   8618   8620   8624   8625     1  0.0000000  1.2552000  3
   8618   8620   8624   8626     1  180.0000771  2.0083200  2
   8618   8620   8624   8626     1  0.0000000  1.2552000  3
   8620   8624   8625   8636     1  180.0000771  2.0083200  2
   8620   8624   8625   8636     1  0.0000000  1.2552000  3
   8620   8624   8626   8628     1  180.0000771  2.0083200  2
   8620   8624   8626   8628     1  0.0000000  1.2552000  3
   8624   8625   8636   8639     1  0.0000000  0.6508444  3
   8624   8626   8628   8632     1  0.0000000  0.6508444  3
   8625   8636   8639   8640     1  180.0000771  0.0000000  2
   8625   8636   8639   8688     1  180.0000771  0.0000000  2
   8625   8624   8626   8628     1  180.0000771  2.0083200  2
   8625   8624   8626   8628     1  0.0000000  1.2552000  3
   8626   8628   8632   8633     1  180.0000771  0.0000000  2
   8626   8628   8632   8664     1  180.0000771  0.0000000  2
   8626   8624   8625   8636     1  180.0000771  2.0083200  2
   8626   8624   8625   8636     1  0.0000000  1.2552000  3
   8628   8632   8664   8645     1  180.0000771  6.0668000  2
   8628   8632   8664   8645     1  180.0000771  1.4644000  4
   8632   8664   8645   8646     1  0.0000000  1.2552000  3
   8632   8664   8645   8644     1  0.0000000  1.2552000  3
   8633   8632   8664   8645     1  180.0000771  6.0668000  2
   8633   8632   8664   8645     1  180.0000771  1.4644000  4
   8636   8639   8688   8669     1  180.0000771  6.0668000  2
   8636   8639   8688   8669     1  180.0000771  1.4644000  4
   8639   8688   8669   8670     1  0.0000000  1.2552000  3
   8639   8688   8669   8668     1  0.0000000  1.2552000  3
   8640   8639   8688   8669     1  180.0000771  6.0668000  2
   8640   8639   8688   8669     1  180.0000771  1.4644000  4
   8641   8642   8644   8645     1  180.0000771  0.8368000  1
   8641   8642   8644   8645     1  180.0000771  1.0460000  2
   8641   8642   8644   8645     1  0.0000000  0.7531200  3
   8641   8642   8644   8651     1  0.0000000  0.6508444  3
   8641   8659   8646   8650     1  0.0000000  1.6038667  3
   8641   8659   8646   8645     1  180.0000771  0.4184000  2
   8641   8659   8646   8645     1  0.0000000  1.6024720  3
   8642   8644   8645   8646     1  180.0000771  0.8368000  1
   8642   8644   8645   8646     1  180.0000771  1.0460000  2
   8642   8644   8645   8646     1  0.0000000  0.7531200  3
   8642   8644   8645   8664     1  0.0000000  0.6508444  3
   8642   8641   8652   8657     1  0.0000000  0.6508444  3
   8642   8641   8659   8646     1  180.0000771  0.4184000  2
   8642   8641   8659   8646     1  0.0000000  1.6024720  3
   8644   8645   8646   8650     1  0.0000000  0.6508444  3
   8644   8645   8646   8659     1  0.0000000  0.6508444  3
   8644   8642   8641   8652     1  180.0000771  0.8368000  1
   8644   8642   8641   8652     1  180.0000771  1.0460000  2
   8644   8642   8641   8652     1  0.0000000  0.7531200  3
   8644   8642   8641   8659     1  0.0000000  0.6508444  3
   8645   8644   8642   8662     1  0.0000000  0.6508444  3
   8646   8659   8641   8652     1  180.0000771  0.4184000  2
   8646   8659   8641   8652     1  0.0000000  1.6024720  3
   8646   8645   8644   8651     1  0.0000000  0.6508444  3
   8650   8646   8645   8664     1  0.0000000  0.6508444  3
   8651   8644   8645   8664     1  0.0000000  0.6508444  3
   8651   8644   8642   8662     1  0.0000000  4.9162000  2
   8651   8644   8642   8662     1  0.0000000  0.6024960  3
   8652   8641   8642   8662     1  0.0000000  0.6508444  3
   8657   8652   8641   8659     1  0.0000000  4.9162000  2
   8657   8652   8641   8659     1  0.0000000  0.6024960  3
   8659   8646   8645   8664     1  0.0000000  0.6508444  3
   8659   8641   8642   8662     1  0.0000000  4.9162000  2
   8659   8641   8642   8662     1  0.0000000  0.6024960  3
   8665   8666   8668   8669     1  180.0000771  0.8368000  1
   8665   8666   8668   8669     1  180.0000771  1.0460000  2
   8665   8666   8668   8669     1  0.0000000  0.7531200  3
   8665   8666   8668   8675     1  0.0000000  0.6508444  3
   8665   8683   8670   8674     1  0.0000000  1.6038667  3
   8665   8683   8670   8669     1  180.0000771  0.4184000  2
   8665   8683   8670   8669     1  0.0000000  1.6024720  3
   8666   8668   8669   8670     1  180.0000771  0.8368000  1
   8666   8668   8669   8670     1  180.0000771  1.0460000  2
   8666   8668   8669   8670     1  0.0000000  0.7531200  3
   8666   8668   8669   8688     1  0.0000000  0.6508444  3
   8666   8665   8676   8681     1  0.0000000  0.6508444  3
   8666   8665   8683   8670     1  180.0000771  0.4184000  2
   8666   8665   8683   8670     1  0.0000000  1.6024720  3
   8668   8669   8670   8674     1  0.0000000  0.6508444  3
   8668   8669   8670   8683     1  0.0000000  0.6508444  3
   8668   8666   8665   8676     1  180.0000771  0.8368000  1
   8668   8666   8665   8676     1  180.0000771  1.0460000  2
   8668   8666   8665   8676     1  0.0000000  0.7531200  3
   8668   8666   8665   8683     1  0.0000000  0.6508444  3
   8669   8668   8666   8686     1  0.0000000  0.6508444  3
   8670   8683   8665   8676     1  180.0000771  0.4184000  2
   8670   8683   8665   8676     1  0.0000000  1.6024720  3
   8670   8669   8668   8675     1  0.0000000  0.6508444  3
   8674   8670   8669   8688     1  0.0000000  0.6508444  3
   8675   8668   8669   8688     1  0.0000000  0.6508444  3
   8675   8668   8666   8686     1  0.0000000  4.9162000  2
   8675   8668   8666   8686     1  0.0000000  0.6024960  3
   8676   8665   8666   8686     1  0.0000000  0.6508444  3
   8681   8676   8665   8683     1  0.0000000  4.9162000  2
   8681   8676   8665   8683     1  0.0000000  0.6024960  3
   8683   8670   8669   8688     1  0.0000000  0.6508444  3
   8683   8665   8666   8686     1  0.0000000  4.9162000  2
   8683   8665   8666   8686     1  0.0000000  0.6024960  3
   8689   8691   8693   8697     1  0.0000000  0.6508444  3
   8691   8693   8697   8698     1  180.0000771  2.0083200  2
   8691   8693   8697   8698     1  0.0000000  1.2552000  3
   8691   8693   8697   8699     1  180.0000771  2.0083200  2
   8691   8693   8697   8699     1  0.0000000  1.2552000  3
   8693   8697   8698   8709     1  180.0000771  2.0083200  2
   8693   8697   8698   8709     1  0.0000000  1.2552000  3
   8693   8697   8699   8701     1  180.0000771  2.0083200  2
   8693   8697   8699   8701     1  0.0000000  1.2552000  3
   8697   8698   8709   8712     1  0.0000000  0.6508444  3
   8697   8699   8701   8705     1  0.0000000  0.6508444  3
   8698   8697   8699   8701     1  180.0000771  2.0083200  2
   8698   8697   8699   8701     1  0.0000000  1.2552000  3
   8698   8709   8712   8713     1  180.0000771  0.0000000  2
   8698   8709   8712   8761     1  180.0000771  0.0000000  2
   8699   8697   8698   8709     1  180.0000771  2.0083200  2
   8699   8697   8698   8709     1  0.0000000  1.2552000  3
   8699   8701   8705   8706     1  180.0000771  0.0000000  2
   8699   8701   8705   8737     1  180.0000771  0.0000000  2
   8701   8705   8737   8718     1  180.0000771  6.0668000  2
   8701   8705   8737   8718     1  180.0000771  1.4644000  4
   8705   8737   8718   8717     1  0.0000000  1.2552000  3
   8705   8737   8718   8719     1  0.0000000  1.2552000  3
   8706   8705   8737   8718     1  180.0000771  6.0668000  2
   8706   8705   8737   8718     1  180.0000771  1.4644000  4
   8709   8712   8761   8742     1  180.0000771  6.0668000  2
   8709   8712   8761   8742     1  180.0000771  1.4644000  4
   8712   8761   8742   8741     1  0.0000000  1.2552000  3
   8712   8761   8742   8743     1  0.0000000  1.2552000  3
   8713   8712   8761   8742     1  180.0000771  6.0668000  2
   8713   8712   8761   8742     1  180.0000771  1.4644000  4
   8714   8715   8717   8718     1  180.0000771  0.8368000  1
   8714   8715   8717   8718     1  180.0000771  1.0460000  2
   8714   8715   8717   8718     1  0.0000000  0.7531200  3
   8714   8715   8717   8724     1  0.0000000  0.6508444  3
   8714   8732   8719   8718     1  180.0000771  0.4184000  2
   8714   8732   8719   8718     1  0.0000000  1.6024720  3
   8714   8732   8719   8723     1  0.0000000  1.6038667  3
   8715   8714   8725   8730     1  0.0000000  0.6508444  3
   8715   8714   8732   8719     1  180.0000771  0.4184000  2
   8715   8714   8732   8719     1  0.0000000  1.6024720  3
   8715   8717   8718   8719     1  180.0000771  0.8368000  1
   8715   8717   8718   8719     1  180.0000771  1.0460000  2
   8715   8717   8718   8719     1  0.0000000  0.7531200  3
   8715   8717   8718   8737     1  0.0000000  0.6508444  3
   8717   8715   8714   8725     1  180.0000771  0.8368000  1
   8717   8715   8714   8725     1  180.0000771  1.0460000  2
   8717   8715   8714   8725     1  0.0000000  0.7531200  3
   8717   8715   8714   8732     1  0.0000000  0.6508444  3
   8717   8718   8719   8723     1  0.0000000  0.6508444  3
   8717   8718   8719   8732     1  0.0000000  0.6508444  3
   8718   8717   8715   8735     1  0.0000000  0.6508444  3
   8719   8718   8717   8724     1  0.0000000  0.6508444  3
   8719   8732   8714   8725     1  180.0000771  0.4184000  2
   8719   8732   8714   8725     1  0.0000000  1.6024720  3
   8723   8719   8718   8737     1  0.0000000  0.6508444  3
   8724   8717   8715   8735     1  0.0000000  4.9162000  2
   8724   8717   8715   8735     1  0.0000000  0.6024960  3
   8724   8717   8718   8737     1  0.0000000  0.6508444  3
   8725   8714   8715   8735     1  0.0000000  0.6508444  3
   8730   8725   8714   8732     1  0.0000000  4.9162000  2
   8730   8725   8714   8732     1  0.0000000  0.6024960  3
   8732   8714   8715   8735     1  0.0000000  4.9162000  2
   8732   8714   8715   8735     1  0.0000000  0.6024960  3
   8732   8719   8718   8737     1  0.0000000  0.6508444  3
   8738   8739   8741   8742     1  180.0000771  0.8368000  1
   8738   8739   8741   8742     1  180.0000771  1.0460000  2
   8738   8739   8741   8742     1  0.0000000  0.7531200  3
   8738   8739   8741   8748     1  0.0000000  0.6508444  3
   8738   8756   8743   8742     1  180.0000771  0.4184000  2
   8738   8756   8743   8742     1  0.0000000  1.6024720  3
   8738   8756   8743   8747     1  0.0000000  1.6038667  3
   8739   8738   8749   8754     1  0.0000000  0.6508444  3
   8739   8738   8756   8743     1  180.0000771  0.4184000  2
   8739   8738   8756   8743     1  0.0000000  1.6024720  3
   8739   8741   8742   8743     1  180.0000771  0.8368000  1
   8739   8741   8742   8743     1  180.0000771  1.0460000  2
   8739   8741   8742   8743     1  0.0000000  0.7531200  3
   8739   8741   8742   8761     1  0.0000000  0.6508444  3
   8741   8739   8738   8749     1  180.0000771  0.8368000  1
   8741   8739   8738   8749     1  180.0000771  1.0460000  2
   8741   8739   8738   8749     1  0.0000000  0.7531200  3
   8741   8739   8738   8756     1  0.0000000  0.6508444  3
   8741   8742   8743   8747     1  0.0000000  0.6508444  3
   8741   8742   8743   8756     1  0.0000000  0.6508444  3
   8742   8741   8739   8759     1  0.0000000  0.6508444  3
   8743   8742   8741   8748     1  0.0000000  0.6508444  3
   8743   8756   8738   8749     1  180.0000771  0.4184000  2
   8743   8756   8738   8749     1  0.0000000  1.6024720  3
   8747   8743   8742   8761     1  0.0000000  0.6508444  3
   8748   8741   8739   8759     1  0.0000000  4.9162000  2
   8748   8741   8739   8759     1  0.0000000  0.6024960  3
   8748   8741   8742   8761     1  0.0000000  0.6508444  3
   8749   8738   8739   8759     1  0.0000000  0.6508444  3
   8754   8749   8738   8756     1  0.0000000  4.9162000  2
   8754   8749   8738   8756     1  0.0000000  0.6024960  3
   8756   8738   8739   8759     1  0.0000000  4.9162000  2
   8756   8738   8739   8759     1  0.0000000  0.6024960  3
   8756   8743   8742   8761     1  0.0000000  0.6508444  3
   8762   8764   8766   8770     1  0.0000000  0.6508444  3
   8764   8766   8770   8771     1  180.0000771  2.0083200  2
   8764   8766   8770   8771     1  0.0000000  1.2552000  3
   8764   8766   8770   8772     1  180.0000771  2.0083200  2
   8764   8766   8770   8772     1  0.0000000  1.2552000  3
   8766   8770   8771   8782     1  180.0000771  2.0083200  2
   8766   8770   8771   8782     1  0.0000000  1.2552000  3
   8766   8770   8772   8774     1  180.0000771  2.0083200  2
   8766   8770   8772   8774     1  0.0000000  1.2552000  3
   8770   8771   8782   8785     1  0.0000000  0.6508444  3
   8770   8772   8774   8778     1  0.0000000  0.6508444  3
   8771   8782   8785   8786     1  180.0000771  0.0000000  2
   8771   8782   8785   8834     1  180.0000771  0.0000000  2
   8771   8770   8772   8774     1  180.0000771  2.0083200  2
   8771   8770   8772   8774     1  0.0000000  1.2552000  3
   8772   8774   8778   8779     1  180.0000771  0.0000000  2
   8772   8774   8778   8810     1  180.0000771  0.0000000  2
   8772   8770   8771   8782     1  180.0000771  2.0083200  2
   8772   8770   8771   8782     1  0.0000000  1.2552000  3
   8774   8778   8810   8791     1  180.0000771  6.0668000  2
   8774   8778   8810   8791     1  180.0000771  1.4644000  4
   8778   8810   8791   8792     1  0.0000000  1.2552000  3
   8778   8810   8791   8790     1  0.0000000  1.2552000  3
   8779   8778   8810   8791     1  180.0000771  6.0668000  2
   8779   8778   8810   8791     1  180.0000771  1.4644000  4
   8782   8785   8834   8815     1  180.0000771  6.0668000  2
   8782   8785   8834   8815     1  180.0000771  1.4644000  4
   8785   8834   8815   8816     1  0.0000000  1.2552000  3
   8785   8834   8815   8814     1  0.0000000  1.2552000  3
   8786   8785   8834   8815     1  180.0000771  6.0668000  2
   8786   8785   8834   8815     1  180.0000771  1.4644000  4
   8787   8788   8790   8791     1  180.0000771  0.8368000  1
   8787   8788   8790   8791     1  180.0000771  1.0460000  2
   8787   8788   8790   8791     1  0.0000000  0.7531200  3
   8787   8788   8790   8797     1  0.0000000  0.6508444  3
   8787   8805   8792   8796     1  0.0000000  1.6038667  3
   8787   8805   8792   8791     1  180.0000771  0.4184000  2
   8787   8805   8792   8791     1  0.0000000  1.6024720  3
   8788   8790   8791   8792     1  180.0000771  0.8368000  1
   8788   8790   8791   8792     1  180.0000771  1.0460000  2
   8788   8790   8791   8792     1  0.0000000  0.7531200  3
   8788   8790   8791   8810     1  0.0000000  0.6508444  3
   8788   8787   8798   8803     1  0.0000000  0.6508444  3
   8788   8787   8805   8792     1  180.0000771  0.4184000  2
   8788   8787   8805   8792     1  0.0000000  1.6024720  3
   8790   8791   8792   8796     1  0.0000000  0.6508444  3
   8790   8791   8792   8805     1  0.0000000  0.6508444  3
   8790   8788   8787   8798     1  180.0000771  0.8368000  1
   8790   8788   8787   8798     1  180.0000771  1.0460000  2
   8790   8788   8787   8798     1  0.0000000  0.7531200  3
   8790   8788   8787   8805     1  0.0000000  0.6508444  3
   8791   8790   8788   8808     1  0.0000000  0.6508444  3
   8792   8805   8787   8798     1  180.0000771  0.4184000  2
   8792   8805   8787   8798     1  0.0000000  1.6024720  3
   8792   8791   8790   8797     1  0.0000000  0.6508444  3
   8796   8792   8791   8810     1  0.0000000  0.6508444  3
   8797   8790   8791   8810     1  0.0000000  0.6508444  3
   8797   8790   8788   8808     1  0.0000000  4.9162000  2
   8797   8790   8788   8808     1  0.0000000  0.6024960  3
   8798   8787   8788   8808     1  0.0000000  0.6508444  3
   8803   8798   8787   8805     1  0.0000000  4.9162000  2
   8803   8798   8787   8805     1  0.0000000  0.6024960  3
   8805   8792   8791   8810     1  0.0000000  0.6508444  3
   8805   8787   8788   8808     1  0.0000000  4.9162000  2
   8805   8787   8788   8808     1  0.0000000  0.6024960  3
   8811   8812   8814   8815     1  180.0000771  0.8368000  1
   8811   8812   8814   8815     1  180.0000771  1.0460000  2
   8811   8812   8814   8815     1  0.0000000  0.7531200  3
   8811   8812   8814   8821     1  0.0000000  0.6508444  3
   8811   8829   8816   8820     1  0.0000000  1.6038667  3
   8811   8829   8816   8815     1  180.0000771  0.4184000  2
   8811   8829   8816   8815     1  0.0000000  1.6024720  3
   8812   8814   8815   8816     1  180.0000771  0.8368000  1
   8812   8814   8815   8816     1  180.0000771  1.0460000  2
   8812   8814   8815   8816     1  0.0000000  0.7531200  3
   8812   8814   8815   8834     1  0.0000000  0.6508444  3
   8812   8811   8822   8827     1  0.0000000  0.6508444  3
   8812   8811   8829   8816     1  180.0000771  0.4184000  2
   8812   8811   8829   8816     1  0.0000000  1.6024720  3
   8814   8815   8816   8820     1  0.0000000  0.6508444  3
   8814   8815   8816   8829     1  0.0000000  0.6508444  3
   8814   8812   8811   8822     1  180.0000771  0.8368000  1
   8814   8812   8811   8822     1  180.0000771  1.0460000  2
   8814   8812   8811   8822     1  0.0000000  0.7531200  3
   8814   8812   8811   8829     1  0.0000000  0.6508444  3
   8815   8814   8812   8832     1  0.0000000  0.6508444  3
   8816   8829   8811   8822     1  180.0000771  0.4184000  2
   8816   8829   8811   8822     1  0.0000000  1.6024720  3
   8816   8815   8814   8821     1  0.0000000  0.6508444  3
   8820   8816   8815   8834     1  0.0000000  0.6508444  3
   8821   8814   8815   8834     1  0.0000000  0.6508444  3
   8821   8814   8812   8832     1  0.0000000  4.9162000  2
   8821   8814   8812   8832     1  0.0000000  0.6024960  3
   8822   8811   8812   8832     1  0.0000000  0.6508444  3
   8827   8822   8811   8829     1  0.0000000  4.9162000  2
   8827   8822   8811   8829     1  0.0000000  0.6024960  3
   8829   8816   8815   8834     1  0.0000000  0.6508444  3
   8829   8811   8812   8832     1  0.0000000  4.9162000  2
   8829   8811   8812   8832     1  0.0000000  0.6024960  3
   8835   8837   8839   8843     1  0.0000000  0.6508444  3
   8837   8839   8843   8844     1  180.0000771  2.0083200  2
   8837   8839   8843   8844     1  0.0000000  1.2552000  3
   8837   8839   8843   8845     1  180.0000771  2.0083200  2
   8837   8839   8843   8845     1  0.0000000  1.2552000  3
   8839   8843   8844   8855     1  180.0000771  2.0083200  2
   8839   8843   8844   8855     1  0.0000000  1.2552000  3
   8839   8843   8845   8847     1  180.0000771  2.0083200  2
   8839   8843   8845   8847     1  0.0000000  1.2552000  3
   8843   8844   8855   8858     1  0.0000000  0.6508444  3
   8843   8845   8847   8851     1  0.0000000  0.6508444  3
   8844   8843   8845   8847     1  180.0000771  2.0083200  2
   8844   8843   8845   8847     1  0.0000000  1.2552000  3
   8844   8855   8858   8859     1  180.0000771  0.0000000  2
   8844   8855   8858   8907     1  180.0000771  0.0000000  2
   8845   8843   8844   8855     1  180.0000771  2.0083200  2
   8845   8843   8844   8855     1  0.0000000  1.2552000  3
   8845   8847   8851   8852     1  180.0000771  0.0000000  2
   8845   8847   8851   8883     1  180.0000771  0.0000000  2
   8847   8851   8883   8864     1  180.0000771  6.0668000  2
   8847   8851   8883   8864     1  180.0000771  1.4644000  4
   8851   8883   8864   8863     1  0.0000000  1.2552000  3
   8851   8883   8864   8865     1  0.0000000  1.2552000  3
   8852   8851   8883   8864     1  180.0000771  6.0668000  2
   8852   8851   8883   8864     1  180.0000771  1.4644000  4
   8855   8858   8907   8888     1  180.0000771  6.0668000  2
   8855   8858   8907   8888     1  180.0000771  1.4644000  4
   8858   8907   8888   8887     1  0.0000000  1.2552000  3
   8858   8907   8888   8889     1  0.0000000  1.2552000  3
   8859   8858   8907   8888     1  180.0000771  6.0668000  2
   8859   8858   8907   8888     1  180.0000771  1.4644000  4
   8860   8861   8863   8864     1  180.0000771  0.8368000  1
   8860   8861   8863   8864     1  180.0000771  1.0460000  2
   8860   8861   8863   8864     1  0.0000000  0.7531200  3
   8860   8861   8863   8870     1  0.0000000  0.6508444  3
   8860   8878   8865   8864     1  180.0000771  0.4184000  2
   8860   8878   8865   8864     1  0.0000000  1.6024720  3
   8860   8878   8865   8869     1  0.0000000  1.6038667  3
   8861   8860   8871   8876     1  0.0000000  0.6508444  3
   8861   8860   8878   8865     1  180.0000771  0.4184000  2
   8861   8860   8878   8865     1  0.0000000  1.6024720  3
   8861   8863   8864   8865     1  180.0000771  0.8368000  1
   8861   8863   8864   8865     1  180.0000771  1.0460000  2
   8861   8863   8864   8865     1  0.0000000  0.7531200  3
   8861   8863   8864   8883     1  0.0000000  0.6508444  3
   8863   8861   8860   8871     1  180.0000771  0.8368000  1
   8863   8861   8860   8871     1  180.0000771  1.0460000  2
   8863   8861   8860   8871     1  0.0000000  0.7531200  3
   8863   8861   8860   8878     1  0.0000000  0.6508444  3
   8863   8864   8865   8869     1  0.0000000  0.6508444  3
   8863   8864   8865   8878     1  0.0000000  0.6508444  3
   8864   8863   8861   8881     1  0.0000000  0.6508444  3
   8865   8864   8863   8870     1  0.0000000  0.6508444  3
   8865   8878   8860   8871     1  180.0000771  0.4184000  2
   8865   8878   8860   8871     1  0.0000000  1.6024720  3
   8869   8865   8864   8883     1  0.0000000  0.6508444  3
   8870   8863   8861   8881     1  0.0000000  4.9162000  2
   8870   8863   8861   8881     1  0.0000000  0.6024960  3
   8870   8863   8864   8883     1  0.0000000  0.6508444  3
   8871   8860   8861   8881     1  0.0000000  0.6508444  3
   8876   8871   8860   8878     1  0.0000000  4.9162000  2
   8876   8871   8860   8878     1  0.0000000  0.6024960  3
   8878   8860   8861   8881     1  0.0000000  4.9162000  2
   8878   8860   8861   8881     1  0.0000000  0.6024960  3
   8878   8865   8864   8883     1  0.0000000  0.6508444  3
   8884   8885   8887   8888     1  180.0000771  0.8368000  1
   8884   8885   8887   8888     1  180.0000771  1.0460000  2
   8884   8885   8887   8888     1  0.0000000  0.7531200  3
   8884   8885   8887   8894     1  0.0000000  0.6508444  3
   8884   8902   8889   8888     1  180.0000771  0.4184000  2
   8884   8902   8889   8888     1  0.0000000  1.6024720  3
   8884   8902   8889   8893     1  0.0000000  1.6038667  3
   8885   8884   8895   8900     1  0.0000000  0.6508444  3
   8885   8884   8902   8889     1  180.0000771  0.4184000  2
   8885   8884   8902   8889     1  0.0000000  1.6024720  3
   8885   8887   8888   8889     1  180.0000771  0.8368000  1
   8885   8887   8888   8889     1  180.0000771  1.0460000  2
   8885   8887   8888   8889     1  0.0000000  0.7531200  3
   8885   8887   8888   8907     1  0.0000000  0.6508444  3
   8887   8885   8884   8895     1  180.0000771  0.8368000  1
   8887   8885   8884   8895     1  180.0000771  1.0460000  2
   8887   8885   8884   8895     1  0.0000000  0.7531200  3
   8887   8885   8884   8902     1  0.0000000  0.6508444  3
   8887   8888   8889   8893     1  0.0000000  0.6508444  3
   8887   8888   8889   8902     1  0.0000000  0.6508444  3
   8888   8887   8885   8905     1  0.0000000  0.6508444  3
   8889   8888   8887   8894     1  0.0000000  0.6508444  3
   8889   8902   8884   8895     1  180.0000771  0.4184000  2
   8889   8902   8884   8895     1  0.0000000  1.6024720  3
   8893   8889   8888   8907     1  0.0000000  0.6508444  3
   8894   8887   8885   8905     1  0.0000000  4.9162000  2
   8894   8887   8885   8905     1  0.0000000  0.6024960  3
   8894   8887   8888   8907     1  0.0000000  0.6508444  3
   8895   8884   8885   8905     1  0.0000000  0.6508444  3
   8900   8895   8884   8902     1  0.0000000  4.9162000  2
   8900   8895   8884   8902     1  0.0000000  0.6024960  3
   8902   8884   8885   8905     1  0.0000000  4.9162000  2
   8902   8884   8885   8905     1  0.0000000  0.6024960  3
   8902   8889   8888   8907     1  0.0000000  0.6508444  3
   8908   8910   8912   8916     1  0.0000000  0.6508444  3
   8910   8912   8916   8917     1  180.0000771  2.0083200  2
   8910   8912   8916   8917     1  0.0000000  1.2552000  3
   8910   8912   8916   8918     1  180.0000771  2.0083200  2
   8910   8912   8916   8918     1  0.0000000  1.2552000  3
   8912   8916   8917   8928     1  180.0000771  2.0083200  2
   8912   8916   8917   8928     1  0.0000000  1.2552000  3
   8912   8916   8918   8920     1  180.0000771  2.0083200  2
   8912   8916   8918   8920     1  0.0000000  1.2552000  3
   8916   8917   8928   8931     1  0.0000000  0.6508444  3
   8916   8918   8920   8924     1  0.0000000  0.6508444  3
   8917   8928   8931   8932     1  180.0000771  0.0000000  2
   8917   8928   8931   8980     1  180.0000771  0.0000000  2
   8917   8916   8918   8920     1  180.0000771  2.0083200  2
   8917   8916   8918   8920     1  0.0000000  1.2552000  3
   8918   8920   8924   8925     1  180.0000771  0.0000000  2
   8918   8920   8924   8956     1  180.0000771  0.0000000  2
   8918   8916   8917   8928     1  180.0000771  2.0083200  2
   8918   8916   8917   8928     1  0.0000000  1.2552000  3
   8920   8924   8956   8937     1  180.0000771  6.0668000  2
   8920   8924   8956   8937     1  180.0000771  1.4644000  4
   8924   8956   8937   8938     1  0.0000000  1.2552000  3
   8924   8956   8937   8936     1  0.0000000  1.2552000  3
   8925   8924   8956   8937     1  180.0000771  6.0668000  2
   8925   8924   8956   8937     1  180.0000771  1.4644000  4
   8928   8931   8980   8961     1  180.0000771  6.0668000  2
   8928   8931   8980   8961     1  180.0000771  1.4644000  4
   8931   8980   8961   8962     1  0.0000000  1.2552000  3
   8931   8980   8961   8960     1  0.0000000  1.2552000  3
   8932   8931   8980   8961     1  180.0000771  6.0668000  2
   8932   8931   8980   8961     1  180.0000771  1.4644000  4
   8933   8934   8936   8937     1  180.0000771  0.8368000  1
   8933   8934   8936   8937     1  180.0000771  1.0460000  2
   8933   8934   8936   8937     1  0.0000000  0.7531200  3
   8933   8934   8936   8943     1  0.0000000  0.6508444  3
   8933   8951   8938   8942     1  0.0000000  1.6038667  3
   8933   8951   8938   8937     1  180.0000771  0.4184000  2
   8933   8951   8938   8937     1  0.0000000  1.6024720  3
   8934   8936   8937   8938     1  180.0000771  0.8368000  1
   8934   8936   8937   8938     1  180.0000771  1.0460000  2
   8934   8936   8937   8938     1  0.0000000  0.7531200  3
   8934   8936   8937   8956     1  0.0000000  0.6508444  3
   8934   8933   8944   8949     1  0.0000000  0.6508444  3
   8934   8933   8951   8938     1  180.0000771  0.4184000  2
   8934   8933   8951   8938     1  0.0000000  1.6024720  3
   8936   8937   8938   8942     1  0.0000000  0.6508444  3
   8936   8937   8938   8951     1  0.0000000  0.6508444  3
   8936   8934   8933   8944     1  180.0000771  0.8368000  1
   8936   8934   8933   8944     1  180.0000771  1.0460000  2
   8936   8934   8933   8944     1  0.0000000  0.7531200  3
   8936   8934   8933   8951     1  0.0000000  0.6508444  3
   8937   8936   8934   8954     1  0.0000000  0.6508444  3
   8938   8951   8933   8944     1  180.0000771  0.4184000  2
   8938   8951   8933   8944     1  0.0000000  1.6024720  3
   8938   8937   8936   8943     1  0.0000000  0.6508444  3
   8942   8938   8937   8956     1  0.0000000  0.6508444  3
   8943   8936   8937   8956     1  0.0000000  0.6508444  3
   8943   8936   8934   8954     1  0.0000000  4.9162000  2
   8943   8936   8934   8954     1  0.0000000  0.6024960  3
   8944   8933   8934   8954     1  0.0000000  0.6508444  3
   8949   8944   8933   8951     1  0.0000000  4.9162000  2
   8949   8944   8933   8951     1  0.0000000  0.6024960  3
   8951   8938   8937   8956     1  0.0000000  0.6508444  3
   8951   8933   8934   8954     1  0.0000000  4.9162000  2
   8951   8933   8934   8954     1  0.0000000  0.6024960  3
   8957   8958   8960   8961     1  180.0000771  0.8368000  1
   8957   8958   8960   8961     1  180.0000771  1.0460000  2
   8957   8958   8960   8961     1  0.0000000  0.7531200  3
   8957   8958   8960   8967     1  0.0000000  0.6508444  3
   8957   8975   8962   8966     1  0.0000000  1.6038667  3
   8957   8975   8962   8961     1  180.0000771  0.4184000  2
   8957   8975   8962   8961     1  0.0000000  1.6024720  3
   8958   8960   8961   8962     1  180.0000771  0.8368000  1
   8958   8960   8961   8962     1  180.0000771  1.0460000  2
   8958   8960   8961   8962     1  0.0000000  0.7531200  3
   8958   8960   8961   8980     1  0.0000000  0.6508444  3
   8958   8957   8968   8973     1  0.0000000  0.6508444  3
   8958   8957   8975   8962     1  180.0000771  0.4184000  2
   8958   8957   8975   8962     1  0.0000000  1.6024720  3
   8960   8961   8962   8966     1  0.0000000  0.6508444  3
   8960   8961   8962   8975     1  0.0000000  0.6508444  3
   8960   8958   8957   8968     1  180.0000771  0.8368000  1
   8960   8958   8957   8968     1  180.0000771  1.0460000  2
   8960   8958   8957   8968     1  0.0000000  0.7531200  3
   8960   8958   8957   8975     1  0.0000000  0.6508444  3
   8961   8960   8958   8978     1  0.0000000  0.6508444  3
   8962   8975   8957   8968     1  180.0000771  0.4184000  2
   8962   8975   8957   8968     1  0.0000000  1.6024720  3
   8962   8961   8960   8967     1  0.0000000  0.6508444  3
   8966   8962   8961   8980     1  0.0000000  0.6508444  3
   8967   8960   8961   8980     1  0.0000000  0.6508444  3
   8967   8960   8958   8978     1  0.0000000  4.9162000  2
   8967   8960   8958   8978     1  0.0000000  0.6024960  3
   8968   8957   8958   8978     1  0.0000000  0.6508444  3
   8973   8968   8957   8975     1  0.0000000  4.9162000  2
   8973   8968   8957   8975     1  0.0000000  0.6024960  3
   8975   8962   8961   8980     1  0.0000000  0.6508444  3
   8975   8957   8958   8978     1  0.0000000  4.9162000  2
   8975   8957   8958   8978     1  0.0000000  0.6024960  3
   8981   8983   8985   8989     1  0.0000000  0.6508444  3
   8983   8985   8989   8990     1  180.0000771  2.0083200  2
   8983   8985   8989   8990     1  0.0000000  1.2552000  3
   8983   8985   8989   8991     1  180.0000771  2.0083200  2
   8983   8985   8989   8991     1  0.0000000  1.2552000  3
   8985   8989   8990   9001     1  180.0000771  2.0083200  2
   8985   8989   8990   9001     1  0.0000000  1.2552000  3
   8985   8989   8991   8993     1  180.0000771  2.0083200  2
   8985   8989   8991   8993     1  0.0000000  1.2552000  3
   8989   8990   9001   9004     1  0.0000000  0.6508444  3
   8989   8991   8993   8997     1  0.0000000  0.6508444  3
   8990   8989   8991   8993     1  180.0000771  2.0083200  2
   8990   8989   8991   8993     1  0.0000000  1.2552000  3
   8990   9001   9004   9005     1  180.0000771  0.0000000  2
   8990   9001   9004   9053     1  180.0000771  0.0000000  2
   8991   8989   8990   9001     1  180.0000771  2.0083200  2
   8991   8989   8990   9001     1  0.0000000  1.2552000  3
   8991   8993   8997   8998     1  180.0000771  0.0000000  2
   8991   8993   8997   9029     1  180.0000771  0.0000000  2
   8993   8997   9029   9010     1  180.0000771  6.0668000  2
   8993   8997   9029   9010     1  180.0000771  1.4644000  4
   8997   9029   9010   9009     1  0.0000000  1.2552000  3
   8997   9029   9010   9011     1  0.0000000  1.2552000  3
   8998   8997   9029   9010     1  180.0000771  6.0668000  2
   8998   8997   9029   9010     1  180.0000771  1.4644000  4
   9001   9004   9053   9034     1  180.0000771  6.0668000  2
   9001   9004   9053   9034     1  180.0000771  1.4644000  4
   9004   9053   9034   9033     1  0.0000000  1.2552000  3
   9004   9053   9034   9035     1  0.0000000  1.2552000  3
   9005   9004   9053   9034     1  180.0000771  6.0668000  2
   9005   9004   9053   9034     1  180.0000771  1.4644000  4
   9006   9007   9009   9010     1  180.0000771  0.8368000  1
   9006   9007   9009   9010     1  180.0000771  1.0460000  2
   9006   9007   9009   9010     1  0.0000000  0.7531200  3
   9006   9007   9009   9016     1  0.0000000  0.6508444  3
   9006   9024   9011   9010     1  180.0000771  0.4184000  2
   9006   9024   9011   9010     1  0.0000000  1.6024720  3
   9006   9024   9011   9015     1  0.0000000  1.6038667  3
   9007   9006   9017   9022     1  0.0000000  0.6508444  3
   9007   9006   9024   9011     1  180.0000771  0.4184000  2
   9007   9006   9024   9011     1  0.0000000  1.6024720  3
   9007   9009   9010   9011     1  180.0000771  0.8368000  1
   9007   9009   9010   9011     1  180.0000771  1.0460000  2
   9007   9009   9010   9011     1  0.0000000  0.7531200  3
   9007   9009   9010   9029     1  0.0000000  0.6508444  3
   9009   9007   9006   9017     1  180.0000771  0.8368000  1
   9009   9007   9006   9017     1  180.0000771  1.0460000  2
   9009   9007   9006   9017     1  0.0000000  0.7531200  3
   9009   9007   9006   9024     1  0.0000000  0.6508444  3
   9009   9010   9011   9015     1  0.0000000  0.6508444  3
   9009   9010   9011   9024     1  0.0000000  0.6508444  3
   9010   9009   9007   9027     1  0.0000000  0.6508444  3
   9011   9010   9009   9016     1  0.0000000  0.6508444  3
   9011   9024   9006   9017     1  180.0000771  0.4184000  2
   9011   9024   9006   9017     1  0.0000000  1.6024720  3
   9015   9011   9010   9029     1  0.0000000  0.6508444  3
   9016   9009   9007   9027     1  0.0000000  4.9162000  2
   9016   9009   9007   9027     1  0.0000000  0.6024960  3
   9016   9009   9010   9029     1  0.0000000  0.6508444  3
   9017   9006   9007   9027     1  0.0000000  0.6508444  3
   9022   9017   9006   9024     1  0.0000000  4.9162000  2
   9022   9017   9006   9024     1  0.0000000  0.6024960  3
   9024   9006   9007   9027     1  0.0000000  4.9162000  2
   9024   9006   9007   9027     1  0.0000000  0.6024960  3
   9024   9011   9010   9029     1  0.0000000  0.6508444  3
   9030   9031   9033   9034     1  180.0000771  0.8368000  1
   9030   9031   9033   9034     1  180.0000771  1.0460000  2
   9030   9031   9033   9034     1  0.0000000  0.7531200  3
   9030   9031   9033   9040     1  0.0000000  0.6508444  3
   9030   9048   9035   9034     1  180.0000771  0.4184000  2
   9030   9048   9035   9034     1  0.0000000  1.6024720  3
   9030   9048   9035   9039     1  0.0000000  1.6038667  3
   9031   9030   9041   9046     1  0.0000000  0.6508444  3
   9031   9030   9048   9035     1  180.0000771  0.4184000  2
   9031   9030   9048   9035     1  0.0000000  1.6024720  3
   9031   9033   9034   9035     1  180.0000771  0.8368000  1
   9031   9033   9034   9035     1  180.0000771  1.0460000  2
   9031   9033   9034   9035     1  0.0000000  0.7531200  3
   9031   9033   9034   9053     1  0.0000000  0.6508444  3
   9033   9031   9030   9041     1  180.0000771  0.8368000  1
   9033   9031   9030   9041     1  180.0000771  1.0460000  2
   9033   9031   9030   9041     1  0.0000000  0.7531200  3
   9033   9031   9030   9048     1  0.0000000  0.6508444  3
   9033   9034   9035   9039     1  0.0000000  0.6508444  3
   9033   9034   9035   9048     1  0.0000000  0.6508444  3
   9034   9033   9031   9051     1  0.0000000  0.6508444  3
   9035   9034   9033   9040     1  0.0000000  0.6508444  3
   9035   9048   9030   9041     1  180.0000771  0.4184000  2
   9035   9048   9030   9041     1  0.0000000  1.6024720  3
   9039   9035   9034   9053     1  0.0000000  0.6508444  3
   9040   9033   9031   9051     1  0.0000000  4.9162000  2
   9040   9033   9031   9051     1  0.0000000  0.6024960  3
   9040   9033   9034   9053     1  0.0000000  0.6508444  3
   9041   9030   9031   9051     1  0.0000000  0.6508444  3
   9046   9041   9030   9048     1  0.0000000  4.9162000  2
   9046   9041   9030   9048     1  0.0000000  0.6024960  3
   9048   9030   9031   9051     1  0.0000000  4.9162000  2
   9048   9030   9031   9051     1  0.0000000  0.6024960  3
   9048   9035   9034   9053     1  0.0000000  0.6508444  3
   9054   9056   9058   9062     1  0.0000000  0.6508444  3
   9056   9058   9062   9063     1  180.0000771  2.0083200  2
   9056   9058   9062   9063     1  0.0000000  1.2552000  3
   9056   9058   9062   9064     1  180.0000771  2.0083200  2
   9056   9058   9062   9064     1  0.0000000  1.2552000  3
   9058   9062   9063   9074     1  180.0000771  2.0083200  2
   9058   9062   9063   9074     1  0.0000000  1.2552000  3
   9058   9062   9064   9066     1  180.0000771  2.0083200  2
   9058   9062   9064   9066     1  0.0000000  1.2552000  3
   9062   9063   9074   9077     1  0.0000000  0.6508444  3
   9062   9064   9066   9070     1  0.0000000  0.6508444  3
   9063   9074   9077   9078     1  180.0000771  0.0000000  2
   9063   9074   9077   9126     1  180.0000771  0.0000000  2
   9063   9062   9064   9066     1  180.0000771  2.0083200  2
   9063   9062   9064   9066     1  0.0000000  1.2552000  3
   9064   9066   9070   9071     1  180.0000771  0.0000000  2
   9064   9066   9070   9102     1  180.0000771  0.0000000  2
   9064   9062   9063   9074     1  180.0000771  2.0083200  2
   9064   9062   9063   9074     1  0.0000000  1.2552000  3
   9066   9070   9102   9083     1  180.0000771  6.0668000  2
   9066   9070   9102   9083     1  180.0000771  1.4644000  4
   9070   9102   9083   9084     1  0.0000000  1.2552000  3
   9070   9102   9083   9082     1  0.0000000  1.2552000  3
   9071   9070   9102   9083     1  180.0000771  6.0668000  2
   9071   9070   9102   9083     1  180.0000771  1.4644000  4
   9074   9077   9126   9107     1  180.0000771  6.0668000  2
   9074   9077   9126   9107     1  180.0000771  1.4644000  4
   9077   9126   9107   9108     1  0.0000000  1.2552000  3
   9077   9126   9107   9106     1  0.0000000  1.2552000  3
   9078   9077   9126   9107     1  180.0000771  6.0668000  2
   9078   9077   9126   9107     1  180.0000771  1.4644000  4
   9079   9080   9082   9083     1  180.0000771  0.8368000  1
   9079   9080   9082   9083     1  180.0000771  1.0460000  2
   9079   9080   9082   9083     1  0.0000000  0.7531200  3
   9079   9080   9082   9089     1  0.0000000  0.6508444  3
   9079   9097   9084   9088     1  0.0000000  1.6038667  3
   9079   9097   9084   9083     1  180.0000771  0.4184000  2
   9079   9097   9084   9083     1  0.0000000  1.6024720  3
   9080   9082   9083   9084     1  180.0000771  0.8368000  1
   9080   9082   9083   9084     1  180.0000771  1.0460000  2
   9080   9082   9083   9084     1  0.0000000  0.7531200  3
   9080   9082   9083   9102     1  0.0000000  0.6508444  3
   9080   9079   9090   9095     1  0.0000000  0.6508444  3
   9080   9079   9097   9084     1  180.0000771  0.4184000  2
   9080   9079   9097   9084     1  0.0000000  1.6024720  3
   9082   9083   9084   9088     1  0.0000000  0.6508444  3
   9082   9083   9084   9097     1  0.0000000  0.6508444  3
   9082   9080   9079   9090     1  180.0000771  0.8368000  1
   9082   9080   9079   9090     1  180.0000771  1.0460000  2
   9082   9080   9079   9090     1  0.0000000  0.7531200  3
   9082   9080   9079   9097     1  0.0000000  0.6508444  3
   9083   9082   9080   9100     1  0.0000000  0.6508444  3
   9084   9097   9079   9090     1  180.0000771  0.4184000  2
   9084   9097   9079   9090     1  0.0000000  1.6024720  3
   9084   9083   9082   9089     1  0.0000000  0.6508444  3
   9088   9084   9083   9102     1  0.0000000  0.6508444  3
   9089   9082   9083   9102     1  0.0000000  0.6508444  3
   9089   9082   9080   9100     1  0.0000000  4.9162000  2
   9089   9082   9080   9100     1  0.0000000  0.6024960  3
   9090   9079   9080   9100     1  0.0000000  0.6508444  3
   9095   9090   9079   9097     1  0.0000000  4.9162000  2
   9095   9090   9079   9097     1  0.0000000  0.6024960  3
   9097   9084   9083   9102     1  0.0000000  0.6508444  3
   9097   9079   9080   9100     1  0.0000000  4.9162000  2
   9097   9079   9080   9100     1  0.0000000  0.6024960  3
   9103   9104   9106   9107     1  180.0000771  0.8368000  1
   9103   9104   9106   9107     1  180.0000771  1.0460000  2
   9103   9104   9106   9107     1  0.0000000  0.7531200  3
   9103   9104   9106   9113     1  0.0000000  0.6508444  3
   9103   9121   9108   9112     1  0.0000000  1.6038667  3
   9103   9121   9108   9107     1  180.0000771  0.4184000  2
   9103   9121   9108   9107     1  0.0000000  1.6024720  3
   9104   9106   9107   9108     1  180.0000771  0.8368000  1
   9104   9106   9107   9108     1  180.0000771  1.0460000  2
   9104   9106   9107   9108     1  0.0000000  0.7531200  3
   9104   9106   9107   9126     1  0.0000000  0.6508444  3
   9104   9103   9114   9119     1  0.0000000  0.6508444  3
   9104   9103   9121   9108     1  180.0000771  0.4184000  2
   9104   9103   9121   9108     1  0.0000000  1.6024720  3
   9106   9107   9108   9112     1  0.0000000  0.6508444  3
   9106   9107   9108   9121     1  0.0000000  0.6508444  3
   9106   9104   9103   9114     1  180.0000771  0.8368000  1
   9106   9104   9103   9114     1  180.0000771  1.0460000  2
   9106   9104   9103   9114     1  0.0000000  0.7531200  3
   9106   9104   9103   9121     1  0.0000000  0.6508444  3
   9107   9106   9104   9124     1  0.0000000  0.6508444  3
   9108   9121   9103   9114     1  180.0000771  0.4184000  2
   9108   9121   9103   9114     1  0.0000000  1.6024720  3
   9108   9107   9106   9113     1  0.0000000  0.6508444  3
   9112   9108   9107   9126     1  0.0000000  0.6508444  3
   9113   9106   9107   9126     1  0.0000000  0.6508444  3
   9113   9106   9104   9124     1  0.0000000  4.9162000  2
   9113   9106   9104   9124     1  0.0000000  0.6024960  3
   9114   9103   9104   9124     1  0.0000000  0.6508444  3
   9119   9114   9103   9121     1  0.0000000  4.9162000  2
   9119   9114   9103   9121     1  0.0000000  0.6024960  3
   9121   9108   9107   9126     1  0.0000000  0.6508444  3
   9121   9103   9104   9124     1  0.0000000  4.9162000  2
   9121   9103   9104   9124     1  0.0000000  0.6024960  3
   9127   9129   9131   9135     1  0.0000000  0.6508444  3
   9129   9131   9135   9136     1  180.0000771  2.0083200  2
   9129   9131   9135   9136     1  0.0000000  1.2552000  3
   9129   9131   9135   9137     1  180.0000771  2.0083200  2
   9129   9131   9135   9137     1  0.0000000  1.2552000  3
   9131   9135   9136   9147     1  180.0000771  2.0083200  2
   9131   9135   9136   9147     1  0.0000000  1.2552000  3
   9131   9135   9137   9139     1  180.0000771  2.0083200  2
   9131   9135   9137   9139     1  0.0000000  1.2552000  3
   9135   9136   9147   9150     1  0.0000000  0.6508444  3
   9135   9137   9139   9143     1  0.0000000  0.6508444  3
   9136   9135   9137   9139     1  180.0000771  2.0083200  2
   9136   9135   9137   9139     1  0.0000000  1.2552000  3
   9136   9147   9150   9151     1  180.0000771  0.0000000  2
   9136   9147   9150   9199     1  180.0000771  0.0000000  2
   9137   9135   9136   9147     1  180.0000771  2.0083200  2
   9137   9135   9136   9147     1  0.0000000  1.2552000  3
   9137   9139   9143   9144     1  180.0000771  0.0000000  2
   9137   9139   9143   9175     1  180.0000771  0.0000000  2
   9139   9143   9175   9156     1  180.0000771  6.0668000  2
   9139   9143   9175   9156     1  180.0000771  1.4644000  4
   9143   9175   9156   9155     1  0.0000000  1.2552000  3
   9143   9175   9156   9157     1  0.0000000  1.2552000  3
   9144   9143   9175   9156     1  180.0000771  6.0668000  2
   9144   9143   9175   9156     1  180.0000771  1.4644000  4
   9147   9150   9199   9180     1  180.0000771  6.0668000  2
   9147   9150   9199   9180     1  180.0000771  1.4644000  4
   9150   9199   9180   9179     1  0.0000000  1.2552000  3
   9150   9199   9180   9181     1  0.0000000  1.2552000  3
   9151   9150   9199   9180     1  180.0000771  6.0668000  2
   9151   9150   9199   9180     1  180.0000771  1.4644000  4
   9152   9153   9155   9156     1  180.0000771  0.8368000  1
   9152   9153   9155   9156     1  180.0000771  1.0460000  2
   9152   9153   9155   9156     1  0.0000000  0.7531200  3
   9152   9153   9155   9162     1  0.0000000  0.6508444  3
   9152   9170   9157   9156     1  180.0000771  0.4184000  2
   9152   9170   9157   9156     1  0.0000000  1.6024720  3
   9152   9170   9157   9161     1  0.0000000  1.6038667  3
   9153   9152   9163   9168     1  0.0000000  0.6508444  3
   9153   9152   9170   9157     1  180.0000771  0.4184000  2
   9153   9152   9170   9157     1  0.0000000  1.6024720  3
   9153   9155   9156   9157     1  180.0000771  0.8368000  1
   9153   9155   9156   9157     1  180.0000771  1.0460000  2
   9153   9155   9156   9157     1  0.0000000  0.7531200  3
   9153   9155   9156   9175     1  0.0000000  0.6508444  3
   9155   9153   9152   9163     1  180.0000771  0.8368000  1
   9155   9153   9152   9163     1  180.0000771  1.0460000  2
   9155   9153   9152   9163     1  0.0000000  0.7531200  3
   9155   9153   9152   9170     1  0.0000000  0.6508444  3
   9155   9156   9157   9161     1  0.0000000  0.6508444  3
   9155   9156   9157   9170     1  0.0000000  0.6508444  3
   9156   9155   9153   9173     1  0.0000000  0.6508444  3
   9157   9156   9155   9162     1  0.0000000  0.6508444  3
   9157   9170   9152   9163     1  180.0000771  0.4184000  2
   9157   9170   9152   9163     1  0.0000000  1.6024720  3
   9161   9157   9156   9175     1  0.0000000  0.6508444  3
   9162   9155   9153   9173     1  0.0000000  4.9162000  2
   9162   9155   9153   9173     1  0.0000000  0.6024960  3
   9162   9155   9156   9175     1  0.0000000  0.6508444  3
   9163   9152   9153   9173     1  0.0000000  0.6508444  3
   9168   9163   9152   9170     1  0.0000000  4.9162000  2
   9168   9163   9152   9170     1  0.0000000  0.6024960  3
   9170   9152   9153   9173     1  0.0000000  4.9162000  2
   9170   9152   9153   9173     1  0.0000000  0.6024960  3
   9170   9157   9156   9175     1  0.0000000  0.6508444  3
   9176   9177   9179   9180     1  180.0000771  0.8368000  1
   9176   9177   9179   9180     1  180.0000771  1.0460000  2
   9176   9177   9179   9180     1  0.0000000  0.7531200  3
   9176   9177   9179   9186     1  0.0000000  0.6508444  3
   9176   9194   9181   9180     1  180.0000771  0.4184000  2
   9176   9194   9181   9180     1  0.0000000  1.6024720  3
   9176   9194   9181   9185     1  0.0000000  1.6038667  3
   9177   9176   9187   9192     1  0.0000000  0.6508444  3
   9177   9176   9194   9181     1  180.0000771  0.4184000  2
   9177   9176   9194   9181     1  0.0000000  1.6024720  3
   9177   9179   9180   9181     1  180.0000771  0.8368000  1
   9177   9179   9180   9181     1  180.0000771  1.0460000  2
   9177   9179   9180   9181     1  0.0000000  0.7531200  3
   9177   9179   9180   9199     1  0.0000000  0.6508444  3
   9179   9177   9176   9187     1  180.0000771  0.8368000  1
   9179   9177   9176   9187     1  180.0000771  1.0460000  2
   9179   9177   9176   9187     1  0.0000000  0.7531200  3
   9179   9177   9176   9194     1  0.0000000  0.6508444  3
   9179   9180   9181   9185     1  0.0000000  0.6508444  3
   9179   9180   9181   9194     1  0.0000000  0.6508444  3
   9180   9179   9177   9197     1  0.0000000  0.6508444  3
   9181   9180   9179   9186     1  0.0000000  0.6508444  3
   9181   9194   9176   9187     1  180.0000771  0.4184000  2
   9181   9194   9176   9187     1  0.0000000  1.6024720  3
   9185   9181   9180   9199     1  0.0000000  0.6508444  3
   9186   9179   9177   9197     1  0.0000000  4.9162000  2
   9186   9179   9177   9197     1  0.0000000  0.6024960  3
   9186   9179   9180   9199     1  0.0000000  0.6508444  3
   9187   9176   9177   9197     1  0.0000000  0.6508444  3
   9192   9187   9176   9194     1  0.0000000  4.9162000  2
   9192   9187   9176   9194     1  0.0000000  0.6024960  3
   9194   9176   9177   9197     1  0.0000000  4.9162000  2
   9194   9176   9177   9197     1  0.0000000  0.6024960  3
   9194   9181   9180   9199     1  0.0000000  0.6508444  3
   9200   9202   9204   9208     1  0.0000000  0.6508444  3
   9202   9204   9208   9209     1  180.0000771  2.0083200  2
   9202   9204   9208   9209     1  0.0000000  1.2552000  3
   9202   9204   9208   9210     1  180.0000771  2.0083200  2
   9202   9204   9208   9210     1  0.0000000  1.2552000  3
   9204   9208   9209   9220     1  180.0000771  2.0083200  2
   9204   9208   9209   9220     1  0.0000000  1.2552000  3
   9204   9208   9210   9212     1  180.0000771  2.0083200  2
   9204   9208   9210   9212     1  0.0000000  1.2552000  3
   9208   9209   9220   9223     1  0.0000000  0.6508444  3
   9208   9210   9212   9216     1  0.0000000  0.6508444  3
   9209   9220   9223   9224     1  180.0000771  0.0000000  2
   9209   9220   9223   9272     1  180.0000771  0.0000000  2
   9209   9208   9210   9212     1  180.0000771  2.0083200  2
   9209   9208   9210   9212     1  0.0000000  1.2552000  3
   9210   9212   9216   9217     1  180.0000771  0.0000000  2
   9210   9212   9216   9248     1  180.0000771  0.0000000  2
   9210   9208   9209   9220     1  180.0000771  2.0083200  2
   9210   9208   9209   9220     1  0.0000000  1.2552000  3
   9212   9216   9248   9229     1  180.0000771  6.0668000  2
   9212   9216   9248   9229     1  180.0000771  1.4644000  4
   9216   9248   9229   9230     1  0.0000000  1.2552000  3
   9216   9248   9229   9228     1  0.0000000  1.2552000  3
   9217   9216   9248   9229     1  180.0000771  6.0668000  2
   9217   9216   9248   9229     1  180.0000771  1.4644000  4
   9220   9223   9272   9253     1  180.0000771  6.0668000  2
   9220   9223   9272   9253     1  180.0000771  1.4644000  4
   9223   9272   9253   9254     1  0.0000000  1.2552000  3
   9223   9272   9253   9252     1  0.0000000  1.2552000  3
   9224   9223   9272   9253     1  180.0000771  6.0668000  2
   9224   9223   9272   9253     1  180.0000771  1.4644000  4
   9225   9226   9228   9229     1  180.0000771  0.8368000  1
   9225   9226   9228   9229     1  180.0000771  1.0460000  2
   9225   9226   9228   9229     1  0.0000000  0.7531200  3
   9225   9226   9228   9235     1  0.0000000  0.6508444  3
   9225   9243   9230   9234     1  0.0000000  1.6038667  3
   9225   9243   9230   9229     1  180.0000771  0.4184000  2
   9225   9243   9230   9229     1  0.0000000  1.6024720  3
   9226   9228   9229   9230     1  180.0000771  0.8368000  1
   9226   9228   9229   9230     1  180.0000771  1.0460000  2
   9226   9228   9229   9230     1  0.0000000  0.7531200  3
   9226   9228   9229   9248     1  0.0000000  0.6508444  3
   9226   9225   9236   9241     1  0.0000000  0.6508444  3
   9226   9225   9243   9230     1  180.0000771  0.4184000  2
   9226   9225   9243   9230     1  0.0000000  1.6024720  3
   9228   9229   9230   9234     1  0.0000000  0.6508444  3
   9228   9229   9230   9243     1  0.0000000  0.6508444  3
   9228   9226   9225   9236     1  180.0000771  0.8368000  1
   9228   9226   9225   9236     1  180.0000771  1.0460000  2
   9228   9226   9225   9236     1  0.0000000  0.7531200  3
   9228   9226   9225   9243     1  0.0000000  0.6508444  3
   9229   9228   9226   9246     1  0.0000000  0.6508444  3
   9230   9243   9225   9236     1  180.0000771  0.4184000  2
   9230   9243   9225   9236     1  0.0000000  1.6024720  3
   9230   9229   9228   9235     1  0.0000000  0.6508444  3
   9234   9230   9229   9248     1  0.0000000  0.6508444  3
   9235   9228   9229   9248     1  0.0000000  0.6508444  3
   9235   9228   9226   9246     1  0.0000000  4.9162000  2
   9235   9228   9226   9246     1  0.0000000  0.6024960  3
   9236   9225   9226   9246     1  0.0000000  0.6508444  3
   9241   9236   9225   9243     1  0.0000000  4.9162000  2
   9241   9236   9225   9243     1  0.0000000  0.6024960  3
   9243   9230   9229   9248     1  0.0000000  0.6508444  3
   9243   9225   9226   9246     1  0.0000000  4.9162000  2
   9243   9225   9226   9246     1  0.0000000  0.6024960  3
   9249   9250   9252   9253     1  180.0000771  0.8368000  1
   9249   9250   9252   9253     1  180.0000771  1.0460000  2
   9249   9250   9252   9253     1  0.0000000  0.7531200  3
   9249   9250   9252   9259     1  0.0000000  0.6508444  3
   9249   9267   9254   9258     1  0.0000000  1.6038667  3
   9249   9267   9254   9253     1  180.0000771  0.4184000  2
   9249   9267   9254   9253     1  0.0000000  1.6024720  3
   9250   9252   9253   9254     1  180.0000771  0.8368000  1
   9250   9252   9253   9254     1  180.0000771  1.0460000  2
   9250   9252   9253   9254     1  0.0000000  0.7531200  3
   9250   9252   9253   9272     1  0.0000000  0.6508444  3
   9250   9249   9260   9265     1  0.0000000  0.6508444  3
   9250   9249   9267   9254     1  180.0000771  0.4184000  2
   9250   9249   9267   9254     1  0.0000000  1.6024720  3
   9252   9253   9254   9258     1  0.0000000  0.6508444  3
   9252   9253   9254   9267     1  0.0000000  0.6508444  3
   9252   9250   9249   9260     1  180.0000771  0.8368000  1
   9252   9250   9249   9260     1  180.0000771  1.0460000  2
   9252   9250   9249   9260     1  0.0000000  0.7531200  3
   9252   9250   9249   9267     1  0.0000000  0.6508444  3
   9253   9252   9250   9270     1  0.0000000  0.6508444  3
   9254   9267   9249   9260     1  180.0000771  0.4184000  2
   9254   9267   9249   9260     1  0.0000000  1.6024720  3
   9254   9253   9252   9259     1  0.0000000  0.6508444  3
   9258   9254   9253   9272     1  0.0000000  0.6508444  3
   9259   9252   9253   9272     1  0.0000000  0.6508444  3
   9259   9252   9250   9270     1  0.0000000  4.9162000  2
   9259   9252   9250   9270     1  0.0000000  0.6024960  3
   9260   9249   9250   9270     1  0.0000000  0.6508444  3
   9265   9260   9249   9267     1  0.0000000  4.9162000  2
   9265   9260   9249   9267     1  0.0000000  0.6024960  3
   9267   9254   9253   9272     1  0.0000000  0.6508444  3
   9267   9249   9250   9270     1  0.0000000  4.9162000  2
   9267   9249   9250   9270     1  0.0000000  0.6024960  3
   9273   9275   9277   9281     1  0.0000000  0.6508444  3
   9275   9277   9281   9282     1  180.0000771  2.0083200  2
   9275   9277   9281   9282     1  0.0000000  1.2552000  3
   9275   9277   9281   9283     1  180.0000771  2.0083200  2
   9275   9277   9281   9283     1  0.0000000  1.2552000  3
   9277   9281   9282   9293     1  180.0000771  2.0083200  2
   9277   9281   9282   9293     1  0.0000000  1.2552000  3
   9277   9281   9283   9285     1  180.0000771  2.0083200  2
   9277   9281   9283   9285     1  0.0000000  1.2552000  3
   9281   9282   9293   9296     1  0.0000000  0.6508444  3
   9281   9283   9285   9289     1  0.0000000  0.6508444  3
   9282   9281   9283   9285     1  180.0000771  2.0083200  2
   9282   9281   9283   9285     1  0.0000000  1.2552000  3
   9282   9293   9296   9297     1  180.0000771  0.0000000  2
   9282   9293   9296   9345     1  180.0000771  0.0000000  2
   9283   9281   9282   9293     1  180.0000771  2.0083200  2
   9283   9281   9282   9293     1  0.0000000  1.2552000  3
   9283   9285   9289   9290     1  180.0000771  0.0000000  2
   9283   9285   9289   9321     1  180.0000771  0.0000000  2
   9285   9289   9321   9302     1  180.0000771  6.0668000  2
   9285   9289   9321   9302     1  180.0000771  1.4644000  4
   9289   9321   9302   9301     1  0.0000000  1.2552000  3
   9289   9321   9302   9303     1  0.0000000  1.2552000  3
   9290   9289   9321   9302     1  180.0000771  6.0668000  2
   9290   9289   9321   9302     1  180.0000771  1.4644000  4
   9293   9296   9345   9326     1  180.0000771  6.0668000  2
   9293   9296   9345   9326     1  180.0000771  1.4644000  4
   9296   9345   9326   9325     1  0.0000000  1.2552000  3
   9296   9345   9326   9327     1  0.0000000  1.2552000  3
   9297   9296   9345   9326     1  180.0000771  6.0668000  2
   9297   9296   9345   9326     1  180.0000771  1.4644000  4
   9298   9299   9301   9302     1  180.0000771  0.8368000  1
   9298   9299   9301   9302     1  180.0000771  1.0460000  2
   9298   9299   9301   9302     1  0.0000000  0.7531200  3
   9298   9299   9301   9308     1  0.0000000  0.6508444  3
   9298   9316   9303   9302     1  180.0000771  0.4184000  2
   9298   9316   9303   9302     1  0.0000000  1.6024720  3
   9298   9316   9303   9307     1  0.0000000  1.6038667  3
   9299   9298   9309   9314     1  0.0000000  0.6508444  3
   9299   9298   9316   9303     1  180.0000771  0.4184000  2
   9299   9298   9316   9303     1  0.0000000  1.6024720  3
   9299   9301   9302   9303     1  180.0000771  0.8368000  1
   9299   9301   9302   9303     1  180.0000771  1.0460000  2
   9299   9301   9302   9303     1  0.0000000  0.7531200  3
   9299   9301   9302   9321     1  0.0000000  0.6508444  3
   9301   9299   9298   9309     1  180.0000771  0.8368000  1
   9301   9299   9298   9309     1  180.0000771  1.0460000  2
   9301   9299   9298   9309     1  0.0000000  0.7531200  3
   9301   9299   9298   9316     1  0.0000000  0.6508444  3
   9301   9302   9303   9307     1  0.0000000  0.6508444  3
   9301   9302   9303   9316     1  0.0000000  0.6508444  3
   9302   9301   9299   9319     1  0.0000000  0.6508444  3
   9303   9302   9301   9308     1  0.0000000  0.6508444  3
   9303   9316   9298   9309     1  180.0000771  0.4184000  2
   9303   9316   9298   9309     1  0.0000000  1.6024720  3
   9307   9303   9302   9321     1  0.0000000  0.6508444  3
   9308   9301   9299   9319     1  0.0000000  4.9162000  2
   9308   9301   9299   9319     1  0.0000000  0.6024960  3
   9308   9301   9302   9321     1  0.0000000  0.6508444  3
   9309   9298   9299   9319     1  0.0000000  0.6508444  3
   9314   9309   9298   9316     1  0.0000000  4.9162000  2
   9314   9309   9298   9316     1  0.0000000  0.6024960  3
   9316   9298   9299   9319     1  0.0000000  4.9162000  2
   9316   9298   9299   9319     1  0.0000000  0.6024960  3
   9316   9303   9302   9321     1  0.0000000  0.6508444  3
   9322   9323   9325   9326     1  180.0000771  0.8368000  1
   9322   9323   9325   9326     1  180.0000771  1.0460000  2
   9322   9323   9325   9326     1  0.0000000  0.7531200  3
   9322   9323   9325   9332     1  0.0000000  0.6508444  3
   9322   9340   9327   9326     1  180.0000771  0.4184000  2
   9322   9340   9327   9326     1  0.0000000  1.6024720  3
   9322   9340   9327   9331     1  0.0000000  1.6038667  3
   9323   9322   9333   9338     1  0.0000000  0.6508444  3
   9323   9322   9340   9327     1  180.0000771  0.4184000  2
   9323   9322   9340   9327     1  0.0000000  1.6024720  3
   9323   9325   9326   9327     1  180.0000771  0.8368000  1
   9323   9325   9326   9327     1  180.0000771  1.0460000  2
   9323   9325   9326   9327     1  0.0000000  0.7531200  3
   9323   9325   9326   9345     1  0.0000000  0.6508444  3
   9325   9323   9322   9333     1  180.0000771  0.8368000  1
   9325   9323   9322   9333     1  180.0000771  1.0460000  2
   9325   9323   9322   9333     1  0.0000000  0.7531200  3
   9325   9323   9322   9340     1  0.0000000  0.6508444  3
   9325   9326   9327   9331     1  0.0000000  0.6508444  3
   9325   9326   9327   9340     1  0.0000000  0.6508444  3
   9326   9325   9323   9343     1  0.0000000  0.6508444  3
   9327   9326   9325   9332     1  0.0000000  0.6508444  3
   9327   9340   9322   9333     1  180.0000771  0.4184000  2
   9327   9340   9322   9333     1  0.0000000  1.6024720  3
   9331   9327   9326   9345     1  0.0000000  0.6508444  3
   9332   9325   9323   9343     1  0.0000000  4.9162000  2
   9332   9325   9323   9343     1  0.0000000  0.6024960  3
   9332   9325   9326   9345     1  0.0000000  0.6508444  3
   9333   9322   9323   9343     1  0.0000000  0.6508444  3
   9338   9333   9322   9340     1  0.0000000  4.9162000  2
   9338   9333   9322   9340     1  0.0000000  0.6024960  3
   9340   9322   9323   9343     1  0.0000000  4.9162000  2
   9340   9322   9323   9343     1  0.0000000  0.6024960  3
   9340   9327   9326   9345     1  0.0000000  0.6508444  3
   9346   9348   9350   9354     1  0.0000000  0.6508444  3
   9348   9350   9354   9355     1  180.0000771  2.0083200  2
   9348   9350   9354   9355     1  0.0000000  1.2552000  3
   9348   9350   9354   9356     1  180.0000771  2.0083200  2
   9348   9350   9354   9356     1  0.0000000  1.2552000  3
   9350   9354   9355   9366     1  180.0000771  2.0083200  2
   9350   9354   9355   9366     1  0.0000000  1.2552000  3
   9350   9354   9356   9358     1  180.0000771  2.0083200  2
   9350   9354   9356   9358     1  0.0000000  1.2552000  3
   9354   9355   9366   9369     1  0.0000000  0.6508444  3
   9354   9356   9358   9362     1  0.0000000  0.6508444  3
   9355   9366   9369   9370     1  180.0000771  0.0000000  2
   9355   9366   9369   9418     1  180.0000771  0.0000000  2
   9355   9354   9356   9358     1  180.0000771  2.0083200  2
   9355   9354   9356   9358     1  0.0000000  1.2552000  3
   9356   9358   9362   9363     1  180.0000771  0.0000000  2
   9356   9358   9362   9394     1  180.0000771  0.0000000  2
   9356   9354   9355   9366     1  180.0000771  2.0083200  2
   9356   9354   9355   9366     1  0.0000000  1.2552000  3
   9358   9362   9394   9375     1  180.0000771  6.0668000  2
   9358   9362   9394   9375     1  180.0000771  1.4644000  4
   9362   9394   9375   9376     1  0.0000000  1.2552000  3
   9362   9394   9375   9374     1  0.0000000  1.2552000  3
   9363   9362   9394   9375     1  180.0000771  6.0668000  2
   9363   9362   9394   9375     1  180.0000771  1.4644000  4
   9366   9369   9418   9399     1  180.0000771  6.0668000  2
   9366   9369   9418   9399     1  180.0000771  1.4644000  4
   9369   9418   9399   9400     1  0.0000000  1.2552000  3
   9369   9418   9399   9398     1  0.0000000  1.2552000  3
   9370   9369   9418   9399     1  180.0000771  6.0668000  2
   9370   9369   9418   9399     1  180.0000771  1.4644000  4
   9371   9372   9374   9375     1  180.0000771  0.8368000  1
   9371   9372   9374   9375     1  180.0000771  1.0460000  2
   9371   9372   9374   9375     1  0.0000000  0.7531200  3
   9371   9372   9374   9381     1  0.0000000  0.6508444  3
   9371   9389   9376   9380     1  0.0000000  1.6038667  3
   9371   9389   9376   9375     1  180.0000771  0.4184000  2
   9371   9389   9376   9375     1  0.0000000  1.6024720  3
   9372   9374   9375   9376     1  180.0000771  0.8368000  1
   9372   9374   9375   9376     1  180.0000771  1.0460000  2
   9372   9374   9375   9376     1  0.0000000  0.7531200  3
   9372   9374   9375   9394     1  0.0000000  0.6508444  3
   9372   9371   9382   9387     1  0.0000000  0.6508444  3
   9372   9371   9389   9376     1  180.0000771  0.4184000  2
   9372   9371   9389   9376     1  0.0000000  1.6024720  3
   9374   9375   9376   9380     1  0.0000000  0.6508444  3
   9374   9375   9376   9389     1  0.0000000  0.6508444  3
   9374   9372   9371   9382     1  180.0000771  0.8368000  1
   9374   9372   9371   9382     1  180.0000771  1.0460000  2
   9374   9372   9371   9382     1  0.0000000  0.7531200  3
   9374   9372   9371   9389     1  0.0000000  0.6508444  3
   9375   9374   9372   9392     1  0.0000000  0.6508444  3
   9376   9389   9371   9382     1  180.0000771  0.4184000  2
   9376   9389   9371   9382     1  0.0000000  1.6024720  3
   9376   9375   9374   9381     1  0.0000000  0.6508444  3
   9380   9376   9375   9394     1  0.0000000  0.6508444  3
   9381   9374   9375   9394     1  0.0000000  0.6508444  3
   9381   9374   9372   9392     1  0.0000000  4.9162000  2
   9381   9374   9372   9392     1  0.0000000  0.6024960  3
   9382   9371   9372   9392     1  0.0000000  0.6508444  3
   9387   9382   9371   9389     1  0.0000000  4.9162000  2
   9387   9382   9371   9389     1  0.0000000  0.6024960  3
   9389   9376   9375   9394     1  0.0000000  0.6508444  3
   9389   9371   9372   9392     1  0.0000000  4.9162000  2
   9389   9371   9372   9392     1  0.0000000  0.6024960  3
   9395   9396   9398   9399     1  180.0000771  0.8368000  1
   9395   9396   9398   9399     1  180.0000771  1.0460000  2
   9395   9396   9398   9399     1  0.0000000  0.7531200  3
   9395   9396   9398   9405     1  0.0000000  0.6508444  3
   9395   9413   9400   9404     1  0.0000000  1.6038667  3
   9395   9413   9400   9399     1  180.0000771  0.4184000  2
   9395   9413   9400   9399     1  0.0000000  1.6024720  3
   9396   9398   9399   9400     1  180.0000771  0.8368000  1
   9396   9398   9399   9400     1  180.0000771  1.0460000  2
   9396   9398   9399   9400     1  0.0000000  0.7531200  3
   9396   9398   9399   9418     1  0.0000000  0.6508444  3
   9396   9395   9406   9411     1  0.0000000  0.6508444  3
   9396   9395   9413   9400     1  180.0000771  0.4184000  2
   9396   9395   9413   9400     1  0.0000000  1.6024720  3
   9398   9399   9400   9404     1  0.0000000  0.6508444  3
   9398   9399   9400   9413     1  0.0000000  0.6508444  3
   9398   9396   9395   9406     1  180.0000771  0.8368000  1
   9398   9396   9395   9406     1  180.0000771  1.0460000  2
   9398   9396   9395   9406     1  0.0000000  0.7531200  3
   9398   9396   9395   9413     1  0.0000000  0.6508444  3
   9399   9398   9396   9416     1  0.0000000  0.6508444  3
   9400   9413   9395   9406     1  180.0000771  0.4184000  2
   9400   9413   9395   9406     1  0.0000000  1.6024720  3
   9400   9399   9398   9405     1  0.0000000  0.6508444  3
   9404   9400   9399   9418     1  0.0000000  0.6508444  3
   9405   9398   9399   9418     1  0.0000000  0.6508444  3
   9405   9398   9396   9416     1  0.0000000  4.9162000  2
   9405   9398   9396   9416     1  0.0000000  0.6024960  3
   9406   9395   9396   9416     1  0.0000000  0.6508444  3
   9411   9406   9395   9413     1  0.0000000  4.9162000  2
   9411   9406   9395   9413     1  0.0000000  0.6024960  3
   9413   9400   9399   9418     1  0.0000000  0.6508444  3
   9413   9395   9396   9416     1  0.0000000  4.9162000  2
   9413   9395   9396   9416     1  0.0000000  0.6024960  3
   9419   9421   9423   9427     1  0.0000000  0.6508444  3
   9421   9423   9427   9428     1  180.0000771  2.0083200  2
   9421   9423   9427   9428     1  0.0000000  1.2552000  3
   9421   9423   9427   9429     1  180.0000771  2.0083200  2
   9421   9423   9427   9429     1  0.0000000  1.2552000  3
   9423   9427   9428   9439     1  180.0000771  2.0083200  2
   9423   9427   9428   9439     1  0.0000000  1.2552000  3
   9423   9427   9429   9431     1  180.0000771  2.0083200  2
   9423   9427   9429   9431     1  0.0000000  1.2552000  3
   9427   9428   9439   9442     1  0.0000000  0.6508444  3
   9427   9429   9431   9435     1  0.0000000  0.6508444  3
   9428   9427   9429   9431     1  180.0000771  2.0083200  2
   9428   9427   9429   9431     1  0.0000000  1.2552000  3
   9428   9439   9442   9443     1  180.0000771  0.0000000  2
   9428   9439   9442   9491     1  180.0000771  0.0000000  2
   9429   9427   9428   9439     1  180.0000771  2.0083200  2
   9429   9427   9428   9439     1  0.0000000  1.2552000  3
   9429   9431   9435   9436     1  180.0000771  0.0000000  2
   9429   9431   9435   9467     1  180.0000771  0.0000000  2
   9431   9435   9467   9448     1  180.0000771  6.0668000  2
   9431   9435   9467   9448     1  180.0000771  1.4644000  4
   9435   9467   9448   9447     1  0.0000000  1.2552000  3
   9435   9467   9448   9449     1  0.0000000  1.2552000  3
   9436   9435   9467   9448     1  180.0000771  6.0668000  2
   9436   9435   9467   9448     1  180.0000771  1.4644000  4
   9439   9442   9491   9472     1  180.0000771  6.0668000  2
   9439   9442   9491   9472     1  180.0000771  1.4644000  4
   9442   9491   9472   9471     1  0.0000000  1.2552000  3
   9442   9491   9472   9473     1  0.0000000  1.2552000  3
   9443   9442   9491   9472     1  180.0000771  6.0668000  2
   9443   9442   9491   9472     1  180.0000771  1.4644000  4
   9444   9445   9447   9448     1  180.0000771  0.8368000  1
   9444   9445   9447   9448     1  180.0000771  1.0460000  2
   9444   9445   9447   9448     1  0.0000000  0.7531200  3
   9444   9445   9447   9454     1  0.0000000  0.6508444  3
   9444   9462   9449   9448     1  180.0000771  0.4184000  2
   9444   9462   9449   9448     1  0.0000000  1.6024720  3
   9444   9462   9449   9453     1  0.0000000  1.6038667  3
   9445   9444   9455   9460     1  0.0000000  0.6508444  3
   9445   9444   9462   9449     1  180.0000771  0.4184000  2
   9445   9444   9462   9449     1  0.0000000  1.6024720  3
   9445   9447   9448   9449     1  180.0000771  0.8368000  1
   9445   9447   9448   9449     1  180.0000771  1.0460000  2
   9445   9447   9448   9449     1  0.0000000  0.7531200  3
   9445   9447   9448   9467     1  0.0000000  0.6508444  3
   9447   9445   9444   9455     1  180.0000771  0.8368000  1
   9447   9445   9444   9455     1  180.0000771  1.0460000  2
   9447   9445   9444   9455     1  0.0000000  0.7531200  3
   9447   9445   9444   9462     1  0.0000000  0.6508444  3
   9447   9448   9449   9453     1  0.0000000  0.6508444  3
   9447   9448   9449   9462     1  0.0000000  0.6508444  3
   9448   9447   9445   9465     1  0.0000000  0.6508444  3
   9449   9448   9447   9454     1  0.0000000  0.6508444  3
   9449   9462   9444   9455     1  180.0000771  0.4184000  2
   9449   9462   9444   9455     1  0.0000000  1.6024720  3
   9453   9449   9448   9467     1  0.0000000  0.6508444  3
   9454   9447   9445   9465     1  0.0000000  4.9162000  2
   9454   9447   9445   9465     1  0.0000000  0.6024960  3
   9454   9447   9448   9467     1  0.0000000  0.6508444  3
   9455   9444   9445   9465     1  0.0000000  0.6508444  3
   9460   9455   9444   9462     1  0.0000000  4.9162000  2
   9460   9455   9444   9462     1  0.0000000  0.6024960  3
   9462   9444   9445   9465     1  0.0000000  4.9162000  2
   9462   9444   9445   9465     1  0.0000000  0.6024960  3
   9462   9449   9448   9467     1  0.0000000  0.6508444  3
   9468   9469   9471   9472     1  180.0000771  0.8368000  1
   9468   9469   9471   9472     1  180.0000771  1.0460000  2
   9468   9469   9471   9472     1  0.0000000  0.7531200  3
   9468   9469   9471   9478     1  0.0000000  0.6508444  3
   9468   9486   9473   9472     1  180.0000771  0.4184000  2
   9468   9486   9473   9472     1  0.0000000  1.6024720  3
   9468   9486   9473   9477     1  0.0000000  1.6038667  3
   9469   9468   9479   9484     1  0.0000000  0.6508444  3
   9469   9468   9486   9473     1  180.0000771  0.4184000  2
   9469   9468   9486   9473     1  0.0000000  1.6024720  3
   9469   9471   9472   9473     1  180.0000771  0.8368000  1
   9469   9471   9472   9473     1  180.0000771  1.0460000  2
   9469   9471   9472   9473     1  0.0000000  0.7531200  3
   9469   9471   9472   9491     1  0.0000000  0.6508444  3
   9471   9469   9468   9479     1  180.0000771  0.8368000  1
   9471   9469   9468   9479     1  180.0000771  1.0460000  2
   9471   9469   9468   9479     1  0.0000000  0.7531200  3
   9471   9469   9468   9486     1  0.0000000  0.6508444  3
   9471   9472   9473   9477     1  0.0000000  0.6508444  3
   9471   9472   9473   9486     1  0.0000000  0.6508444  3
   9472   9471   9469   9489     1  0.0000000  0.6508444  3
   9473   9472   9471   9478     1  0.0000000  0.6508444  3
   9473   9486   9468   9479     1  180.0000771  0.4184000  2
   9473   9486   9468   9479     1  0.0000000  1.6024720  3
   9477   9473   9472   9491     1  0.0000000  0.6508444  3
   9478   9471   9469   9489     1  0.0000000  4.9162000  2
   9478   9471   9469   9489     1  0.0000000  0.6024960  3
   9478   9471   9472   9491     1  0.0000000  0.6508444  3
   9479   9468   9469   9489     1  0.0000000  0.6508444  3
   9484   9479   9468   9486     1  0.0000000  4.9162000  2
   9484   9479   9468   9486     1  0.0000000  0.6024960  3
   9486   9468   9469   9489     1  0.0000000  4.9162000  2
   9486   9468   9469   9489     1  0.0000000  0.6024960  3
   9486   9473   9472   9491     1  0.0000000  0.6508444  3
   9492   9494   9496   9500     1  0.0000000  0.6508444  3
   9494   9496   9500   9501     1  180.0000771  2.0083200  2
   9494   9496   9500   9501     1  0.0000000  1.2552000  3
   9494   9496   9500   9502     1  180.0000771  2.0083200  2
   9494   9496   9500   9502     1  0.0000000  1.2552000  3
   9496   9500   9501   9512     1  180.0000771  2.0083200  2
   9496   9500   9501   9512     1  0.0000000  1.2552000  3
   9496   9500   9502   9504     1  180.0000771  2.0083200  2
   9496   9500   9502   9504     1  0.0000000  1.2552000  3
   9500   9501   9512   9515     1  0.0000000  0.6508444  3
   9500   9502   9504   9508     1  0.0000000  0.6508444  3
   9501   9512   9515   9516     1  180.0000771  0.0000000  2
   9501   9512   9515   9564     1  180.0000771  0.0000000  2
   9501   9500   9502   9504     1  180.0000771  2.0083200  2
   9501   9500   9502   9504     1  0.0000000  1.2552000  3
   9502   9504   9508   9509     1  180.0000771  0.0000000  2
   9502   9504   9508   9540     1  180.0000771  0.0000000  2
   9502   9500   9501   9512     1  180.0000771  2.0083200  2
   9502   9500   9501   9512     1  0.0000000  1.2552000  3
   9504   9508   9540   9521     1  180.0000771  6.0668000  2
   9504   9508   9540   9521     1  180.0000771  1.4644000  4
   9508   9540   9521   9522     1  0.0000000  1.2552000  3
   9508   9540   9521   9520     1  0.0000000  1.2552000  3
   9509   9508   9540   9521     1  180.0000771  6.0668000  2
   9509   9508   9540   9521     1  180.0000771  1.4644000  4
   9512   9515   9564   9545     1  180.0000771  6.0668000  2
   9512   9515   9564   9545     1  180.0000771  1.4644000  4
   9515   9564   9545   9546     1  0.0000000  1.2552000  3
   9515   9564   9545   9544     1  0.0000000  1.2552000  3
   9516   9515   9564   9545     1  180.0000771  6.0668000  2
   9516   9515   9564   9545     1  180.0000771  1.4644000  4
   9517   9518   9520   9521     1  180.0000771  0.8368000  1
   9517   9518   9520   9521     1  180.0000771  1.0460000  2
   9517   9518   9520   9521     1  0.0000000  0.7531200  3
   9517   9518   9520   9527     1  0.0000000  0.6508444  3
   9517   9535   9522   9526     1  0.0000000  1.6038667  3
   9517   9535   9522   9521     1  180.0000771  0.4184000  2
   9517   9535   9522   9521     1  0.0000000  1.6024720  3
   9518   9520   9521   9522     1  180.0000771  0.8368000  1
   9518   9520   9521   9522     1  180.0000771  1.0460000  2
   9518   9520   9521   9522     1  0.0000000  0.7531200  3
   9518   9520   9521   9540     1  0.0000000  0.6508444  3
   9518   9517   9528   9533     1  0.0000000  0.6508444  3
   9518   9517   9535   9522     1  180.0000771  0.4184000  2
   9518   9517   9535   9522     1  0.0000000  1.6024720  3
   9520   9521   9522   9526     1  0.0000000  0.6508444  3
   9520   9521   9522   9535     1  0.0000000  0.6508444  3
   9520   9518   9517   9528     1  180.0000771  0.8368000  1
   9520   9518   9517   9528     1  180.0000771  1.0460000  2
   9520   9518   9517   9528     1  0.0000000  0.7531200  3
   9520   9518   9517   9535     1  0.0000000  0.6508444  3
   9521   9520   9518   9538     1  0.0000000  0.6508444  3
   9522   9535   9517   9528     1  180.0000771  0.4184000  2
   9522   9535   9517   9528     1  0.0000000  1.6024720  3
   9522   9521   9520   9527     1  0.0000000  0.6508444  3
   9526   9522   9521   9540     1  0.0000000  0.6508444  3
   9527   9520   9521   9540     1  0.0000000  0.6508444  3
   9527   9520   9518   9538     1  0.0000000  4.9162000  2
   9527   9520   9518   9538     1  0.0000000  0.6024960  3
   9528   9517   9518   9538     1  0.0000000  0.6508444  3
   9533   9528   9517   9535     1  0.0000000  4.9162000  2
   9533   9528   9517   9535     1  0.0000000  0.6024960  3
   9535   9522   9521   9540     1  0.0000000  0.6508444  3
   9535   9517   9518   9538     1  0.0000000  4.9162000  2
   9535   9517   9518   9538     1  0.0000000  0.6024960  3
   9541   9542   9544   9545     1  180.0000771  0.8368000  1
   9541   9542   9544   9545     1  180.0000771  1.0460000  2
   9541   9542   9544   9545     1  0.0000000  0.7531200  3
   9541   9542   9544   9551     1  0.0000000  0.6508444  3
   9541   9559   9546   9550     1  0.0000000  1.6038667  3
   9541   9559   9546   9545     1  180.0000771  0.4184000  2
   9541   9559   9546   9545     1  0.0000000  1.6024720  3
   9542   9544   9545   9546     1  180.0000771  0.8368000  1
   9542   9544   9545   9546     1  180.0000771  1.0460000  2
   9542   9544   9545   9546     1  0.0000000  0.7531200  3
   9542   9544   9545   9564     1  0.0000000  0.6508444  3
   9542   9541   9552   9557     1  0.0000000  0.6508444  3
   9542   9541   9559   9546     1  180.0000771  0.4184000  2
   9542   9541   9559   9546     1  0.0000000  1.6024720  3
   9544   9545   9546   9550     1  0.0000000  0.6508444  3
   9544   9545   9546   9559     1  0.0000000  0.6508444  3
   9544   9542   9541   9552     1  180.0000771  0.8368000  1
   9544   9542   9541   9552     1  180.0000771  1.0460000  2
   9544   9542   9541   9552     1  0.0000000  0.7531200  3
   9544   9542   9541   9559     1  0.0000000  0.6508444  3
   9545   9544   9542   9562     1  0.0000000  0.6508444  3
   9546   9559   9541   9552     1  180.0000771  0.4184000  2
   9546   9559   9541   9552     1  0.0000000  1.6024720  3
   9546   9545   9544   9551     1  0.0000000  0.6508444  3
   9550   9546   9545   9564     1  0.0000000  0.6508444  3
   9551   9544   9545   9564     1  0.0000000  0.6508444  3
   9551   9544   9542   9562     1  0.0000000  4.9162000  2
   9551   9544   9542   9562     1  0.0000000  0.6024960  3
   9552   9541   9542   9562     1  0.0000000  0.6508444  3
   9557   9552   9541   9559     1  0.0000000  4.9162000  2
   9557   9552   9541   9559     1  0.0000000  0.6024960  3
   9559   9546   9545   9564     1  0.0000000  0.6508444  3
   9559   9541   9542   9562     1  0.0000000  4.9162000  2
   9559   9541   9542   9562     1  0.0000000  0.6024960  3
   9565   9567   9569   9573     1  0.0000000  0.6508444  3
   9567   9569   9573   9574     1  180.0000771  2.0083200  2
   9567   9569   9573   9574     1  0.0000000  1.2552000  3
   9567   9569   9573   9575     1  180.0000771  2.0083200  2
   9567   9569   9573   9575     1  0.0000000  1.2552000  3
   9569   9573   9574   9585     1  180.0000771  2.0083200  2
   9569   9573   9574   9585     1  0.0000000  1.2552000  3
   9569   9573   9575   9577     1  180.0000771  2.0083200  2
   9569   9573   9575   9577     1  0.0000000  1.2552000  3
   9573   9574   9585   9588     1  0.0000000  0.6508444  3
   9573   9575   9577   9581     1  0.0000000  0.6508444  3
   9574   9573   9575   9577     1  180.0000771  2.0083200  2
   9574   9573   9575   9577     1  0.0000000  1.2552000  3
   9574   9585   9588   9589     1  180.0000771  0.0000000  2
   9574   9585   9588   9637     1  180.0000771  0.0000000  2
   9575   9573   9574   9585     1  180.0000771  2.0083200  2
   9575   9573   9574   9585     1  0.0000000  1.2552000  3
   9575   9577   9581   9582     1  180.0000771  0.0000000  2
   9575   9577   9581   9613     1  180.0000771  0.0000000  2
   9577   9581   9613   9594     1  180.0000771  6.0668000  2
   9577   9581   9613   9594     1  180.0000771  1.4644000  4
   9581   9613   9594   9593     1  0.0000000  1.2552000  3
   9581   9613   9594   9595     1  0.0000000  1.2552000  3
   9582   9581   9613   9594     1  180.0000771  6.0668000  2
   9582   9581   9613   9594     1  180.0000771  1.4644000  4
   9585   9588   9637   9618     1  180.0000771  6.0668000  2
   9585   9588   9637   9618     1  180.0000771  1.4644000  4
   9588   9637   9618   9617     1  0.0000000  1.2552000  3
   9588   9637   9618   9619     1  0.0000000  1.2552000  3
   9589   9588   9637   9618     1  180.0000771  6.0668000  2
   9589   9588   9637   9618     1  180.0000771  1.4644000  4
   9590   9591   9593   9594     1  180.0000771  0.8368000  1
   9590   9591   9593   9594     1  180.0000771  1.0460000  2
   9590   9591   9593   9594     1  0.0000000  0.7531200  3
   9590   9591   9593   9600     1  0.0000000  0.6508444  3
   9590   9608   9595   9594     1  180.0000771  0.4184000  2
   9590   9608   9595   9594     1  0.0000000  1.6024720  3
   9590   9608   9595   9599     1  0.0000000  1.6038667  3
   9591   9590   9601   9606     1  0.0000000  0.6508444  3
   9591   9590   9608   9595     1  180.0000771  0.4184000  2
   9591   9590   9608   9595     1  0.0000000  1.6024720  3
   9591   9593   9594   9595     1  180.0000771  0.8368000  1
   9591   9593   9594   9595     1  180.0000771  1.0460000  2
   9591   9593   9594   9595     1  0.0000000  0.7531200  3
   9591   9593   9594   9613     1  0.0000000  0.6508444  3
   9593   9591   9590   9601     1  180.0000771  0.8368000  1
   9593   9591   9590   9601     1  180.0000771  1.0460000  2
   9593   9591   9590   9601     1  0.0000000  0.7531200  3
   9593   9591   9590   9608     1  0.0000000  0.6508444  3
   9593   9594   9595   9599     1  0.0000000  0.6508444  3
   9593   9594   9595   9608     1  0.0000000  0.6508444  3
   9594   9593   9591   9611     1  0.0000000  0.6508444  3
   9595   9594   9593   9600     1  0.0000000  0.6508444  3
   9595   9608   9590   9601     1  180.0000771  0.4184000  2
   9595   9608   9590   9601     1  0.0000000  1.6024720  3
   9599   9595   9594   9613     1  0.0000000  0.6508444  3
   9600   9593   9591   9611     1  0.0000000  4.9162000  2
   9600   9593   9591   9611     1  0.0000000  0.6024960  3
   9600   9593   9594   9613     1  0.0000000  0.6508444  3
   9601   9590   9591   9611     1  0.0000000  0.6508444  3
   9606   9601   9590   9608     1  0.0000000  4.9162000  2
   9606   9601   9590   9608     1  0.0000000  0.6024960  3
   9608   9590   9591   9611     1  0.0000000  4.9162000  2
   9608   9590   9591   9611     1  0.0000000  0.6024960  3
   9608   9595   9594   9613     1  0.0000000  0.6508444  3
   9614   9615   9617   9618     1  180.0000771  0.8368000  1
   9614   9615   9617   9618     1  180.0000771  1.0460000  2
   9614   9615   9617   9618     1  0.0000000  0.7531200  3
   9614   9615   9617   9624     1  0.0000000  0.6508444  3
   9614   9632   9619   9618     1  180.0000771  0.4184000  2
   9614   9632   9619   9618     1  0.0000000  1.6024720  3
   9614   9632   9619   9623     1  0.0000000  1.6038667  3
   9615   9614   9625   9630     1  0.0000000  0.6508444  3
   9615   9614   9632   9619     1  180.0000771  0.4184000  2
   9615   9614   9632   9619     1  0.0000000  1.6024720  3
   9615   9617   9618   9619     1  180.0000771  0.8368000  1
   9615   9617   9618   9619     1  180.0000771  1.0460000  2
   9615   9617   9618   9619     1  0.0000000  0.7531200  3
   9615   9617   9618   9637     1  0.0000000  0.6508444  3
   9617   9615   9614   9625     1  180.0000771  0.8368000  1
   9617   9615   9614   9625     1  180.0000771  1.0460000  2
   9617   9615   9614   9625     1  0.0000000  0.7531200  3
   9617   9615   9614   9632     1  0.0000000  0.6508444  3
   9617   9618   9619   9623     1  0.0000000  0.6508444  3
   9617   9618   9619   9632     1  0.0000000  0.6508444  3
   9618   9617   9615   9635     1  0.0000000  0.6508444  3
   9619   9618   9617   9624     1  0.0000000  0.6508444  3
   9619   9632   9614   9625     1  180.0000771  0.4184000  2
   9619   9632   9614   9625     1  0.0000000  1.6024720  3
   9623   9619   9618   9637     1  0.0000000  0.6508444  3
   9624   9617   9615   9635     1  0.0000000  4.9162000  2
   9624   9617   9615   9635     1  0.0000000  0.6024960  3
   9624   9617   9618   9637     1  0.0000000  0.6508444  3
   9625   9614   9615   9635     1  0.0000000  0.6508444  3
   9630   9625   9614   9632     1  0.0000000  4.9162000  2
   9630   9625   9614   9632     1  0.0000000  0.6024960  3
   9632   9614   9615   9635     1  0.0000000  4.9162000  2
   9632   9614   9615   9635     1  0.0000000  0.6024960  3
   9632   9619   9618   9637     1  0.0000000  0.6508444  3
   9638   9640   9642   9646     1  0.0000000  0.6508444  3
   9640   9642   9646   9647     1  180.0000771  2.0083200  2
   9640   9642   9646   9647     1  0.0000000  1.2552000  3
   9640   9642   9646   9648     1  180.0000771  2.0083200  2
   9640   9642   9646   9648     1  0.0000000  1.2552000  3
   9642   9646   9647   9658     1  180.0000771  2.0083200  2
   9642   9646   9647   9658     1  0.0000000  1.2552000  3
   9642   9646   9648   9650     1  180.0000771  2.0083200  2
   9642   9646   9648   9650     1  0.0000000  1.2552000  3
   9646   9647   9658   9661     1  0.0000000  0.6508444  3
   9646   9648   9650   9654     1  0.0000000  0.6508444  3
   9647   9658   9661   9662     1  180.0000771  0.0000000  2
   9647   9658   9661   9710     1  180.0000771  0.0000000  2
   9647   9646   9648   9650     1  180.0000771  2.0083200  2
   9647   9646   9648   9650     1  0.0000000  1.2552000  3
   9648   9650   9654   9655     1  180.0000771  0.0000000  2
   9648   9650   9654   9686     1  180.0000771  0.0000000  2
   9648   9646   9647   9658     1  180.0000771  2.0083200  2
   9648   9646   9647   9658     1  0.0000000  1.2552000  3
   9650   9654   9686   9667     1  180.0000771  6.0668000  2
   9650   9654   9686   9667     1  180.0000771  1.4644000  4
   9654   9686   9667   9668     1  0.0000000  1.2552000  3
   9654   9686   9667   9666     1  0.0000000  1.2552000  3
   9655   9654   9686   9667     1  180.0000771  6.0668000  2
   9655   9654   9686   9667     1  180.0000771  1.4644000  4
   9658   9661   9710   9691     1  180.0000771  6.0668000  2
   9658   9661   9710   9691     1  180.0000771  1.4644000  4
   9661   9710   9691   9692     1  0.0000000  1.2552000  3
   9661   9710   9691   9690     1  0.0000000  1.2552000  3
   9662   9661   9710   9691     1  180.0000771  6.0668000  2
   9662   9661   9710   9691     1  180.0000771  1.4644000  4
   9663   9664   9666   9667     1  180.0000771  0.8368000  1
   9663   9664   9666   9667     1  180.0000771  1.0460000  2
   9663   9664   9666   9667     1  0.0000000  0.7531200  3
   9663   9664   9666   9673     1  0.0000000  0.6508444  3
   9663   9681   9668   9672     1  0.0000000  1.6038667  3
   9663   9681   9668   9667     1  180.0000771  0.4184000  2
   9663   9681   9668   9667     1  0.0000000  1.6024720  3
   9664   9666   9667   9668     1  180.0000771  0.8368000  1
   9664   9666   9667   9668     1  180.0000771  1.0460000  2
   9664   9666   9667   9668     1  0.0000000  0.7531200  3
   9664   9666   9667   9686     1  0.0000000  0.6508444  3
   9664   9663   9674   9679     1  0.0000000  0.6508444  3
   9664   9663   9681   9668     1  180.0000771  0.4184000  2
   9664   9663   9681   9668     1  0.0000000  1.6024720  3
   9666   9667   9668   9672     1  0.0000000  0.6508444  3
   9666   9667   9668   9681     1  0.0000000  0.6508444  3
   9666   9664   9663   9674     1  180.0000771  0.8368000  1
   9666   9664   9663   9674     1  180.0000771  1.0460000  2
   9666   9664   9663   9674     1  0.0000000  0.7531200  3
   9666   9664   9663   9681     1  0.0000000  0.6508444  3
   9667   9666   9664   9684     1  0.0000000  0.6508444  3
   9668   9681   9663   9674     1  180.0000771  0.4184000  2
   9668   9681   9663   9674     1  0.0000000  1.6024720  3
   9668   9667   9666   9673     1  0.0000000  0.6508444  3
   9672   9668   9667   9686     1  0.0000000  0.6508444  3
   9673   9666   9667   9686     1  0.0000000  0.6508444  3
   9673   9666   9664   9684     1  0.0000000  4.9162000  2
   9673   9666   9664   9684     1  0.0000000  0.6024960  3
   9674   9663   9664   9684     1  0.0000000  0.6508444  3
   9679   9674   9663   9681     1  0.0000000  4.9162000  2
   9679   9674   9663   9681     1  0.0000000  0.6024960  3
   9681   9668   9667   9686     1  0.0000000  0.6508444  3
   9681   9663   9664   9684     1  0.0000000  4.9162000  2
   9681   9663   9664   9684     1  0.0000000  0.6024960  3
   9687   9688   9690   9691     1  180.0000771  0.8368000  1
   9687   9688   9690   9691     1  180.0000771  1.0460000  2
   9687   9688   9690   9691     1  0.0000000  0.7531200  3
   9687   9688   9690   9697     1  0.0000000  0.6508444  3
   9687   9705   9692   9696     1  0.0000000  1.6038667  3
   9687   9705   9692   9691     1  180.0000771  0.4184000  2
   9687   9705   9692   9691     1  0.0000000  1.6024720  3
   9688   9690   9691   9692     1  180.0000771  0.8368000  1
   9688   9690   9691   9692     1  180.0000771  1.0460000  2
   9688   9690   9691   9692     1  0.0000000  0.7531200  3
   9688   9690   9691   9710     1  0.0000000  0.6508444  3
   9688   9687   9698   9703     1  0.0000000  0.6508444  3
   9688   9687   9705   9692     1  180.0000771  0.4184000  2
   9688   9687   9705   9692     1  0.0000000  1.6024720  3
   9690   9691   9692   9696     1  0.0000000  0.6508444  3
   9690   9691   9692   9705     1  0.0000000  0.6508444  3
   9690   9688   9687   9698     1  180.0000771  0.8368000  1
   9690   9688   9687   9698     1  180.0000771  1.0460000  2
   9690   9688   9687   9698     1  0.0000000  0.7531200  3
   9690   9688   9687   9705     1  0.0000000  0.6508444  3
   9691   9690   9688   9708     1  0.0000000  0.6508444  3
   9692   9705   9687   9698     1  180.0000771  0.4184000  2
   9692   9705   9687   9698     1  0.0000000  1.6024720  3
   9692   9691   9690   9697     1  0.0000000  0.6508444  3
   9696   9692   9691   9710     1  0.0000000  0.6508444  3
   9697   9690   9691   9710     1  0.0000000  0.6508444  3
   9697   9690   9688   9708     1  0.0000000  4.9162000  2
   9697   9690   9688   9708     1  0.0000000  0.6024960  3
   9698   9687   9688   9708     1  0.0000000  0.6508444  3
   9703   9698   9687   9705     1  0.0000000  4.9162000  2
   9703   9698   9687   9705     1  0.0000000  0.6024960  3
   9705   9692   9691   9710     1  0.0000000  0.6508444  3
   9705   9687   9688   9708     1  0.0000000  4.9162000  2
   9705   9687   9688   9708     1  0.0000000  0.6024960  3
   9711   9713   9715   9719     1  0.0000000  0.6508444  3
   9713   9715   9719   9720     1  180.0000771  2.0083200  2
   9713   9715   9719   9720     1  0.0000000  1.2552000  3
   9713   9715   9719   9721     1  180.0000771  2.0083200  2
   9713   9715   9719   9721     1  0.0000000  1.2552000  3
   9715   9719   9720   9731     1  180.0000771  2.0083200  2
   9715   9719   9720   9731     1  0.0000000  1.2552000  3
   9715   9719   9721   9723     1  180.0000771  2.0083200  2
   9715   9719   9721   9723     1  0.0000000  1.2552000  3
   9719   9720   9731   9734     1  0.0000000  0.6508444  3
   9719   9721   9723   9727     1  0.0000000  0.6508444  3
   9720   9719   9721   9723     1  180.0000771  2.0083200  2
   9720   9719   9721   9723     1  0.0000000  1.2552000  3
   9720   9731   9734   9735     1  180.0000771  0.0000000  2
   9720   9731   9734   9783     1  180.0000771  0.0000000  2
   9721   9719   9720   9731     1  180.0000771  2.0083200  2
   9721   9719   9720   9731     1  0.0000000  1.2552000  3
   9721   9723   9727   9728     1  180.0000771  0.0000000  2
   9721   9723   9727   9759     1  180.0000771  0.0000000  2
   9723   9727   9759   9740     1  180.0000771  6.0668000  2
   9723   9727   9759   9740     1  180.0000771  1.4644000  4
   9727   9759   9740   9739     1  0.0000000  1.2552000  3
   9727   9759   9740   9741     1  0.0000000  1.2552000  3
   9728   9727   9759   9740     1  180.0000771  6.0668000  2
   9728   9727   9759   9740     1  180.0000771  1.4644000  4
   9731   9734   9783   9764     1  180.0000771  6.0668000  2
   9731   9734   9783   9764     1  180.0000771  1.4644000  4
   9734   9783   9764   9763     1  0.0000000  1.2552000  3
   9734   9783   9764   9765     1  0.0000000  1.2552000  3
   9735   9734   9783   9764     1  180.0000771  6.0668000  2
   9735   9734   9783   9764     1  180.0000771  1.4644000  4
   9736   9737   9739   9740     1  180.0000771  0.8368000  1
   9736   9737   9739   9740     1  180.0000771  1.0460000  2
   9736   9737   9739   9740     1  0.0000000  0.7531200  3
   9736   9737   9739   9746     1  0.0000000  0.6508444  3
   9736   9754   9741   9740     1  180.0000771  0.4184000  2
   9736   9754   9741   9740     1  0.0000000  1.6024720  3
   9736   9754   9741   9745     1  0.0000000  1.6038667  3
   9737   9736   9747   9752     1  0.0000000  0.6508444  3
   9737   9736   9754   9741     1  180.0000771  0.4184000  2
   9737   9736   9754   9741     1  0.0000000  1.6024720  3
   9737   9739   9740   9741     1  180.0000771  0.8368000  1
   9737   9739   9740   9741     1  180.0000771  1.0460000  2
   9737   9739   9740   9741     1  0.0000000  0.7531200  3
   9737   9739   9740   9759     1  0.0000000  0.6508444  3
   9739   9737   9736   9747     1  180.0000771  0.8368000  1
   9739   9737   9736   9747     1  180.0000771  1.0460000  2
   9739   9737   9736   9747     1  0.0000000  0.7531200  3
   9739   9737   9736   9754     1  0.0000000  0.6508444  3
   9739   9740   9741   9745     1  0.0000000  0.6508444  3
   9739   9740   9741   9754     1  0.0000000  0.6508444  3
   9740   9739   9737   9757     1  0.0000000  0.6508444  3
   9741   9740   9739   9746     1  0.0000000  0.6508444  3
   9741   9754   9736   9747     1  180.0000771  0.4184000  2
   9741   9754   9736   9747     1  0.0000000  1.6024720  3
   9745   9741   9740   9759     1  0.0000000  0.6508444  3
   9746   9739   9737   9757     1  0.0000000  4.9162000  2
   9746   9739   9737   9757     1  0.0000000  0.6024960  3
   9746   9739   9740   9759     1  0.0000000  0.6508444  3
   9747   9736   9737   9757     1  0.0000000  0.6508444  3
   9752   9747   9736   9754     1  0.0000000  4.9162000  2
   9752   9747   9736   9754     1  0.0000000  0.6024960  3
   9754   9736   9737   9757     1  0.0000000  4.9162000  2
   9754   9736   9737   9757     1  0.0000000  0.6024960  3
   9754   9741   9740   9759     1  0.0000000  0.6508444  3
   9760   9761   9763   9764     1  180.0000771  0.8368000  1
   9760   9761   9763   9764     1  180.0000771  1.0460000  2
   9760   9761   9763   9764     1  0.0000000  0.7531200  3
   9760   9761   9763   9770     1  0.0000000  0.6508444  3
   9760   9778   9765   9764     1  180.0000771  0.4184000  2
   9760   9778   9765   9764     1  0.0000000  1.6024720  3
   9760   9778   9765   9769     1  0.0000000  1.6038667  3
   9761   9760   9771   9776     1  0.0000000  0.6508444  3
   9761   9760   9778   9765     1  180.0000771  0.4184000  2
   9761   9760   9778   9765     1  0.0000000  1.6024720  3
   9761   9763   9764   9765     1  180.0000771  0.8368000  1
   9761   9763   9764   9765     1  180.0000771  1.0460000  2
   9761   9763   9764   9765     1  0.0000000  0.7531200  3
   9761   9763   9764   9783     1  0.0000000  0.6508444  3
   9763   9761   9760   9771     1  180.0000771  0.8368000  1
   9763   9761   9760   9771     1  180.0000771  1.0460000  2
   9763   9761   9760   9771     1  0.0000000  0.7531200  3
   9763   9761   9760   9778     1  0.0000000  0.6508444  3
   9763   9764   9765   9769     1  0.0000000  0.6508444  3
   9763   9764   9765   9778     1  0.0000000  0.6508444  3
   9764   9763   9761   9781     1  0.0000000  0.6508444  3
   9765   9764   9763   9770     1  0.0000000  0.6508444  3
   9765   9778   9760   9771     1  180.0000771  0.4184000  2
   9765   9778   9760   9771     1  0.0000000  1.6024720  3
   9769   9765   9764   9783     1  0.0000000  0.6508444  3
   9770   9763   9761   9781     1  0.0000000  4.9162000  2
   9770   9763   9761   9781     1  0.0000000  0.6024960  3
   9770   9763   9764   9783     1  0.0000000  0.6508444  3
   9771   9760   9761   9781     1  0.0000000  0.6508444  3
   9776   9771   9760   9778     1  0.0000000  4.9162000  2
   9776   9771   9760   9778     1  0.0000000  0.6024960  3
   9778   9760   9761   9781     1  0.0000000  4.9162000  2
   9778   9760   9761   9781     1  0.0000000  0.6024960  3
   9778   9765   9764   9783     1  0.0000000  0.6508444  3
   9784   9786   9788   9792     1  0.0000000  0.6508444  3
   9786   9788   9792   9793     1  180.0000771  2.0083200  2
   9786   9788   9792   9793     1  0.0000000  1.2552000  3
   9786   9788   9792   9794     1  180.0000771  2.0083200  2
   9786   9788   9792   9794     1  0.0000000  1.2552000  3
   9788   9792   9793   9804     1  180.0000771  2.0083200  2
   9788   9792   9793   9804     1  0.0000000  1.2552000  3
   9788   9792   9794   9796     1  180.0000771  2.0083200  2
   9788   9792   9794   9796     1  0.0000000  1.2552000  3
   9792   9793   9804   9807     1  0.0000000  0.6508444  3
   9792   9794   9796   9800     1  0.0000000  0.6508444  3
   9793   9804   9807   9808     1  180.0000771  0.0000000  2
   9793   9804   9807   9856     1  180.0000771  0.0000000  2
   9793   9792   9794   9796     1  180.0000771  2.0083200  2
   9793   9792   9794   9796     1  0.0000000  1.2552000  3
   9794   9796   9800   9801     1  180.0000771  0.0000000  2
   9794   9796   9800   9832     1  180.0000771  0.0000000  2
   9794   9792   9793   9804     1  180.0000771  2.0083200  2
   9794   9792   9793   9804     1  0.0000000  1.2552000  3
   9796   9800   9832   9813     1  180.0000771  6.0668000  2
   9796   9800   9832   9813     1  180.0000771  1.4644000  4
   9800   9832   9813   9814     1  0.0000000  1.2552000  3
   9800   9832   9813   9812     1  0.0000000  1.2552000  3
   9801   9800   9832   9813     1  180.0000771  6.0668000  2
   9801   9800   9832   9813     1  180.0000771  1.4644000  4
   9804   9807   9856   9837     1  180.0000771  6.0668000  2
   9804   9807   9856   9837     1  180.0000771  1.4644000  4
   9807   9856   9837   9838     1  0.0000000  1.2552000  3
   9807   9856   9837   9836     1  0.0000000  1.2552000  3
   9808   9807   9856   9837     1  180.0000771  6.0668000  2
   9808   9807   9856   9837     1  180.0000771  1.4644000  4
   9809   9810   9812   9813     1  180.0000771  0.8368000  1
   9809   9810   9812   9813     1  180.0000771  1.0460000  2
   9809   9810   9812   9813     1  0.0000000  0.7531200  3
   9809   9810   9812   9819     1  0.0000000  0.6508444  3
   9809   9827   9814   9818     1  0.0000000  1.6038667  3
   9809   9827   9814   9813     1  180.0000771  0.4184000  2
   9809   9827   9814   9813     1  0.0000000  1.6024720  3
   9810   9812   9813   9814     1  180.0000771  0.8368000  1
   9810   9812   9813   9814     1  180.0000771  1.0460000  2
   9810   9812   9813   9814     1  0.0000000  0.7531200  3
   9810   9812   9813   9832     1  0.0000000  0.6508444  3
   9810   9809   9820   9825     1  0.0000000  0.6508444  3
   9810   9809   9827   9814     1  180.0000771  0.4184000  2
   9810   9809   9827   9814     1  0.0000000  1.6024720  3
   9812   9813   9814   9818     1  0.0000000  0.6508444  3
   9812   9813   9814   9827     1  0.0000000  0.6508444  3
   9812   9810   9809   9820     1  180.0000771  0.8368000  1
   9812   9810   9809   9820     1  180.0000771  1.0460000  2
   9812   9810   9809   9820     1  0.0000000  0.7531200  3
   9812   9810   9809   9827     1  0.0000000  0.6508444  3
   9813   9812   9810   9830     1  0.0000000  0.6508444  3
   9814   9827   9809   9820     1  180.0000771  0.4184000  2
   9814   9827   9809   9820     1  0.0000000  1.6024720  3
   9814   9813   9812   9819     1  0.0000000  0.6508444  3
   9818   9814   9813   9832     1  0.0000000  0.6508444  3
   9819   9812   9813   9832     1  0.0000000  0.6508444  3
   9819   9812   9810   9830     1  0.0000000  4.9162000  2
   9819   9812   9810   9830     1  0.0000000  0.6024960  3
   9820   9809   9810   9830     1  0.0000000  0.6508444  3
   9825   9820   9809   9827     1  0.0000000  4.9162000  2
   9825   9820   9809   9827     1  0.0000000  0.6024960  3
   9827   9814   9813   9832     1  0.0000000  0.6508444  3
   9827   9809   9810   9830     1  0.0000000  4.9162000  2
   9827   9809   9810   9830     1  0.0000000  0.6024960  3
   9833   9834   9836   9837     1  180.0000771  0.8368000  1
   9833   9834   9836   9837     1  180.0000771  1.0460000  2
   9833   9834   9836   9837     1  0.0000000  0.7531200  3
   9833   9834   9836   9843     1  0.0000000  0.6508444  3
   9833   9851   9838   9842     1  0.0000000  1.6038667  3
   9833   9851   9838   9837     1  180.0000771  0.4184000  2
   9833   9851   9838   9837     1  0.0000000  1.6024720  3
   9834   9836   9837   9838     1  180.0000771  0.8368000  1
   9834   9836   9837   9838     1  180.0000771  1.0460000  2
   9834   9836   9837   9838     1  0.0000000  0.7531200  3
   9834   9836   9837   9856     1  0.0000000  0.6508444  3
   9834   9833   9844   9849     1  0.0000000  0.6508444  3
   9834   9833   9851   9838     1  180.0000771  0.4184000  2
   9834   9833   9851   9838     1  0.0000000  1.6024720  3
   9836   9837   9838   9842     1  0.0000000  0.6508444  3
   9836   9837   9838   9851     1  0.0000000  0.6508444  3
   9836   9834   9833   9844     1  180.0000771  0.8368000  1
   9836   9834   9833   9844     1  180.0000771  1.0460000  2
   9836   9834   9833   9844     1  0.0000000  0.7531200  3
   9836   9834   9833   9851     1  0.0000000  0.6508444  3
   9837   9836   9834   9854     1  0.0000000  0.6508444  3
   9838   9851   9833   9844     1  180.0000771  0.4184000  2
   9838   9851   9833   9844     1  0.0000000  1.6024720  3
   9838   9837   9836   9843     1  0.0000000  0.6508444  3
   9842   9838   9837   9856     1  0.0000000  0.6508444  3
   9843   9836   9837   9856     1  0.0000000  0.6508444  3
   9843   9836   9834   9854     1  0.0000000  4.9162000  2
   9843   9836   9834   9854     1  0.0000000  0.6024960  3
   9844   9833   9834   9854     1  0.0000000  0.6508444  3
   9849   9844   9833   9851     1  0.0000000  4.9162000  2
   9849   9844   9833   9851     1  0.0000000  0.6024960  3
   9851   9838   9837   9856     1  0.0000000  0.6508444  3
   9851   9833   9834   9854     1  0.0000000  4.9162000  2
   9851   9833   9834   9854     1  0.0000000  0.6024960  3
   9857   9859   9861   9865     1  0.0000000  0.6508444  3
   9859   9861   9865   9866     1  180.0000771  2.0083200  2
   9859   9861   9865   9866     1  0.0000000  1.2552000  3
   9859   9861   9865   9867     1  180.0000771  2.0083200  2
   9859   9861   9865   9867     1  0.0000000  1.2552000  3
   9861   9865   9866   9877     1  180.0000771  2.0083200  2
   9861   9865   9866   9877     1  0.0000000  1.2552000  3
   9861   9865   9867   9869     1  180.0000771  2.0083200  2
   9861   9865   9867   9869     1  0.0000000  1.2552000  3
   9865   9866   9877   9880     1  0.0000000  0.6508444  3
   9865   9867   9869   9873     1  0.0000000  0.6508444  3
   9866   9865   9867   9869     1  180.0000771  2.0083200  2
   9866   9865   9867   9869     1  0.0000000  1.2552000  3
   9866   9877   9880   9881     1  180.0000771  0.0000000  2
   9866   9877   9880   9929     1  180.0000771  0.0000000  2
   9867   9865   9866   9877     1  180.0000771  2.0083200  2
   9867   9865   9866   9877     1  0.0000000  1.2552000  3
   9867   9869   9873   9874     1  180.0000771  0.0000000  2
   9867   9869   9873   9905     1  180.0000771  0.0000000  2
   9869   9873   9905   9886     1  180.0000771  6.0668000  2
   9869   9873   9905   9886     1  180.0000771  1.4644000  4
   9873   9905   9886   9885     1  0.0000000  1.2552000  3
   9873   9905   9886   9887     1  0.0000000  1.2552000  3
   9874   9873   9905   9886     1  180.0000771  6.0668000  2
   9874   9873   9905   9886     1  180.0000771  1.4644000  4
   9877   9880   9929   9910     1  180.0000771  6.0668000  2
   9877   9880   9929   9910     1  180.0000771  1.4644000  4
   9880   9929   9910   9909     1  0.0000000  1.2552000  3
   9880   9929   9910   9911     1  0.0000000  1.2552000  3
   9881   9880   9929   9910     1  180.0000771  6.0668000  2
   9881   9880   9929   9910     1  180.0000771  1.4644000  4
   9882   9883   9885   9886     1  180.0000771  0.8368000  1
   9882   9883   9885   9886     1  180.0000771  1.0460000  2
   9882   9883   9885   9886     1  0.0000000  0.7531200  3
   9882   9883   9885   9892     1  0.0000000  0.6508444  3
   9882   9900   9887   9886     1  180.0000771  0.4184000  2
   9882   9900   9887   9886     1  0.0000000  1.6024720  3
   9882   9900   9887   9891     1  0.0000000  1.6038667  3
   9883   9882   9893   9898     1  0.0000000  0.6508444  3
   9883   9882   9900   9887     1  180.0000771  0.4184000  2
   9883   9882   9900   9887     1  0.0000000  1.6024720  3
   9883   9885   9886   9887     1  180.0000771  0.8368000  1
   9883   9885   9886   9887     1  180.0000771  1.0460000  2
   9883   9885   9886   9887     1  0.0000000  0.7531200  3
   9883   9885   9886   9905     1  0.0000000  0.6508444  3
   9885   9883   9882   9893     1  180.0000771  0.8368000  1
   9885   9883   9882   9893     1  180.0000771  1.0460000  2
   9885   9883   9882   9893     1  0.0000000  0.7531200  3
   9885   9883   9882   9900     1  0.0000000  0.6508444  3
   9885   9886   9887   9891     1  0.0000000  0.6508444  3
   9885   9886   9887   9900     1  0.0000000  0.6508444  3
   9886   9885   9883   9903     1  0.0000000  0.6508444  3
   9887   9886   9885   9892     1  0.0000000  0.6508444  3
   9887   9900   9882   9893     1  180.0000771  0.4184000  2
   9887   9900   9882   9893     1  0.0000000  1.6024720  3
   9891   9887   9886   9905     1  0.0000000  0.6508444  3
   9892   9885   9883   9903     1  0.0000000  4.9162000  2
   9892   9885   9883   9903     1  0.0000000  0.6024960  3
   9892   9885   9886   9905     1  0.0000000  0.6508444  3
   9893   9882   9883   9903     1  0.0000000  0.6508444  3
   9898   9893   9882   9900     1  0.0000000  4.9162000  2
   9898   9893   9882   9900     1  0.0000000  0.6024960  3
   9900   9882   9883   9903     1  0.0000000  4.9162000  2
   9900   9882   9883   9903     1  0.0000000  0.6024960  3
   9900   9887   9886   9905     1  0.0000000  0.6508444  3
   9906   9907   9909   9910     1  180.0000771  0.8368000  1
   9906   9907   9909   9910     1  180.0000771  1.0460000  2
   9906   9907   9909   9910     1  0.0000000  0.7531200  3
   9906   9907   9909   9916     1  0.0000000  0.6508444  3
   9906   9924   9911   9910     1  180.0000771  0.4184000  2
   9906   9924   9911   9910     1  0.0000000  1.6024720  3
   9906   9924   9911   9915     1  0.0000000  1.6038667  3
   9907   9906   9917   9922     1  0.0000000  0.6508444  3
   9907   9906   9924   9911     1  180.0000771  0.4184000  2
   9907   9906   9924   9911     1  0.0000000  1.6024720  3
   9907   9909   9910   9911     1  180.0000771  0.8368000  1
   9907   9909   9910   9911     1  180.0000771  1.0460000  2
   9907   9909   9910   9911     1  0.0000000  0.7531200  3
   9907   9909   9910   9929     1  0.0000000  0.6508444  3
   9909   9907   9906   9917     1  180.0000771  0.8368000  1
   9909   9907   9906   9917     1  180.0000771  1.0460000  2
   9909   9907   9906   9917     1  0.0000000  0.7531200  3
   9909   9907   9906   9924     1  0.0000000  0.6508444  3
   9909   9910   9911   9915     1  0.0000000  0.6508444  3
   9909   9910   9911   9924     1  0.0000000  0.6508444  3
   9910   9909   9907   9927     1  0.0000000  0.6508444  3
   9911   9910   9909   9916     1  0.0000000  0.6508444  3
   9911   9924   9906   9917     1  180.0000771  0.4184000  2
   9911   9924   9906   9917     1  0.0000000  1.6024720  3
   9915   9911   9910   9929     1  0.0000000  0.6508444  3
   9916   9909   9907   9927     1  0.0000000  4.9162000  2
   9916   9909   9907   9927     1  0.0000000  0.6024960  3
   9916   9909   9910   9929     1  0.0000000  0.6508444  3
   9917   9906   9907   9927     1  0.0000000  0.6508444  3
   9922   9917   9906   9924     1  0.0000000  4.9162000  2
   9922   9917   9906   9924     1  0.0000000  0.6024960  3
   9924   9906   9907   9927     1  0.0000000  4.9162000  2
   9924   9906   9907   9927     1  0.0000000  0.6024960  3
   9924   9911   9910   9929     1  0.0000000  0.6508444  3
   9930   9932   9934   9938     1  0.0000000  0.6508444  3
   9932   9934   9938   9939     1  180.0000771  2.0083200  2
   9932   9934   9938   9939     1  0.0000000  1.2552000  3
   9932   9934   9938   9940     1  180.0000771  2.0083200  2
   9932   9934   9938   9940     1  0.0000000  1.2552000  3
   9934   9938   9939   9950     1  180.0000771  2.0083200  2
   9934   9938   9939   9950     1  0.0000000  1.2552000  3
   9934   9938   9940   9942     1  180.0000771  2.0083200  2
   9934   9938   9940   9942     1  0.0000000  1.2552000  3
   9938   9939   9950   9953     1  0.0000000  0.6508444  3
   9938   9940   9942   9946     1  0.0000000  0.6508444  3
   9939   9950   9953   9954     1  180.0000771  0.0000000  2
   9939   9950   9953  10002     1  180.0000771  0.0000000  2
   9939   9938   9940   9942     1  180.0000771  2.0083200  2
   9939   9938   9940   9942     1  0.0000000  1.2552000  3
   9940   9942   9946   9947     1  180.0000771  0.0000000  2
   9940   9942   9946   9978     1  180.0000771  0.0000000  2
   9940   9938   9939   9950     1  180.0000771  2.0083200  2
   9940   9938   9939   9950     1  0.0000000  1.2552000  3
   9942   9946   9978   9959     1  180.0000771  6.0668000  2
   9942   9946   9978   9959     1  180.0000771  1.4644000  4
   9946   9978   9959   9960     1  0.0000000  1.2552000  3
   9946   9978   9959   9958     1  0.0000000  1.2552000  3
   9947   9946   9978   9959     1  180.0000771  6.0668000  2
   9947   9946   9978   9959     1  180.0000771  1.4644000  4
   9950   9953  10002   9983     1  180.0000771  6.0668000  2
   9950   9953  10002   9983     1  180.0000771  1.4644000  4
   9953  10002   9983   9984     1  0.0000000  1.2552000  3
   9953  10002   9983   9982     1  0.0000000  1.2552000  3
   9954   9953  10002   9983     1  180.0000771  6.0668000  2
   9954   9953  10002   9983     1  180.0000771  1.4644000  4
   9955   9956   9958   9959     1  180.0000771  0.8368000  1
   9955   9956   9958   9959     1  180.0000771  1.0460000  2
   9955   9956   9958   9959     1  0.0000000  0.7531200  3
   9955   9956   9958   9965     1  0.0000000  0.6508444  3
   9955   9973   9960   9964     1  0.0000000  1.6038667  3
   9955   9973   9960   9959     1  180.0000771  0.4184000  2
   9955   9973   9960   9959     1  0.0000000  1.6024720  3
   9956   9958   9959   9960     1  180.0000771  0.8368000  1
   9956   9958   9959   9960     1  180.0000771  1.0460000  2
   9956   9958   9959   9960     1  0.0000000  0.7531200  3
   9956   9958   9959   9978     1  0.0000000  0.6508444  3
   9956   9955   9966   9971     1  0.0000000  0.6508444  3
   9956   9955   9973   9960     1  180.0000771  0.4184000  2
   9956   9955   9973   9960     1  0.0000000  1.6024720  3
   9958   9959   9960   9964     1  0.0000000  0.6508444  3
   9958   9959   9960   9973     1  0.0000000  0.6508444  3
   9958   9956   9955   9966     1  180.0000771  0.8368000  1
   9958   9956   9955   9966     1  180.0000771  1.0460000  2
   9958   9956   9955   9966     1  0.0000000  0.7531200  3
   9958   9956   9955   9973     1  0.0000000  0.6508444  3
   9959   9958   9956   9976     1  0.0000000  0.6508444  3
   9960   9973   9955   9966     1  180.0000771  0.4184000  2
   9960   9973   9955   9966     1  0.0000000  1.6024720  3
   9960   9959   9958   9965     1  0.0000000  0.6508444  3
   9964   9960   9959   9978     1  0.0000000  0.6508444  3
   9965   9958   9959   9978     1  0.0000000  0.6508444  3
   9965   9958   9956   9976     1  0.0000000  4.9162000  2
   9965   9958   9956   9976     1  0.0000000  0.6024960  3
   9966   9955   9956   9976     1  0.0000000  0.6508444  3
   9971   9966   9955   9973     1  0.0000000  4.9162000  2
   9971   9966   9955   9973     1  0.0000000  0.6024960  3
   9973   9960   9959   9978     1  0.0000000  0.6508444  3
   9973   9955   9956   9976     1  0.0000000  4.9162000  2
   9973   9955   9956   9976     1  0.0000000  0.6024960  3
   9979   9980   9982   9983     1  180.0000771  0.8368000  1
   9979   9980   9982   9983     1  180.0000771  1.0460000  2
   9979   9980   9982   9983     1  0.0000000  0.7531200  3
   9979   9980   9982   9989     1  0.0000000  0.6508444  3
   9979   9997   9984   9988     1  0.0000000  1.6038667  3
   9979   9997   9984   9983     1  180.0000771  0.4184000  2
   9979   9997   9984   9983     1  0.0000000  1.6024720  3
   9980   9982   9983   9984     1  180.0000771  0.8368000  1
   9980   9982   9983   9984     1  180.0000771  1.0460000  2
   9980   9982   9983   9984     1  0.0000000  0.7531200  3
   9980   9982   9983  10002     1  0.0000000  0.6508444  3
   9980   9979   9990   9995     1  0.0000000  0.6508444  3
   9980   9979   9997   9984     1  180.0000771  0.4184000  2
   9980   9979   9997   9984     1  0.0000000  1.6024720  3
   9982   9983   9984   9988     1  0.0000000  0.6508444  3
   9982   9983   9984   9997     1  0.0000000  0.6508444  3
   9982   9980   9979   9990     1  180.0000771  0.8368000  1
   9982   9980   9979   9990     1  180.0000771  1.0460000  2
   9982   9980   9979   9990     1  0.0000000  0.7531200  3
   9982   9980   9979   9997     1  0.0000000  0.6508444  3
   9983   9982   9980  10000     1  0.0000000  0.6508444  3
   9984   9997   9979   9990     1  180.0000771  0.4184000  2
   9984   9997   9979   9990     1  0.0000000  1.6024720  3
   9984   9983   9982   9989     1  0.0000000  0.6508444  3
   9988   9984   9983  10002     1  0.0000000  0.6508444  3
   9989   9982   9983  10002     1  0.0000000  0.6508444  3
   9989   9982   9980  10000     1  0.0000000  4.9162000  2
   9989   9982   9980  10000     1  0.0000000  0.6024960  3
   9990   9979   9980  10000     1  0.0000000  0.6508444  3
   9995   9990   9979   9997     1  0.0000000  4.9162000  2
   9995   9990   9979   9997     1  0.0000000  0.6024960  3
   9997   9984   9983  10002     1  0.0000000  0.6508444  3
   9997   9979   9980  10000     1  0.0000000  4.9162000  2
   9997   9979   9980  10000     1  0.0000000  0.6024960  3
  10003  10005  10007  10011     1  0.0000000  0.6508444  3
  10005  10007  10011  10012     1  180.0000771  2.0083200  2
  10005  10007  10011  10012     1  0.0000000  1.2552000  3
  10005  10007  10011  10013     1  180.0000771  2.0083200  2
  10005  10007  10011  10013     1  0.0000000  1.2552000  3
  10007  10011  10012  10023     1  180.0000771  2.0083200  2
  10007  10011  10012  10023     1  0.0000000  1.2552000  3
  10007  10011  10013  10015     1  180.0000771  2.0083200  2
  10007  10011  10013  10015     1  0.0000000  1.2552000  3
  10011  10012  10023  10026     1  0.0000000  0.6508444  3
  10011  10013  10015  10019     1  0.0000000  0.6508444  3
  10012  10011  10013  10015     1  180.0000771  2.0083200  2
  10012  10011  10013  10015     1  0.0000000  1.2552000  3
  10012  10023  10026  10027     1  180.0000771  0.0000000  2
  10012  10023  10026  10075     1  180.0000771  0.0000000  2
  10013  10011  10012  10023     1  180.0000771  2.0083200  2
  10013  10011  10012  10023     1  0.0000000  1.2552000  3
  10013  10015  10019  10020     1  180.0000771  0.0000000  2
  10013  10015  10019  10051     1  180.0000771  0.0000000  2
  10015  10019  10051  10032     1  180.0000771  6.0668000  2
  10015  10019  10051  10032     1  180.0000771  1.4644000  4
  10019  10051  10032  10031     1  0.0000000  1.2552000  3
  10019  10051  10032  10033     1  0.0000000  1.2552000  3
  10020  10019  10051  10032     1  180.0000771  6.0668000  2
  10020  10019  10051  10032     1  180.0000771  1.4644000  4
  10023  10026  10075  10056     1  180.0000771  6.0668000  2
  10023  10026  10075  10056     1  180.0000771  1.4644000  4
  10026  10075  10056  10055     1  0.0000000  1.2552000  3
  10026  10075  10056  10057     1  0.0000000  1.2552000  3
  10027  10026  10075  10056     1  180.0000771  6.0668000  2
  10027  10026  10075  10056     1  180.0000771  1.4644000  4
  10028  10029  10031  10032     1  180.0000771  0.8368000  1
  10028  10029  10031  10032     1  180.0000771  1.0460000  2
  10028  10029  10031  10032     1  0.0000000  0.7531200  3
  10028  10029  10031  10038     1  0.0000000  0.6508444  3
  10028  10046  10033  10032     1  180.0000771  0.4184000  2
  10028  10046  10033  10032     1  0.0000000  1.6024720  3
  10028  10046  10033  10037     1  0.0000000  1.6038667  3
  10029  10028  10039  10044     1  0.0000000  0.6508444  3
  10029  10028  10046  10033     1  180.0000771  0.4184000  2
  10029  10028  10046  10033     1  0.0000000  1.6024720  3
  10029  10031  10032  10033     1  180.0000771  0.8368000  1
  10029  10031  10032  10033     1  180.0000771  1.0460000  2
  10029  10031  10032  10033     1  0.0000000  0.7531200  3
  10029  10031  10032  10051     1  0.0000000  0.6508444  3
  10031  10029  10028  10039     1  180.0000771  0.8368000  1
  10031  10029  10028  10039     1  180.0000771  1.0460000  2
  10031  10029  10028  10039     1  0.0000000  0.7531200  3
  10031  10029  10028  10046     1  0.0000000  0.6508444  3
  10031  10032  10033  10037     1  0.0000000  0.6508444  3
  10031  10032  10033  10046     1  0.0000000  0.6508444  3
  10032  10031  10029  10049     1  0.0000000  0.6508444  3
  10033  10032  10031  10038     1  0.0000000  0.6508444  3
  10033  10046  10028  10039     1  180.0000771  0.4184000  2
  10033  10046  10028  10039     1  0.0000000  1.6024720  3
  10037  10033  10032  10051     1  0.0000000  0.6508444  3
  10038  10031  10029  10049     1  0.0000000  4.9162000  2
  10038  10031  10029  10049     1  0.0000000  0.6024960  3
  10038  10031  10032  10051     1  0.0000000  0.6508444  3
  10039  10028  10029  10049     1  0.0000000  0.6508444  3
  10044  10039  10028  10046     1  0.0000000  4.9162000  2
  10044  10039  10028  10046     1  0.0000000  0.6024960  3
  10046  10028  10029  10049     1  0.0000000  4.9162000  2
  10046  10028  10029  10049     1  0.0000000  0.6024960  3
  10046  10033  10032  10051     1  0.0000000  0.6508444  3
  10052  10053  10055  10056     1  180.0000771  0.8368000  1
  10052  10053  10055  10056     1  180.0000771  1.0460000  2
  10052  10053  10055  10056     1  0.0000000  0.7531200  3
  10052  10053  10055  10062     1  0.0000000  0.6508444  3
  10052  10070  10057  10056     1  180.0000771  0.4184000  2
  10052  10070  10057  10056     1  0.0000000  1.6024720  3
  10052  10070  10057  10061     1  0.0000000  1.6038667  3
  10053  10052  10063  10068     1  0.0000000  0.6508444  3
  10053  10052  10070  10057     1  180.0000771  0.4184000  2
  10053  10052  10070  10057     1  0.0000000  1.6024720  3
  10053  10055  10056  10057     1  180.0000771  0.8368000  1
  10053  10055  10056  10057     1  180.0000771  1.0460000  2
  10053  10055  10056  10057     1  0.0000000  0.7531200  3
  10053  10055  10056  10075     1  0.0000000  0.6508444  3
  10055  10053  10052  10063     1  180.0000771  0.8368000  1
  10055  10053  10052  10063     1  180.0000771  1.0460000  2
  10055  10053  10052  10063     1  0.0000000  0.7531200  3
  10055  10053  10052  10070     1  0.0000000  0.6508444  3
  10055  10056  10057  10061     1  0.0000000  0.6508444  3
  10055  10056  10057  10070     1  0.0000000  0.6508444  3
  10056  10055  10053  10073     1  0.0000000  0.6508444  3
  10057  10056  10055  10062     1  0.0000000  0.6508444  3
  10057  10070  10052  10063     1  180.0000771  0.4184000  2
  10057  10070  10052  10063     1  0.0000000  1.6024720  3
  10061  10057  10056  10075     1  0.0000000  0.6508444  3
  10062  10055  10053  10073     1  0.0000000  4.9162000  2
  10062  10055  10053  10073     1  0.0000000  0.6024960  3
  10062  10055  10056  10075     1  0.0000000  0.6508444  3
  10063  10052  10053  10073     1  0.0000000  0.6508444  3
  10068  10063  10052  10070     1  0.0000000  4.9162000  2
  10068  10063  10052  10070     1  0.0000000  0.6024960  3
  10070  10052  10053  10073     1  0.0000000  4.9162000  2
  10070  10052  10053  10073     1  0.0000000  0.6024960  3
  10070  10057  10056  10075     1  0.0000000  0.6508444  3
  10076  10078  10080  10084     1  0.0000000  0.6508444  3
  10078  10080  10084  10085     1  180.0000771  2.0083200  2
  10078  10080  10084  10085     1  0.0000000  1.2552000  3
  10078  10080  10084  10086     1  180.0000771  2.0083200  2
  10078  10080  10084  10086     1  0.0000000  1.2552000  3
  10080  10084  10085  10096     1  180.0000771  2.0083200  2
  10080  10084  10085  10096     1  0.0000000  1.2552000  3
  10080  10084  10086  10088     1  180.0000771  2.0083200  2
  10080  10084  10086  10088     1  0.0000000  1.2552000  3
  10084  10085  10096  10099     1  0.0000000  0.6508444  3
  10084  10086  10088  10092     1  0.0000000  0.6508444  3
  10085  10096  10099  10100     1  180.0000771  0.0000000  2
  10085  10096  10099  10148     1  180.0000771  0.0000000  2
  10085  10084  10086  10088     1  180.0000771  2.0083200  2
  10085  10084  10086  10088     1  0.0000000  1.2552000  3
  10086  10088  10092  10093     1  180.0000771  0.0000000  2
  10086  10088  10092  10124     1  180.0000771  0.0000000  2
  10086  10084  10085  10096     1  180.0000771  2.0083200  2
  10086  10084  10085  10096     1  0.0000000  1.2552000  3
  10088  10092  10124  10105     1  180.0000771  6.0668000  2
  10088  10092  10124  10105     1  180.0000771  1.4644000  4
  10092  10124  10105  10106     1  0.0000000  1.2552000  3
  10092  10124  10105  10104     1  0.0000000  1.2552000  3
  10093  10092  10124  10105     1  180.0000771  6.0668000  2
  10093  10092  10124  10105     1  180.0000771  1.4644000  4
  10096  10099  10148  10129     1  180.0000771  6.0668000  2
  10096  10099  10148  10129     1  180.0000771  1.4644000  4
  10099  10148  10129  10130     1  0.0000000  1.2552000  3
  10099  10148  10129  10128     1  0.0000000  1.2552000  3
  10100  10099  10148  10129     1  180.0000771  6.0668000  2
  10100  10099  10148  10129     1  180.0000771  1.4644000  4
  10101  10102  10104  10105     1  180.0000771  0.8368000  1
  10101  10102  10104  10105     1  180.0000771  1.0460000  2
  10101  10102  10104  10105     1  0.0000000  0.7531200  3
  10101  10102  10104  10111     1  0.0000000  0.6508444  3
  10101  10119  10106  10110     1  0.0000000  1.6038667  3
  10101  10119  10106  10105     1  180.0000771  0.4184000  2
  10101  10119  10106  10105     1  0.0000000  1.6024720  3
  10102  10104  10105  10106     1  180.0000771  0.8368000  1
  10102  10104  10105  10106     1  180.0000771  1.0460000  2
  10102  10104  10105  10106     1  0.0000000  0.7531200  3
  10102  10104  10105  10124     1  0.0000000  0.6508444  3
  10102  10101  10112  10117     1  0.0000000  0.6508444  3
  10102  10101  10119  10106     1  180.0000771  0.4184000  2
  10102  10101  10119  10106     1  0.0000000  1.6024720  3
  10104  10105  10106  10110     1  0.0000000  0.6508444  3
  10104  10105  10106  10119     1  0.0000000  0.6508444  3
  10104  10102  10101  10112     1  180.0000771  0.8368000  1
  10104  10102  10101  10112     1  180.0000771  1.0460000  2
  10104  10102  10101  10112     1  0.0000000  0.7531200  3
  10104  10102  10101  10119     1  0.0000000  0.6508444  3
  10105  10104  10102  10122     1  0.0000000  0.6508444  3
  10106  10119  10101  10112     1  180.0000771  0.4184000  2
  10106  10119  10101  10112     1  0.0000000  1.6024720  3
  10106  10105  10104  10111     1  0.0000000  0.6508444  3
  10110  10106  10105  10124     1  0.0000000  0.6508444  3
  10111  10104  10105  10124     1  0.0000000  0.6508444  3
  10111  10104  10102  10122     1  0.0000000  4.9162000  2
  10111  10104  10102  10122     1  0.0000000  0.6024960  3
  10112  10101  10102  10122     1  0.0000000  0.6508444  3
  10117  10112  10101  10119     1  0.0000000  4.9162000  2
  10117  10112  10101  10119     1  0.0000000  0.6024960  3
  10119  10106  10105  10124     1  0.0000000  0.6508444  3
  10119  10101  10102  10122     1  0.0000000  4.9162000  2
  10119  10101  10102  10122     1  0.0000000  0.6024960  3
  10125  10126  10128  10129     1  180.0000771  0.8368000  1
  10125  10126  10128  10129     1  180.0000771  1.0460000  2
  10125  10126  10128  10129     1  0.0000000  0.7531200  3
  10125  10126  10128  10135     1  0.0000000  0.6508444  3
  10125  10143  10130  10134     1  0.0000000  1.6038667  3
  10125  10143  10130  10129     1  180.0000771  0.4184000  2
  10125  10143  10130  10129     1  0.0000000  1.6024720  3
  10126  10128  10129  10130     1  180.0000771  0.8368000  1
  10126  10128  10129  10130     1  180.0000771  1.0460000  2
  10126  10128  10129  10130     1  0.0000000  0.7531200  3
  10126  10128  10129  10148     1  0.0000000  0.6508444  3
  10126  10125  10136  10141     1  0.0000000  0.6508444  3
  10126  10125  10143  10130     1  180.0000771  0.4184000  2
  10126  10125  10143  10130     1  0.0000000  1.6024720  3
  10128  10129  10130  10134     1  0.0000000  0.6508444  3
  10128  10129  10130  10143     1  0.0000000  0.6508444  3
  10128  10126  10125  10136     1  180.0000771  0.8368000  1
  10128  10126  10125  10136     1  180.0000771  1.0460000  2
  10128  10126  10125  10136     1  0.0000000  0.7531200  3
  10128  10126  10125  10143     1  0.0000000  0.6508444  3
  10129  10128  10126  10146     1  0.0000000  0.6508444  3
  10130  10143  10125  10136     1  180.0000771  0.4184000  2
  10130  10143  10125  10136     1  0.0000000  1.6024720  3
  10130  10129  10128  10135     1  0.0000000  0.6508444  3
  10134  10130  10129  10148     1  0.0000000  0.6508444  3
  10135  10128  10129  10148     1  0.0000000  0.6508444  3
  10135  10128  10126  10146     1  0.0000000  4.9162000  2
  10135  10128  10126  10146     1  0.0000000  0.6024960  3
  10136  10125  10126  10146     1  0.0000000  0.6508444  3
  10141  10136  10125  10143     1  0.0000000  4.9162000  2
  10141  10136  10125  10143     1  0.0000000  0.6024960  3
  10143  10130  10129  10148     1  0.0000000  0.6508444  3
  10143  10125  10126  10146     1  0.0000000  4.9162000  2
  10143  10125  10126  10146     1  0.0000000  0.6024960  3
  10149  10151  10153  10157     1  0.0000000  0.6508444  3
  10151  10153  10157  10158     1  180.0000771  2.0083200  2
  10151  10153  10157  10158     1  0.0000000  1.2552000  3
  10151  10153  10157  10159     1  180.0000771  2.0083200  2
  10151  10153  10157  10159     1  0.0000000  1.2552000  3
  10153  10157  10158  10169     1  180.0000771  2.0083200  2
  10153  10157  10158  10169     1  0.0000000  1.2552000  3
  10153  10157  10159  10161     1  180.0000771  2.0083200  2
  10153  10157  10159  10161     1  0.0000000  1.2552000  3
  10157  10158  10169  10172     1  0.0000000  0.6508444  3
  10157  10159  10161  10165     1  0.0000000  0.6508444  3
  10158  10157  10159  10161     1  180.0000771  2.0083200  2
  10158  10157  10159  10161     1  0.0000000  1.2552000  3
  10158  10169  10172  10173     1  180.0000771  0.0000000  2
  10158  10169  10172  10221     1  180.0000771  0.0000000  2
  10159  10157  10158  10169     1  180.0000771  2.0083200  2
  10159  10157  10158  10169     1  0.0000000  1.2552000  3
  10159  10161  10165  10166     1  180.0000771  0.0000000  2
  10159  10161  10165  10197     1  180.0000771  0.0000000  2
  10161  10165  10197  10178     1  180.0000771  6.0668000  2
  10161  10165  10197  10178     1  180.0000771  1.4644000  4
  10165  10197  10178  10177     1  0.0000000  1.2552000  3
  10165  10197  10178  10179     1  0.0000000  1.2552000  3
  10166  10165  10197  10178     1  180.0000771  6.0668000  2
  10166  10165  10197  10178     1  180.0000771  1.4644000  4
  10169  10172  10221  10202     1  180.0000771  6.0668000  2
  10169  10172  10221  10202     1  180.0000771  1.4644000  4
  10172  10221  10202  10201     1  0.0000000  1.2552000  3
  10172  10221  10202  10203     1  0.0000000  1.2552000  3
  10173  10172  10221  10202     1  180.0000771  6.0668000  2
  10173  10172  10221  10202     1  180.0000771  1.4644000  4
  10174  10175  10177  10178     1  180.0000771  0.8368000  1
  10174  10175  10177  10178     1  180.0000771  1.0460000  2
  10174  10175  10177  10178     1  0.0000000  0.7531200  3
  10174  10175  10177  10184     1  0.0000000  0.6508444  3
  10174  10192  10179  10178     1  180.0000771  0.4184000  2
  10174  10192  10179  10178     1  0.0000000  1.6024720  3
  10174  10192  10179  10183     1  0.0000000  1.6038667  3
  10175  10174  10185  10190     1  0.0000000  0.6508444  3
  10175  10174  10192  10179     1  180.0000771  0.4184000  2
  10175  10174  10192  10179     1  0.0000000  1.6024720  3
  10175  10177  10178  10179     1  180.0000771  0.8368000  1
  10175  10177  10178  10179     1  180.0000771  1.0460000  2
  10175  10177  10178  10179     1  0.0000000  0.7531200  3
  10175  10177  10178  10197     1  0.0000000  0.6508444  3
  10177  10175  10174  10185     1  180.0000771  0.8368000  1
  10177  10175  10174  10185     1  180.0000771  1.0460000  2
  10177  10175  10174  10185     1  0.0000000  0.7531200  3
  10177  10175  10174  10192     1  0.0000000  0.6508444  3
  10177  10178  10179  10183     1  0.0000000  0.6508444  3
  10177  10178  10179  10192     1  0.0000000  0.6508444  3
  10178  10177  10175  10195     1  0.0000000  0.6508444  3
  10179  10178  10177  10184     1  0.0000000  0.6508444  3
  10179  10192  10174  10185     1  180.0000771  0.4184000  2
  10179  10192  10174  10185     1  0.0000000  1.6024720  3
  10183  10179  10178  10197     1  0.0000000  0.6508444  3
  10184  10177  10175  10195     1  0.0000000  4.9162000  2
  10184  10177  10175  10195     1  0.0000000  0.6024960  3
  10184  10177  10178  10197     1  0.0000000  0.6508444  3
  10185  10174  10175  10195     1  0.0000000  0.6508444  3
  10190  10185  10174  10192     1  0.0000000  4.9162000  2
  10190  10185  10174  10192     1  0.0000000  0.6024960  3
  10192  10174  10175  10195     1  0.0000000  4.9162000  2
  10192  10174  10175  10195     1  0.0000000  0.6024960  3
  10192  10179  10178  10197     1  0.0000000  0.6508444  3
  10198  10199  10201  10202     1  180.0000771  0.8368000  1
  10198  10199  10201  10202     1  180.0000771  1.0460000  2
  10198  10199  10201  10202     1  0.0000000  0.7531200  3
  10198  10199  10201  10208     1  0.0000000  0.6508444  3
  10198  10216  10203  10202     1  180.0000771  0.4184000  2
  10198  10216  10203  10202     1  0.0000000  1.6024720  3
  10198  10216  10203  10207     1  0.0000000  1.6038667  3
  10199  10198  10209  10214     1  0.0000000  0.6508444  3
  10199  10198  10216  10203     1  180.0000771  0.4184000  2
  10199  10198  10216  10203     1  0.0000000  1.6024720  3
  10199  10201  10202  10203     1  180.0000771  0.8368000  1
  10199  10201  10202  10203     1  180.0000771  1.0460000  2
  10199  10201  10202  10203     1  0.0000000  0.7531200  3
  10199  10201  10202  10221     1  0.0000000  0.6508444  3
  10201  10199  10198  10209     1  180.0000771  0.8368000  1
  10201  10199  10198  10209     1  180.0000771  1.0460000  2
  10201  10199  10198  10209     1  0.0000000  0.7531200  3
  10201  10199  10198  10216     1  0.0000000  0.6508444  3
  10201  10202  10203  10207     1  0.0000000  0.6508444  3
  10201  10202  10203  10216     1  0.0000000  0.6508444  3
  10202  10201  10199  10219     1  0.0000000  0.6508444  3
  10203  10202  10201  10208     1  0.0000000  0.6508444  3
  10203  10216  10198  10209     1  180.0000771  0.4184000  2
  10203  10216  10198  10209     1  0.0000000  1.6024720  3
  10207  10203  10202  10221     1  0.0000000  0.6508444  3
  10208  10201  10199  10219     1  0.0000000  4.9162000  2
  10208  10201  10199  10219     1  0.0000000  0.6024960  3
  10208  10201  10202  10221     1  0.0000000  0.6508444  3
  10209  10198  10199  10219     1  0.0000000  0.6508444  3
  10214  10209  10198  10216     1  0.0000000  4.9162000  2
  10214  10209  10198  10216     1  0.0000000  0.6024960  3
  10216  10198  10199  10219     1  0.0000000  4.9162000  2
  10216  10198  10199  10219     1  0.0000000  0.6024960  3
  10216  10203  10202  10221     1  0.0000000  0.6508444  3
  10222  10224  10226  10230     1  0.0000000  0.6508444  3
  10224  10226  10230  10231     1  180.0000771  2.0083200  2
  10224  10226  10230  10231     1  0.0000000  1.2552000  3
  10224  10226  10230  10232     1  180.0000771  2.0083200  2
  10224  10226  10230  10232     1  0.0000000  1.2552000  3
  10226  10230  10231  10242     1  180.0000771  2.0083200  2
  10226  10230  10231  10242     1  0.0000000  1.2552000  3
  10226  10230  10232  10234     1  180.0000771  2.0083200  2
  10226  10230  10232  10234     1  0.0000000  1.2552000  3
  10230  10231  10242  10245     1  0.0000000  0.6508444  3
  10230  10232  10234  10238     1  0.0000000  0.6508444  3
  10231  10242  10245  10246     1  180.0000771  0.0000000  2
  10231  10242  10245  10294     1  180.0000771  0.0000000  2
  10231  10230  10232  10234     1  180.0000771  2.0083200  2
  10231  10230  10232  10234     1  0.0000000  1.2552000  3
  10232  10234  10238  10239     1  180.0000771  0.0000000  2
  10232  10234  10238  10270     1  180.0000771  0.0000000  2
  10232  10230  10231  10242     1  180.0000771  2.0083200  2
  10232  10230  10231  10242     1  0.0000000  1.2552000  3
  10234  10238  10270  10251     1  180.0000771  6.0668000  2
  10234  10238  10270  10251     1  180.0000771  1.4644000  4
  10238  10270  10251  10252     1  0.0000000  1.2552000  3
  10238  10270  10251  10250     1  0.0000000  1.2552000  3
  10239  10238  10270  10251     1  180.0000771  6.0668000  2
  10239  10238  10270  10251     1  180.0000771  1.4644000  4
  10242  10245  10294  10275     1  180.0000771  6.0668000  2
  10242  10245  10294  10275     1  180.0000771  1.4644000  4
  10245  10294  10275  10276     1  0.0000000  1.2552000  3
  10245  10294  10275  10274     1  0.0000000  1.2552000  3
  10246  10245  10294  10275     1  180.0000771  6.0668000  2
  10246  10245  10294  10275     1  180.0000771  1.4644000  4
  10247  10248  10250  10251     1  180.0000771  0.8368000  1
  10247  10248  10250  10251     1  180.0000771  1.0460000  2
  10247  10248  10250  10251     1  0.0000000  0.7531200  3
  10247  10248  10250  10257     1  0.0000000  0.6508444  3
  10247  10265  10252  10256     1  0.0000000  1.6038667  3
  10247  10265  10252  10251     1  180.0000771  0.4184000  2
  10247  10265  10252  10251     1  0.0000000  1.6024720  3
  10248  10250  10251  10252     1  180.0000771  0.8368000  1
  10248  10250  10251  10252     1  180.0000771  1.0460000  2
  10248  10250  10251  10252     1  0.0000000  0.7531200  3
  10248  10250  10251  10270     1  0.0000000  0.6508444  3
  10248  10247  10258  10263     1  0.0000000  0.6508444  3
  10248  10247  10265  10252     1  180.0000771  0.4184000  2
  10248  10247  10265  10252     1  0.0000000  1.6024720  3
  10250  10251  10252  10256     1  0.0000000  0.6508444  3
  10250  10251  10252  10265     1  0.0000000  0.6508444  3
  10250  10248  10247  10258     1  180.0000771  0.8368000  1
  10250  10248  10247  10258     1  180.0000771  1.0460000  2
  10250  10248  10247  10258     1  0.0000000  0.7531200  3
  10250  10248  10247  10265     1  0.0000000  0.6508444  3
  10251  10250  10248  10268     1  0.0000000  0.6508444  3
  10252  10265  10247  10258     1  180.0000771  0.4184000  2
  10252  10265  10247  10258     1  0.0000000  1.6024720  3
  10252  10251  10250  10257     1  0.0000000  0.6508444  3
  10256  10252  10251  10270     1  0.0000000  0.6508444  3
  10257  10250  10251  10270     1  0.0000000  0.6508444  3
  10257  10250  10248  10268     1  0.0000000  4.9162000  2
  10257  10250  10248  10268     1  0.0000000  0.6024960  3
  10258  10247  10248  10268     1  0.0000000  0.6508444  3
  10263  10258  10247  10265     1  0.0000000  4.9162000  2
  10263  10258  10247  10265     1  0.0000000  0.6024960  3
  10265  10252  10251  10270     1  0.0000000  0.6508444  3
  10265  10247  10248  10268     1  0.0000000  4.9162000  2
  10265  10247  10248  10268     1  0.0000000  0.6024960  3
  10271  10272  10274  10275     1  180.0000771  0.8368000  1
  10271  10272  10274  10275     1  180.0000771  1.0460000  2
  10271  10272  10274  10275     1  0.0000000  0.7531200  3
  10271  10272  10274  10281     1  0.0000000  0.6508444  3
  10271  10289  10276  10280     1  0.0000000  1.6038667  3
  10271  10289  10276  10275     1  180.0000771  0.4184000  2
  10271  10289  10276  10275     1  0.0000000  1.6024720  3
  10272  10274  10275  10276     1  180.0000771  0.8368000  1
  10272  10274  10275  10276     1  180.0000771  1.0460000  2
  10272  10274  10275  10276     1  0.0000000  0.7531200  3
  10272  10274  10275  10294     1  0.0000000  0.6508444  3
  10272  10271  10282  10287     1  0.0000000  0.6508444  3
  10272  10271  10289  10276     1  180.0000771  0.4184000  2
  10272  10271  10289  10276     1  0.0000000  1.6024720  3
  10274  10275  10276  10280     1  0.0000000  0.6508444  3
  10274  10275  10276  10289     1  0.0000000  0.6508444  3
  10274  10272  10271  10282     1  180.0000771  0.8368000  1
  10274  10272  10271  10282     1  180.0000771  1.0460000  2
  10274  10272  10271  10282     1  0.0000000  0.7531200  3
  10274  10272  10271  10289     1  0.0000000  0.6508444  3
  10275  10274  10272  10292     1  0.0000000  0.6508444  3
  10276  10289  10271  10282     1  180.0000771  0.4184000  2
  10276  10289  10271  10282     1  0.0000000  1.6024720  3
  10276  10275  10274  10281     1  0.0000000  0.6508444  3
  10280  10276  10275  10294     1  0.0000000  0.6508444  3
  10281  10274  10275  10294     1  0.0000000  0.6508444  3
  10281  10274  10272  10292     1  0.0000000  4.9162000  2
  10281  10274  10272  10292     1  0.0000000  0.6024960  3
  10282  10271  10272  10292     1  0.0000000  0.6508444  3
  10287  10282  10271  10289     1  0.0000000  4.9162000  2
  10287  10282  10271  10289     1  0.0000000  0.6024960  3
  10289  10276  10275  10294     1  0.0000000  0.6508444  3
  10289  10271  10272  10292     1  0.0000000  4.9162000  2
  10289  10271  10272  10292     1  0.0000000  0.6024960  3
  10295  10297  10299  10303     1  0.0000000  0.6508444  3
  10297  10299  10303  10304     1  180.0000771  2.0083200  2
  10297  10299  10303  10304     1  0.0000000  1.2552000  3
  10297  10299  10303  10305     1  180.0000771  2.0083200  2
  10297  10299  10303  10305     1  0.0000000  1.2552000  3
  10299  10303  10304  10315     1  180.0000771  2.0083200  2
  10299  10303  10304  10315     1  0.0000000  1.2552000  3
  10299  10303  10305  10307     1  180.0000771  2.0083200  2
  10299  10303  10305  10307     1  0.0000000  1.2552000  3
  10303  10304  10315  10318     1  0.0000000  0.6508444  3
  10303  10305  10307  10311     1  0.0000000  0.6508444  3
  10304  10303  10305  10307     1  180.0000771  2.0083200  2
  10304  10303  10305  10307     1  0.0000000  1.2552000  3
  10304  10315  10318  10319     1  180.0000771  0.0000000  2
  10304  10315  10318  10367     1  180.0000771  0.0000000  2
  10305  10303  10304  10315     1  180.0000771  2.0083200  2
  10305  10303  10304  10315     1  0.0000000  1.2552000  3
  10305  10307  10311  10312     1  180.0000771  0.0000000  2
  10305  10307  10311  10343     1  180.0000771  0.0000000  2
  10307  10311  10343  10324     1  180.0000771  6.0668000  2
  10307  10311  10343  10324     1  180.0000771  1.4644000  4
  10311  10343  10324  10323     1  0.0000000  1.2552000  3
  10311  10343  10324  10325     1  0.0000000  1.2552000  3
  10312  10311  10343  10324     1  180.0000771  6.0668000  2
  10312  10311  10343  10324     1  180.0000771  1.4644000  4
  10315  10318  10367  10348     1  180.0000771  6.0668000  2
  10315  10318  10367  10348     1  180.0000771  1.4644000  4
  10318  10367  10348  10347     1  0.0000000  1.2552000  3
  10318  10367  10348  10349     1  0.0000000  1.2552000  3
  10319  10318  10367  10348     1  180.0000771  6.0668000  2
  10319  10318  10367  10348     1  180.0000771  1.4644000  4
  10320  10321  10323  10324     1  180.0000771  0.8368000  1
  10320  10321  10323  10324     1  180.0000771  1.0460000  2
  10320  10321  10323  10324     1  0.0000000  0.7531200  3
  10320  10321  10323  10330     1  0.0000000  0.6508444  3
  10320  10338  10325  10324     1  180.0000771  0.4184000  2
  10320  10338  10325  10324     1  0.0000000  1.6024720  3
  10320  10338  10325  10329     1  0.0000000  1.6038667  3
  10321  10320  10331  10336     1  0.0000000  0.6508444  3
  10321  10320  10338  10325     1  180.0000771  0.4184000  2
  10321  10320  10338  10325     1  0.0000000  1.6024720  3
  10321  10323  10324  10325     1  180.0000771  0.8368000  1
  10321  10323  10324  10325     1  180.0000771  1.0460000  2
  10321  10323  10324  10325     1  0.0000000  0.7531200  3
  10321  10323  10324  10343     1  0.0000000  0.6508444  3
  10323  10321  10320  10331     1  180.0000771  0.8368000  1
  10323  10321  10320  10331     1  180.0000771  1.0460000  2
  10323  10321  10320  10331     1  0.0000000  0.7531200  3
  10323  10321  10320  10338     1  0.0000000  0.6508444  3
  10323  10324  10325  10329     1  0.0000000  0.6508444  3
  10323  10324  10325  10338     1  0.0000000  0.6508444  3
  10324  10323  10321  10341     1  0.0000000  0.6508444  3
  10325  10324  10323  10330     1  0.0000000  0.6508444  3
  10325  10338  10320  10331     1  180.0000771  0.4184000  2
  10325  10338  10320  10331     1  0.0000000  1.6024720  3
  10329  10325  10324  10343     1  0.0000000  0.6508444  3
  10330  10323  10321  10341     1  0.0000000  4.9162000  2
  10330  10323  10321  10341     1  0.0000000  0.6024960  3
  10330  10323  10324  10343     1  0.0000000  0.6508444  3
  10331  10320  10321  10341     1  0.0000000  0.6508444  3
  10336  10331  10320  10338     1  0.0000000  4.9162000  2
  10336  10331  10320  10338     1  0.0000000  0.6024960  3
  10338  10320  10321  10341     1  0.0000000  4.9162000  2
  10338  10320  10321  10341     1  0.0000000  0.6024960  3
  10338  10325  10324  10343     1  0.0000000  0.6508444  3
  10344  10345  10347  10348     1  180.0000771  0.8368000  1
  10344  10345  10347  10348     1  180.0000771  1.0460000  2
  10344  10345  10347  10348     1  0.0000000  0.7531200  3
  10344  10345  10347  10354     1  0.0000000  0.6508444  3
  10344  10362  10349  10348     1  180.0000771  0.4184000  2
  10344  10362  10349  10348     1  0.0000000  1.6024720  3
  10344  10362  10349  10353     1  0.0000000  1.6038667  3
  10345  10344  10355  10360     1  0.0000000  0.6508444  3
  10345  10344  10362  10349     1  180.0000771  0.4184000  2
  10345  10344  10362  10349     1  0.0000000  1.6024720  3
  10345  10347  10348  10349     1  180.0000771  0.8368000  1
  10345  10347  10348  10349     1  180.0000771  1.0460000  2
  10345  10347  10348  10349     1  0.0000000  0.7531200  3
  10345  10347  10348  10367     1  0.0000000  0.6508444  3
  10347  10345  10344  10355     1  180.0000771  0.8368000  1
  10347  10345  10344  10355     1  180.0000771  1.0460000  2
  10347  10345  10344  10355     1  0.0000000  0.7531200  3
  10347  10345  10344  10362     1  0.0000000  0.6508444  3
  10347  10348  10349  10353     1  0.0000000  0.6508444  3
  10347  10348  10349  10362     1  0.0000000  0.6508444  3
  10348  10347  10345  10365     1  0.0000000  0.6508444  3
  10349  10348  10347  10354     1  0.0000000  0.6508444  3
  10349  10362  10344  10355     1  180.0000771  0.4184000  2
  10349  10362  10344  10355     1  0.0000000  1.6024720  3
  10353  10349  10348  10367     1  0.0000000  0.6508444  3
  10354  10347  10345  10365     1  0.0000000  4.9162000  2
  10354  10347  10345  10365     1  0.0000000  0.6024960  3
  10354  10347  10348  10367     1  0.0000000  0.6508444  3
  10355  10344  10345  10365     1  0.0000000  0.6508444  3
  10360  10355  10344  10362     1  0.0000000  4.9162000  2
  10360  10355  10344  10362     1  0.0000000  0.6024960  3
  10362  10344  10345  10365     1  0.0000000  4.9162000  2
  10362  10344  10345  10365     1  0.0000000  0.6024960  3
  10362  10349  10348  10367     1  0.0000000  0.6508444  3
  10368  10370  10372  10376     1  0.0000000  0.6508444  3
  10370  10372  10376  10377     1  180.0000771  2.0083200  2
  10370  10372  10376  10377     1  0.0000000  1.2552000  3
  10370  10372  10376  10378     1  180.0000771  2.0083200  2
  10370  10372  10376  10378     1  0.0000000  1.2552000  3
  10372  10376  10377  10388     1  180.0000771  2.0083200  2
  10372  10376  10377  10388     1  0.0000000  1.2552000  3
  10372  10376  10378  10380     1  180.0000771  2.0083200  2
  10372  10376  10378  10380     1  0.0000000  1.2552000  3
  10376  10377  10388  10391     1  0.0000000  0.6508444  3
  10376  10378  10380  10384     1  0.0000000  0.6508444  3
  10377  10388  10391  10392     1  180.0000771  0.0000000  2
  10377  10388  10391  10440     1  180.0000771  0.0000000  2
  10377  10376  10378  10380     1  180.0000771  2.0083200  2
  10377  10376  10378  10380     1  0.0000000  1.2552000  3
  10378  10380  10384  10385     1  180.0000771  0.0000000  2
  10378  10380  10384  10416     1  180.0000771  0.0000000  2
  10378  10376  10377  10388     1  180.0000771  2.0083200  2
  10378  10376  10377  10388     1  0.0000000  1.2552000  3
  10380  10384  10416  10397     1  180.0000771  6.0668000  2
  10380  10384  10416  10397     1  180.0000771  1.4644000  4
  10384  10416  10397  10398     1  0.0000000  1.2552000  3
  10384  10416  10397  10396     1  0.0000000  1.2552000  3
  10385  10384  10416  10397     1  180.0000771  6.0668000  2
  10385  10384  10416  10397     1  180.0000771  1.4644000  4
  10388  10391  10440  10421     1  180.0000771  6.0668000  2
  10388  10391  10440  10421     1  180.0000771  1.4644000  4
  10391  10440  10421  10422     1  0.0000000  1.2552000  3
  10391  10440  10421  10420     1  0.0000000  1.2552000  3
  10392  10391  10440  10421     1  180.0000771  6.0668000  2
  10392  10391  10440  10421     1  180.0000771  1.4644000  4
  10393  10394  10396  10397     1  180.0000771  0.8368000  1
  10393  10394  10396  10397     1  180.0000771  1.0460000  2
  10393  10394  10396  10397     1  0.0000000  0.7531200  3
  10393  10394  10396  10403     1  0.0000000  0.6508444  3
  10393  10411  10398  10402     1  0.0000000  1.6038667  3
  10393  10411  10398  10397     1  180.0000771  0.4184000  2
  10393  10411  10398  10397     1  0.0000000  1.6024720  3
  10394  10396  10397  10398     1  180.0000771  0.8368000  1
  10394  10396  10397  10398     1  180.0000771  1.0460000  2
  10394  10396  10397  10398     1  0.0000000  0.7531200  3
  10394  10396  10397  10416     1  0.0000000  0.6508444  3
  10394  10393  10404  10409     1  0.0000000  0.6508444  3
  10394  10393  10411  10398     1  180.0000771  0.4184000  2
  10394  10393  10411  10398     1  0.0000000  1.6024720  3
  10396  10397  10398  10402     1  0.0000000  0.6508444  3
  10396  10397  10398  10411     1  0.0000000  0.6508444  3
  10396  10394  10393  10404     1  180.0000771  0.8368000  1
  10396  10394  10393  10404     1  180.0000771  1.0460000  2
  10396  10394  10393  10404     1  0.0000000  0.7531200  3
  10396  10394  10393  10411     1  0.0000000  0.6508444  3
  10397  10396  10394  10414     1  0.0000000  0.6508444  3
  10398  10411  10393  10404     1  180.0000771  0.4184000  2
  10398  10411  10393  10404     1  0.0000000  1.6024720  3
  10398  10397  10396  10403     1  0.0000000  0.6508444  3
  10402  10398  10397  10416     1  0.0000000  0.6508444  3
  10403  10396  10397  10416     1  0.0000000  0.6508444  3
  10403  10396  10394  10414     1  0.0000000  4.9162000  2
  10403  10396  10394  10414     1  0.0000000  0.6024960  3
  10404  10393  10394  10414     1  0.0000000  0.6508444  3
  10409  10404  10393  10411     1  0.0000000  4.9162000  2
  10409  10404  10393  10411     1  0.0000000  0.6024960  3
  10411  10398  10397  10416     1  0.0000000  0.6508444  3
  10411  10393  10394  10414     1  0.0000000  4.9162000  2
  10411  10393  10394  10414     1  0.0000000  0.6024960  3
  10417  10418  10420  10421     1  180.0000771  0.8368000  1
  10417  10418  10420  10421     1  180.0000771  1.0460000  2
  10417  10418  10420  10421     1  0.0000000  0.7531200  3
  10417  10418  10420  10427     1  0.0000000  0.6508444  3
  10417  10435  10422  10426     1  0.0000000  1.6038667  3
  10417  10435  10422  10421     1  180.0000771  0.4184000  2
  10417  10435  10422  10421     1  0.0000000  1.6024720  3
  10418  10420  10421  10422     1  180.0000771  0.8368000  1
  10418  10420  10421  10422     1  180.0000771  1.0460000  2
  10418  10420  10421  10422     1  0.0000000  0.7531200  3
  10418  10420  10421  10440     1  0.0000000  0.6508444  3
  10418  10417  10428  10433     1  0.0000000  0.6508444  3
  10418  10417  10435  10422     1  180.0000771  0.4184000  2
  10418  10417  10435  10422     1  0.0000000  1.6024720  3
  10420  10421  10422  10426     1  0.0000000  0.6508444  3
  10420  10421  10422  10435     1  0.0000000  0.6508444  3
  10420  10418  10417  10428     1  180.0000771  0.8368000  1
  10420  10418  10417  10428     1  180.0000771  1.0460000  2
  10420  10418  10417  10428     1  0.0000000  0.7531200  3
  10420  10418  10417  10435     1  0.0000000  0.6508444  3
  10421  10420  10418  10438     1  0.0000000  0.6508444  3
  10422  10435  10417  10428     1  180.0000771  0.4184000  2
  10422  10435  10417  10428     1  0.0000000  1.6024720  3
  10422  10421  10420  10427     1  0.0000000  0.6508444  3
  10426  10422  10421  10440     1  0.0000000  0.6508444  3
  10427  10420  10421  10440     1  0.0000000  0.6508444  3
  10427  10420  10418  10438     1  0.0000000  4.9162000  2
  10427  10420  10418  10438     1  0.0000000  0.6024960  3
  10428  10417  10418  10438     1  0.0000000  0.6508444  3
  10433  10428  10417  10435     1  0.0000000  4.9162000  2
  10433  10428  10417  10435     1  0.0000000  0.6024960  3
  10435  10422  10421  10440     1  0.0000000  0.6508444  3
  10435  10417  10418  10438     1  0.0000000  4.9162000  2
  10435  10417  10418  10438     1  0.0000000  0.6024960  3
  10441  10443  10445  10449     1  0.0000000  0.6508444  3
  10443  10445  10449  10450     1  180.0000771  2.0083200  2
  10443  10445  10449  10450     1  0.0000000  1.2552000  3
  10443  10445  10449  10451     1  180.0000771  2.0083200  2
  10443  10445  10449  10451     1  0.0000000  1.2552000  3
  10445  10449  10450  10461     1  180.0000771  2.0083200  2
  10445  10449  10450  10461     1  0.0000000  1.2552000  3
  10445  10449  10451  10453     1  180.0000771  2.0083200  2
  10445  10449  10451  10453     1  0.0000000  1.2552000  3
  10449  10450  10461  10464     1  0.0000000  0.6508444  3
  10449  10451  10453  10457     1  0.0000000  0.6508444  3
  10450  10449  10451  10453     1  180.0000771  2.0083200  2
  10450  10449  10451  10453     1  0.0000000  1.2552000  3
  10450  10461  10464  10465     1  180.0000771  0.0000000  2
  10450  10461  10464  10513     1  180.0000771  0.0000000  2
  10451  10449  10450  10461     1  180.0000771  2.0083200  2
  10451  10449  10450  10461     1  0.0000000  1.2552000  3
  10451  10453  10457  10458     1  180.0000771  0.0000000  2
  10451  10453  10457  10489     1  180.0000771  0.0000000  2
  10453  10457  10489  10470     1  180.0000771  6.0668000  2
  10453  10457  10489  10470     1  180.0000771  1.4644000  4
  10457  10489  10470  10469     1  0.0000000  1.2552000  3
  10457  10489  10470  10471     1  0.0000000  1.2552000  3
  10458  10457  10489  10470     1  180.0000771  6.0668000  2
  10458  10457  10489  10470     1  180.0000771  1.4644000  4
  10461  10464  10513  10494     1  180.0000771  6.0668000  2
  10461  10464  10513  10494     1  180.0000771  1.4644000  4
  10464  10513  10494  10493     1  0.0000000  1.2552000  3
  10464  10513  10494  10495     1  0.0000000  1.2552000  3
  10465  10464  10513  10494     1  180.0000771  6.0668000  2
  10465  10464  10513  10494     1  180.0000771  1.4644000  4
  10466  10467  10469  10470     1  180.0000771  0.8368000  1
  10466  10467  10469  10470     1  180.0000771  1.0460000  2
  10466  10467  10469  10470     1  0.0000000  0.7531200  3
  10466  10467  10469  10476     1  0.0000000  0.6508444  3
  10466  10484  10471  10470     1  180.0000771  0.4184000  2
  10466  10484  10471  10470     1  0.0000000  1.6024720  3
  10466  10484  10471  10475     1  0.0000000  1.6038667  3
  10467  10466  10477  10482     1  0.0000000  0.6508444  3
  10467  10466  10484  10471     1  180.0000771  0.4184000  2
  10467  10466  10484  10471     1  0.0000000  1.6024720  3
  10467  10469  10470  10471     1  180.0000771  0.8368000  1
  10467  10469  10470  10471     1  180.0000771  1.0460000  2
  10467  10469  10470  10471     1  0.0000000  0.7531200  3
  10467  10469  10470  10489     1  0.0000000  0.6508444  3
  10469  10467  10466  10477     1  180.0000771  0.8368000  1
  10469  10467  10466  10477     1  180.0000771  1.0460000  2
  10469  10467  10466  10477     1  0.0000000  0.7531200  3
  10469  10467  10466  10484     1  0.0000000  0.6508444  3
  10469  10470  10471  10475     1  0.0000000  0.6508444  3
  10469  10470  10471  10484     1  0.0000000  0.6508444  3
  10470  10469  10467  10487     1  0.0000000  0.6508444  3
  10471  10470  10469  10476     1  0.0000000  0.6508444  3
  10471  10484  10466  10477     1  180.0000771  0.4184000  2
  10471  10484  10466  10477     1  0.0000000  1.6024720  3
  10475  10471  10470  10489     1  0.0000000  0.6508444  3
  10476  10469  10467  10487     1  0.0000000  4.9162000  2
  10476  10469  10467  10487     1  0.0000000  0.6024960  3
  10476  10469  10470  10489     1  0.0000000  0.6508444  3
  10477  10466  10467  10487     1  0.0000000  0.6508444  3
  10482  10477  10466  10484     1  0.0000000  4.9162000  2
  10482  10477  10466  10484     1  0.0000000  0.6024960  3
  10484  10466  10467  10487     1  0.0000000  4.9162000  2
  10484  10466  10467  10487     1  0.0000000  0.6024960  3
  10484  10471  10470  10489     1  0.0000000  0.6508444  3
  10490  10491  10493  10494     1  180.0000771  0.8368000  1
  10490  10491  10493  10494     1  180.0000771  1.0460000  2
  10490  10491  10493  10494     1  0.0000000  0.7531200  3
  10490  10491  10493  10500     1  0.0000000  0.6508444  3
  10490  10508  10495  10494     1  180.0000771  0.4184000  2
  10490  10508  10495  10494     1  0.0000000  1.6024720  3
  10490  10508  10495  10499     1  0.0000000  1.6038667  3
  10491  10490  10501  10506     1  0.0000000  0.6508444  3
  10491  10490  10508  10495     1  180.0000771  0.4184000  2
  10491  10490  10508  10495     1  0.0000000  1.6024720  3
  10491  10493  10494  10495     1  180.0000771  0.8368000  1
  10491  10493  10494  10495     1  180.0000771  1.0460000  2
  10491  10493  10494  10495     1  0.0000000  0.7531200  3
  10491  10493  10494  10513     1  0.0000000  0.6508444  3
  10493  10491  10490  10501     1  180.0000771  0.8368000  1
  10493  10491  10490  10501     1  180.0000771  1.0460000  2
  10493  10491  10490  10501     1  0.0000000  0.7531200  3
  10493  10491  10490  10508     1  0.0000000  0.6508444  3
  10493  10494  10495  10499     1  0.0000000  0.6508444  3
  10493  10494  10495  10508     1  0.0000000  0.6508444  3
  10494  10493  10491  10511     1  0.0000000  0.6508444  3
  10495  10494  10493  10500     1  0.0000000  0.6508444  3
  10495  10508  10490  10501     1  180.0000771  0.4184000  2
  10495  10508  10490  10501     1  0.0000000  1.6024720  3
  10499  10495  10494  10513     1  0.0000000  0.6508444  3
  10500  10493  10491  10511     1  0.0000000  4.9162000  2
  10500  10493  10491  10511     1  0.0000000  0.6024960  3
  10500  10493  10494  10513     1  0.0000000  0.6508444  3
  10501  10490  10491  10511     1  0.0000000  0.6508444  3
  10506  10501  10490  10508     1  0.0000000  4.9162000  2
  10506  10501  10490  10508     1  0.0000000  0.6024960  3
  10508  10490  10491  10511     1  0.0000000  4.9162000  2
  10508  10490  10491  10511     1  0.0000000  0.6024960  3
  10508  10495  10494  10513     1  0.0000000  0.6508444  3
  10514  10516  10518  10522     1  0.0000000  0.6508444  3
  10516  10518  10522  10523     1  180.0000771  2.0083200  2
  10516  10518  10522  10523     1  0.0000000  1.2552000  3
  10516  10518  10522  10524     1  180.0000771  2.0083200  2
  10516  10518  10522  10524     1  0.0000000  1.2552000  3
  10518  10522  10523  10534     1  180.0000771  2.0083200  2
  10518  10522  10523  10534     1  0.0000000  1.2552000  3
  10518  10522  10524  10526     1  180.0000771  2.0083200  2
  10518  10522  10524  10526     1  0.0000000  1.2552000  3
  10522  10523  10534  10537     1  0.0000000  0.6508444  3
  10522  10524  10526  10530     1  0.0000000  0.6508444  3
  10523  10534  10537  10538     1  180.0000771  0.0000000  2
  10523  10534  10537  10586     1  180.0000771  0.0000000  2
  10523  10522  10524  10526     1  180.0000771  2.0083200  2
  10523  10522  10524  10526     1  0.0000000  1.2552000  3
  10524  10526  10530  10531     1  180.0000771  0.0000000  2
  10524  10526  10530  10562     1  180.0000771  0.0000000  2
  10524  10522  10523  10534     1  180.0000771  2.0083200  2
  10524  10522  10523  10534     1  0.0000000  1.2552000  3
  10526  10530  10562  10543     1  180.0000771  6.0668000  2
  10526  10530  10562  10543     1  180.0000771  1.4644000  4
  10530  10562  10543  10544     1  0.0000000  1.2552000  3
  10530  10562  10543  10542     1  0.0000000  1.2552000  3
  10531  10530  10562  10543     1  180.0000771  6.0668000  2
  10531  10530  10562  10543     1  180.0000771  1.4644000  4
  10534  10537  10586  10567     1  180.0000771  6.0668000  2
  10534  10537  10586  10567     1  180.0000771  1.4644000  4
  10537  10586  10567  10568     1  0.0000000  1.2552000  3
  10537  10586  10567  10566     1  0.0000000  1.2552000  3
  10538  10537  10586  10567     1  180.0000771  6.0668000  2
  10538  10537  10586  10567     1  180.0000771  1.4644000  4
  10539  10540  10542  10543     1  180.0000771  0.8368000  1
  10539  10540  10542  10543     1  180.0000771  1.0460000  2
  10539  10540  10542  10543     1  0.0000000  0.7531200  3
  10539  10540  10542  10549     1  0.0000000  0.6508444  3
  10539  10557  10544  10548     1  0.0000000  1.6038667  3
  10539  10557  10544  10543     1  180.0000771  0.4184000  2
  10539  10557  10544  10543     1  0.0000000  1.6024720  3
  10540  10542  10543  10544     1  180.0000771  0.8368000  1
  10540  10542  10543  10544     1  180.0000771  1.0460000  2
  10540  10542  10543  10544     1  0.0000000  0.7531200  3
  10540  10542  10543  10562     1  0.0000000  0.6508444  3
  10540  10539  10550  10555     1  0.0000000  0.6508444  3
  10540  10539  10557  10544     1  180.0000771  0.4184000  2
  10540  10539  10557  10544     1  0.0000000  1.6024720  3
  10542  10543  10544  10548     1  0.0000000  0.6508444  3
  10542  10543  10544  10557     1  0.0000000  0.6508444  3
  10542  10540  10539  10550     1  180.0000771  0.8368000  1
  10542  10540  10539  10550     1  180.0000771  1.0460000  2
  10542  10540  10539  10550     1  0.0000000  0.7531200  3
  10542  10540  10539  10557     1  0.0000000  0.6508444  3
  10543  10542  10540  10560     1  0.0000000  0.6508444  3
  10544  10557  10539  10550     1  180.0000771  0.4184000  2
  10544  10557  10539  10550     1  0.0000000  1.6024720  3
  10544  10543  10542  10549     1  0.0000000  0.6508444  3
  10548  10544  10543  10562     1  0.0000000  0.6508444  3
  10549  10542  10543  10562     1  0.0000000  0.6508444  3
  10549  10542  10540  10560     1  0.0000000  4.9162000  2
  10549  10542  10540  10560     1  0.0000000  0.6024960  3
  10550  10539  10540  10560     1  0.0000000  0.6508444  3
  10555  10550  10539  10557     1  0.0000000  4.9162000  2
  10555  10550  10539  10557     1  0.0000000  0.6024960  3
  10557  10544  10543  10562     1  0.0000000  0.6508444  3
  10557  10539  10540  10560     1  0.0000000  4.9162000  2
  10557  10539  10540  10560     1  0.0000000  0.6024960  3
  10563  10564  10566  10567     1  180.0000771  0.8368000  1
  10563  10564  10566  10567     1  180.0000771  1.0460000  2
  10563  10564  10566  10567     1  0.0000000  0.7531200  3
  10563  10564  10566  10573     1  0.0000000  0.6508444  3
  10563  10581  10568  10572     1  0.0000000  1.6038667  3
  10563  10581  10568  10567     1  180.0000771  0.4184000  2
  10563  10581  10568  10567     1  0.0000000  1.6024720  3
  10564  10566  10567  10568     1  180.0000771  0.8368000  1
  10564  10566  10567  10568     1  180.0000771  1.0460000  2
  10564  10566  10567  10568     1  0.0000000  0.7531200  3
  10564  10566  10567  10586     1  0.0000000  0.6508444  3
  10564  10563  10574  10579     1  0.0000000  0.6508444  3
  10564  10563  10581  10568     1  180.0000771  0.4184000  2
  10564  10563  10581  10568     1  0.0000000  1.6024720  3
  10566  10567  10568  10572     1  0.0000000  0.6508444  3
  10566  10567  10568  10581     1  0.0000000  0.6508444  3
  10566  10564  10563  10574     1  180.0000771  0.8368000  1
  10566  10564  10563  10574     1  180.0000771  1.0460000  2
  10566  10564  10563  10574     1  0.0000000  0.7531200  3
  10566  10564  10563  10581     1  0.0000000  0.6508444  3
  10567  10566  10564  10584     1  0.0000000  0.6508444  3
  10568  10581  10563  10574     1  180.0000771  0.4184000  2
  10568  10581  10563  10574     1  0.0000000  1.6024720  3
  10568  10567  10566  10573     1  0.0000000  0.6508444  3
  10572  10568  10567  10586     1  0.0000000  0.6508444  3
  10573  10566  10567  10586     1  0.0000000  0.6508444  3
  10573  10566  10564  10584     1  0.0000000  4.9162000  2
  10573  10566  10564  10584     1  0.0000000  0.6024960  3
  10574  10563  10564  10584     1  0.0000000  0.6508444  3
  10579  10574  10563  10581     1  0.0000000  4.9162000  2
  10579  10574  10563  10581     1  0.0000000  0.6024960  3
  10581  10568  10567  10586     1  0.0000000  0.6508444  3
  10581  10563  10564  10584     1  0.0000000  4.9162000  2
  10581  10563  10564  10584     1  0.0000000  0.6024960  3
  10587  10589  10591  10595     1  0.0000000  0.6508444  3
  10589  10591  10595  10596     1  180.0000771  2.0083200  2
  10589  10591  10595  10596     1  0.0000000  1.2552000  3
  10589  10591  10595  10597     1  180.0000771  2.0083200  2
  10589  10591  10595  10597     1  0.0000000  1.2552000  3
  10591  10595  10596  10607     1  180.0000771  2.0083200  2
  10591  10595  10596  10607     1  0.0000000  1.2552000  3
  10591  10595  10597  10599     1  180.0000771  2.0083200  2
  10591  10595  10597  10599     1  0.0000000  1.2552000  3
  10595  10596  10607  10610     1  0.0000000  0.6508444  3
  10595  10597  10599  10603     1  0.0000000  0.6508444  3
  10596  10595  10597  10599     1  180.0000771  2.0083200  2
  10596  10595  10597  10599     1  0.0000000  1.2552000  3
  10596  10607  10610  10611     1  180.0000771  0.0000000  2
  10596  10607  10610  10659     1  180.0000771  0.0000000  2
  10597  10595  10596  10607     1  180.0000771  2.0083200  2
  10597  10595  10596  10607     1  0.0000000  1.2552000  3
  10597  10599  10603  10604     1  180.0000771  0.0000000  2
  10597  10599  10603  10635     1  180.0000771  0.0000000  2
  10599  10603  10635  10616     1  180.0000771  6.0668000  2
  10599  10603  10635  10616     1  180.0000771  1.4644000  4
  10603  10635  10616  10615     1  0.0000000  1.2552000  3
  10603  10635  10616  10617     1  0.0000000  1.2552000  3
  10604  10603  10635  10616     1  180.0000771  6.0668000  2
  10604  10603  10635  10616     1  180.0000771  1.4644000  4
  10607  10610  10659  10640     1  180.0000771  6.0668000  2
  10607  10610  10659  10640     1  180.0000771  1.4644000  4
  10610  10659  10640  10639     1  0.0000000  1.2552000  3
  10610  10659  10640  10641     1  0.0000000  1.2552000  3
  10611  10610  10659  10640     1  180.0000771  6.0668000  2
  10611  10610  10659  10640     1  180.0000771  1.4644000  4
  10612  10613  10615  10616     1  180.0000771  0.8368000  1
  10612  10613  10615  10616     1  180.0000771  1.0460000  2
  10612  10613  10615  10616     1  0.0000000  0.7531200  3
  10612  10613  10615  10622     1  0.0000000  0.6508444  3
  10612  10630  10617  10616     1  180.0000771  0.4184000  2
  10612  10630  10617  10616     1  0.0000000  1.6024720  3
  10612  10630  10617  10621     1  0.0000000  1.6038667  3
  10613  10612  10623  10628     1  0.0000000  0.6508444  3
  10613  10612  10630  10617     1  180.0000771  0.4184000  2
  10613  10612  10630  10617     1  0.0000000  1.6024720  3
  10613  10615  10616  10617     1  180.0000771  0.8368000  1
  10613  10615  10616  10617     1  180.0000771  1.0460000  2
  10613  10615  10616  10617     1  0.0000000  0.7531200  3
  10613  10615  10616  10635     1  0.0000000  0.6508444  3
  10615  10613  10612  10623     1  180.0000771  0.8368000  1
  10615  10613  10612  10623     1  180.0000771  1.0460000  2
  10615  10613  10612  10623     1  0.0000000  0.7531200  3
  10615  10613  10612  10630     1  0.0000000  0.6508444  3
  10615  10616  10617  10621     1  0.0000000  0.6508444  3
  10615  10616  10617  10630     1  0.0000000  0.6508444  3
  10616  10615  10613  10633     1  0.0000000  0.6508444  3
  10617  10616  10615  10622     1  0.0000000  0.6508444  3
  10617  10630  10612  10623     1  180.0000771  0.4184000  2
  10617  10630  10612  10623     1  0.0000000  1.6024720  3
  10621  10617  10616  10635     1  0.0000000  0.6508444  3
  10622  10615  10613  10633     1  0.0000000  4.9162000  2
  10622  10615  10613  10633     1  0.0000000  0.6024960  3
  10622  10615  10616  10635     1  0.0000000  0.6508444  3
  10623  10612  10613  10633     1  0.0000000  0.6508444  3
  10628  10623  10612  10630     1  0.0000000  4.9162000  2
  10628  10623  10612  10630     1  0.0000000  0.6024960  3
  10630  10612  10613  10633     1  0.0000000  4.9162000  2
  10630  10612  10613  10633     1  0.0000000  0.6024960  3
  10630  10617  10616  10635     1  0.0000000  0.6508444  3
  10636  10637  10639  10640     1  180.0000771  0.8368000  1
  10636  10637  10639  10640     1  180.0000771  1.0460000  2
  10636  10637  10639  10640     1  0.0000000  0.7531200  3
  10636  10637  10639  10646     1  0.0000000  0.6508444  3
  10636  10654  10641  10640     1  180.0000771  0.4184000  2
  10636  10654  10641  10640     1  0.0000000  1.6024720  3
  10636  10654  10641  10645     1  0.0000000  1.6038667  3
  10637  10636  10647  10652     1  0.0000000  0.6508444  3
  10637  10636  10654  10641     1  180.0000771  0.4184000  2
  10637  10636  10654  10641     1  0.0000000  1.6024720  3
  10637  10639  10640  10641     1  180.0000771  0.8368000  1
  10637  10639  10640  10641     1  180.0000771  1.0460000  2
  10637  10639  10640  10641     1  0.0000000  0.7531200  3
  10637  10639  10640  10659     1  0.0000000  0.6508444  3
  10639  10637  10636  10647     1  180.0000771  0.8368000  1
  10639  10637  10636  10647     1  180.0000771  1.0460000  2
  10639  10637  10636  10647     1  0.0000000  0.7531200  3
  10639  10637  10636  10654     1  0.0000000  0.6508444  3
  10639  10640  10641  10645     1  0.0000000  0.6508444  3
  10639  10640  10641  10654     1  0.0000000  0.6508444  3
  10640  10639  10637  10657     1  0.0000000  0.6508444  3
  10641  10640  10639  10646     1  0.0000000  0.6508444  3
  10641  10654  10636  10647     1  180.0000771  0.4184000  2
  10641  10654  10636  10647     1  0.0000000  1.6024720  3
  10645  10641  10640  10659     1  0.0000000  0.6508444  3
  10646  10639  10637  10657     1  0.0000000  4.9162000  2
  10646  10639  10637  10657     1  0.0000000  0.6024960  3
  10646  10639  10640  10659     1  0.0000000  0.6508444  3
  10647  10636  10637  10657     1  0.0000000  0.6508444  3
  10652  10647  10636  10654     1  0.0000000  4.9162000  2
  10652  10647  10636  10654     1  0.0000000  0.6024960  3
  10654  10636  10637  10657     1  0.0000000  4.9162000  2
  10654  10636  10637  10657     1  0.0000000  0.6024960  3
  10654  10641  10640  10659     1  0.0000000  0.6508444  3
  10660  10662  10664  10668     1  0.0000000  0.6508444  3
  10662  10664  10668  10669     1  180.0000771  2.0083200  2
  10662  10664  10668  10669     1  0.0000000  1.2552000  3
  10662  10664  10668  10670     1  180.0000771  2.0083200  2
  10662  10664  10668  10670     1  0.0000000  1.2552000  3
  10664  10668  10669  10680     1  180.0000771  2.0083200  2
  10664  10668  10669  10680     1  0.0000000  1.2552000  3
  10664  10668  10670  10672     1  180.0000771  2.0083200  2
  10664  10668  10670  10672     1  0.0000000  1.2552000  3
  10668  10669  10680  10683     1  0.0000000  0.6508444  3
  10668  10670  10672  10676     1  0.0000000  0.6508444  3
  10669  10680  10683  10684     1  180.0000771  0.0000000  2
  10669  10680  10683  10732     1  180.0000771  0.0000000  2
  10669  10668  10670  10672     1  180.0000771  2.0083200  2
  10669  10668  10670  10672     1  0.0000000  1.2552000  3
  10670  10672  10676  10677     1  180.0000771  0.0000000  2
  10670  10672  10676  10708     1  180.0000771  0.0000000  2
  10670  10668  10669  10680     1  180.0000771  2.0083200  2
  10670  10668  10669  10680     1  0.0000000  1.2552000  3
  10672  10676  10708  10689     1  180.0000771  6.0668000  2
  10672  10676  10708  10689     1  180.0000771  1.4644000  4
  10676  10708  10689  10690     1  0.0000000  1.2552000  3
  10676  10708  10689  10688     1  0.0000000  1.2552000  3
  10677  10676  10708  10689     1  180.0000771  6.0668000  2
  10677  10676  10708  10689     1  180.0000771  1.4644000  4
  10680  10683  10732  10713     1  180.0000771  6.0668000  2
  10680  10683  10732  10713     1  180.0000771  1.4644000  4
  10683  10732  10713  10714     1  0.0000000  1.2552000  3
  10683  10732  10713  10712     1  0.0000000  1.2552000  3
  10684  10683  10732  10713     1  180.0000771  6.0668000  2
  10684  10683  10732  10713     1  180.0000771  1.4644000  4
  10685  10686  10688  10689     1  180.0000771  0.8368000  1
  10685  10686  10688  10689     1  180.0000771  1.0460000  2
  10685  10686  10688  10689     1  0.0000000  0.7531200  3
  10685  10686  10688  10695     1  0.0000000  0.6508444  3
  10685  10703  10690  10694     1  0.0000000  1.6038667  3
  10685  10703  10690  10689     1  180.0000771  0.4184000  2
  10685  10703  10690  10689     1  0.0000000  1.6024720  3
  10686  10688  10689  10690     1  180.0000771  0.8368000  1
  10686  10688  10689  10690     1  180.0000771  1.0460000  2
  10686  10688  10689  10690     1  0.0000000  0.7531200  3
  10686  10688  10689  10708     1  0.0000000  0.6508444  3
  10686  10685  10696  10701     1  0.0000000  0.6508444  3
  10686  10685  10703  10690     1  180.0000771  0.4184000  2
  10686  10685  10703  10690     1  0.0000000  1.6024720  3
  10688  10689  10690  10694     1  0.0000000  0.6508444  3
  10688  10689  10690  10703     1  0.0000000  0.6508444  3
  10688  10686  10685  10696     1  180.0000771  0.8368000  1
  10688  10686  10685  10696     1  180.0000771  1.0460000  2
  10688  10686  10685  10696     1  0.0000000  0.7531200  3
  10688  10686  10685  10703     1  0.0000000  0.6508444  3
  10689  10688  10686  10706     1  0.0000000  0.6508444  3
  10690  10703  10685  10696     1  180.0000771  0.4184000  2
  10690  10703  10685  10696     1  0.0000000  1.6024720  3
  10690  10689  10688  10695     1  0.0000000  0.6508444  3
  10694  10690  10689  10708     1  0.0000000  0.6508444  3
  10695  10688  10689  10708     1  0.0000000  0.6508444  3
  10695  10688  10686  10706     1  0.0000000  4.9162000  2
  10695  10688  10686  10706     1  0.0000000  0.6024960  3
  10696  10685  10686  10706     1  0.0000000  0.6508444  3
  10701  10696  10685  10703     1  0.0000000  4.9162000  2
  10701  10696  10685  10703     1  0.0000000  0.6024960  3
  10703  10690  10689  10708     1  0.0000000  0.6508444  3
  10703  10685  10686  10706     1  0.0000000  4.9162000  2
  10703  10685  10686  10706     1  0.0000000  0.6024960  3
  10709  10710  10712  10713     1  180.0000771  0.8368000  1
  10709  10710  10712  10713     1  180.0000771  1.0460000  2
  10709  10710  10712  10713     1  0.0000000  0.7531200  3
  10709  10710  10712  10719     1  0.0000000  0.6508444  3
  10709  10727  10714  10718     1  0.0000000  1.6038667  3
  10709  10727  10714  10713     1  180.0000771  0.4184000  2
  10709  10727  10714  10713     1  0.0000000  1.6024720  3
  10710  10712  10713  10714     1  180.0000771  0.8368000  1
  10710  10712  10713  10714     1  180.0000771  1.0460000  2
  10710  10712  10713  10714     1  0.0000000  0.7531200  3
  10710  10712  10713  10732     1  0.0000000  0.6508444  3
  10710  10709  10720  10725     1  0.0000000  0.6508444  3
  10710  10709  10727  10714     1  180.0000771  0.4184000  2
  10710  10709  10727  10714     1  0.0000000  1.6024720  3
  10712  10713  10714  10718     1  0.0000000  0.6508444  3
  10712  10713  10714  10727     1  0.0000000  0.6508444  3
  10712  10710  10709  10720     1  180.0000771  0.8368000  1
  10712  10710  10709  10720     1  180.0000771  1.0460000  2
  10712  10710  10709  10720     1  0.0000000  0.7531200  3
  10712  10710  10709  10727     1  0.0000000  0.6508444  3
  10713  10712  10710  10730     1  0.0000000  0.6508444  3
  10714  10727  10709  10720     1  180.0000771  0.4184000  2
  10714  10727  10709  10720     1  0.0000000  1.6024720  3
  10714  10713  10712  10719     1  0.0000000  0.6508444  3
  10718  10714  10713  10732     1  0.0000000  0.6508444  3
  10719  10712  10713  10732     1  0.0000000  0.6508444  3
  10719  10712  10710  10730     1  0.0000000  4.9162000  2
  10719  10712  10710  10730     1  0.0000000  0.6024960  3
  10720  10709  10710  10730     1  0.0000000  0.6508444  3
  10725  10720  10709  10727     1  0.0000000  4.9162000  2
  10725  10720  10709  10727     1  0.0000000  0.6024960  3
  10727  10714  10713  10732     1  0.0000000  0.6508444  3
  10727  10709  10710  10730     1  0.0000000  4.9162000  2
  10727  10709  10710  10730     1  0.0000000  0.6024960  3
  10733  10735  10737  10741     1  0.0000000  0.6508444  3
  10735  10737  10741  10742     1  180.0000771  2.0083200  2
  10735  10737  10741  10742     1  0.0000000  1.2552000  3
  10735  10737  10741  10743     1  180.0000771  2.0083200  2
  10735  10737  10741  10743     1  0.0000000  1.2552000  3
  10737  10741  10742  10753     1  180.0000771  2.0083200  2
  10737  10741  10742  10753     1  0.0000000  1.2552000  3
  10737  10741  10743  10745     1  180.0000771  2.0083200  2
  10737  10741  10743  10745     1  0.0000000  1.2552000  3
  10741  10742  10753  10756     1  0.0000000  0.6508444  3
  10741  10743  10745  10749     1  0.0000000  0.6508444  3
  10742  10741  10743  10745     1  180.0000771  2.0083200  2
  10742  10741  10743  10745     1  0.0000000  1.2552000  3
  10742  10753  10756  10757     1  180.0000771  0.0000000  2
  10742  10753  10756  10805     1  180.0000771  0.0000000  2
  10743  10741  10742  10753     1  180.0000771  2.0083200  2
  10743  10741  10742  10753     1  0.0000000  1.2552000  3
  10743  10745  10749  10750     1  180.0000771  0.0000000  2
  10743  10745  10749  10781     1  180.0000771  0.0000000  2
  10745  10749  10781  10762     1  180.0000771  6.0668000  2
  10745  10749  10781  10762     1  180.0000771  1.4644000  4
  10749  10781  10762  10761     1  0.0000000  1.2552000  3
  10749  10781  10762  10763     1  0.0000000  1.2552000  3
  10750  10749  10781  10762     1  180.0000771  6.0668000  2
  10750  10749  10781  10762     1  180.0000771  1.4644000  4
  10753  10756  10805  10786     1  180.0000771  6.0668000  2
  10753  10756  10805  10786     1  180.0000771  1.4644000  4
  10756  10805  10786  10785     1  0.0000000  1.2552000  3
  10756  10805  10786  10787     1  0.0000000  1.2552000  3
  10757  10756  10805  10786     1  180.0000771  6.0668000  2
  10757  10756  10805  10786     1  180.0000771  1.4644000  4
  10758  10759  10761  10762     1  180.0000771  0.8368000  1
  10758  10759  10761  10762     1  180.0000771  1.0460000  2
  10758  10759  10761  10762     1  0.0000000  0.7531200  3
  10758  10759  10761  10768     1  0.0000000  0.6508444  3
  10758  10776  10763  10762     1  180.0000771  0.4184000  2
  10758  10776  10763  10762     1  0.0000000  1.6024720  3
  10758  10776  10763  10767     1  0.0000000  1.6038667  3
  10759  10758  10769  10774     1  0.0000000  0.6508444  3
  10759  10758  10776  10763     1  180.0000771  0.4184000  2
  10759  10758  10776  10763     1  0.0000000  1.6024720  3
  10759  10761  10762  10763     1  180.0000771  0.8368000  1
  10759  10761  10762  10763     1  180.0000771  1.0460000  2
  10759  10761  10762  10763     1  0.0000000  0.7531200  3
  10759  10761  10762  10781     1  0.0000000  0.6508444  3
  10761  10759  10758  10769     1  180.0000771  0.8368000  1
  10761  10759  10758  10769     1  180.0000771  1.0460000  2
  10761  10759  10758  10769     1  0.0000000  0.7531200  3
  10761  10759  10758  10776     1  0.0000000  0.6508444  3
  10761  10762  10763  10767     1  0.0000000  0.6508444  3
  10761  10762  10763  10776     1  0.0000000  0.6508444  3
  10762  10761  10759  10779     1  0.0000000  0.6508444  3
  10763  10762  10761  10768     1  0.0000000  0.6508444  3
  10763  10776  10758  10769     1  180.0000771  0.4184000  2
  10763  10776  10758  10769     1  0.0000000  1.6024720  3
  10767  10763  10762  10781     1  0.0000000  0.6508444  3
  10768  10761  10759  10779     1  0.0000000  4.9162000  2
  10768  10761  10759  10779     1  0.0000000  0.6024960  3
  10768  10761  10762  10781     1  0.0000000  0.6508444  3
  10769  10758  10759  10779     1  0.0000000  0.6508444  3
  10774  10769  10758  10776     1  0.0000000  4.9162000  2
  10774  10769  10758  10776     1  0.0000000  0.6024960  3
  10776  10758  10759  10779     1  0.0000000  4.9162000  2
  10776  10758  10759  10779     1  0.0000000  0.6024960  3
  10776  10763  10762  10781     1  0.0000000  0.6508444  3
  10782  10783  10785  10786     1  180.0000771  0.8368000  1
  10782  10783  10785  10786     1  180.0000771  1.0460000  2
  10782  10783  10785  10786     1  0.0000000  0.7531200  3
  10782  10783  10785  10792     1  0.0000000  0.6508444  3
  10782  10800  10787  10786     1  180.0000771  0.4184000  2
  10782  10800  10787  10786     1  0.0000000  1.6024720  3
  10782  10800  10787  10791     1  0.0000000  1.6038667  3
  10783  10782  10793  10798     1  0.0000000  0.6508444  3
  10783  10782  10800  10787     1  180.0000771  0.4184000  2
  10783  10782  10800  10787     1  0.0000000  1.6024720  3
  10783  10785  10786  10787     1  180.0000771  0.8368000  1
  10783  10785  10786  10787     1  180.0000771  1.0460000  2
  10783  10785  10786  10787     1  0.0000000  0.7531200  3
  10783  10785  10786  10805     1  0.0000000  0.6508444  3
  10785  10783  10782  10793     1  180.0000771  0.8368000  1
  10785  10783  10782  10793     1  180.0000771  1.0460000  2
  10785  10783  10782  10793     1  0.0000000  0.7531200  3
  10785  10783  10782  10800     1  0.0000000  0.6508444  3
  10785  10786  10787  10791     1  0.0000000  0.6508444  3
  10785  10786  10787  10800     1  0.0000000  0.6508444  3
  10786  10785  10783  10803     1  0.0000000  0.6508444  3
  10787  10786  10785  10792     1  0.0000000  0.6508444  3
  10787  10800  10782  10793     1  180.0000771  0.4184000  2
  10787  10800  10782  10793     1  0.0000000  1.6024720  3
  10791  10787  10786  10805     1  0.0000000  0.6508444  3
  10792  10785  10783  10803     1  0.0000000  4.9162000  2
  10792  10785  10783  10803     1  0.0000000  0.6024960  3
  10792  10785  10786  10805     1  0.0000000  0.6508444  3
  10793  10782  10783  10803     1  0.0000000  0.6508444  3
  10798  10793  10782  10800     1  0.0000000  4.9162000  2
  10798  10793  10782  10800     1  0.0000000  0.6024960  3
  10800  10782  10783  10803     1  0.0000000  4.9162000  2
  10800  10782  10783  10803     1  0.0000000  0.6024960  3
  10800  10787  10786  10805     1  0.0000000  0.6508444  3
  10806  10808  10810  10814     1  0.0000000  0.6508444  3
  10808  10810  10814  10815     1  180.0000771  2.0083200  2
  10808  10810  10814  10815     1  0.0000000  1.2552000  3
  10808  10810  10814  10816     1  180.0000771  2.0083200  2
  10808  10810  10814  10816     1  0.0000000  1.2552000  3
  10810  10814  10815  10826     1  180.0000771  2.0083200  2
  10810  10814  10815  10826     1  0.0000000  1.2552000  3
  10810  10814  10816  10818     1  180.0000771  2.0083200  2
  10810  10814  10816  10818     1  0.0000000  1.2552000  3
  10814  10815  10826  10829     1  0.0000000  0.6508444  3
  10814  10816  10818  10822     1  0.0000000  0.6508444  3
  10815  10826  10829  10830     1  180.0000771  0.0000000  2
  10815  10826  10829  10878     1  180.0000771  0.0000000  2
  10815  10814  10816  10818     1  180.0000771  2.0083200  2
  10815  10814  10816  10818     1  0.0000000  1.2552000  3
  10816  10818  10822  10823     1  180.0000771  0.0000000  2
  10816  10818  10822  10854     1  180.0000771  0.0000000  2
  10816  10814  10815  10826     1  180.0000771  2.0083200  2
  10816  10814  10815  10826     1  0.0000000  1.2552000  3
  10818  10822  10854  10835     1  180.0000771  6.0668000  2
  10818  10822  10854  10835     1  180.0000771  1.4644000  4
  10822  10854  10835  10836     1  0.0000000  1.2552000  3
  10822  10854  10835  10834     1  0.0000000  1.2552000  3
  10823  10822  10854  10835     1  180.0000771  6.0668000  2
  10823  10822  10854  10835     1  180.0000771  1.4644000  4
  10826  10829  10878  10859     1  180.0000771  6.0668000  2
  10826  10829  10878  10859     1  180.0000771  1.4644000  4
  10829  10878  10859  10860     1  0.0000000  1.2552000  3
  10829  10878  10859  10858     1  0.0000000  1.2552000  3
  10830  10829  10878  10859     1  180.0000771  6.0668000  2
  10830  10829  10878  10859     1  180.0000771  1.4644000  4
  10831  10832  10834  10835     1  180.0000771  0.8368000  1
  10831  10832  10834  10835     1  180.0000771  1.0460000  2
  10831  10832  10834  10835     1  0.0000000  0.7531200  3
  10831  10832  10834  10841     1  0.0000000  0.6508444  3
  10831  10849  10836  10840     1  0.0000000  1.6038667  3
  10831  10849  10836  10835     1  180.0000771  0.4184000  2
  10831  10849  10836  10835     1  0.0000000  1.6024720  3
  10832  10834  10835  10836     1  180.0000771  0.8368000  1
  10832  10834  10835  10836     1  180.0000771  1.0460000  2
  10832  10834  10835  10836     1  0.0000000  0.7531200  3
  10832  10834  10835  10854     1  0.0000000  0.6508444  3
  10832  10831  10842  10847     1  0.0000000  0.6508444  3
  10832  10831  10849  10836     1  180.0000771  0.4184000  2
  10832  10831  10849  10836     1  0.0000000  1.6024720  3
  10834  10835  10836  10840     1  0.0000000  0.6508444  3
  10834  10835  10836  10849     1  0.0000000  0.6508444  3
  10834  10832  10831  10842     1  180.0000771  0.8368000  1
  10834  10832  10831  10842     1  180.0000771  1.0460000  2
  10834  10832  10831  10842     1  0.0000000  0.7531200  3
  10834  10832  10831  10849     1  0.0000000  0.6508444  3
  10835  10834  10832  10852     1  0.0000000  0.6508444  3
  10836  10849  10831  10842     1  180.0000771  0.4184000  2
  10836  10849  10831  10842     1  0.0000000  1.6024720  3
  10836  10835  10834  10841     1  0.0000000  0.6508444  3
  10840  10836  10835  10854     1  0.0000000  0.6508444  3
  10841  10834  10835  10854     1  0.0000000  0.6508444  3
  10841  10834  10832  10852     1  0.0000000  4.9162000  2
  10841  10834  10832  10852     1  0.0000000  0.6024960  3
  10842  10831  10832  10852     1  0.0000000  0.6508444  3
  10847  10842  10831  10849     1  0.0000000  4.9162000  2
  10847  10842  10831  10849     1  0.0000000  0.6024960  3
  10849  10836  10835  10854     1  0.0000000  0.6508444  3
  10849  10831  10832  10852     1  0.0000000  4.9162000  2
  10849  10831  10832  10852     1  0.0000000  0.6024960  3
  10855  10856  10858  10859     1  180.0000771  0.8368000  1
  10855  10856  10858  10859     1  180.0000771  1.0460000  2
  10855  10856  10858  10859     1  0.0000000  0.7531200  3
  10855  10856  10858  10865     1  0.0000000  0.6508444  3
  10855  10873  10860  10864     1  0.0000000  1.6038667  3
  10855  10873  10860  10859     1  180.0000771  0.4184000  2
  10855  10873  10860  10859     1  0.0000000  1.6024720  3
  10856  10858  10859  10860     1  180.0000771  0.8368000  1
  10856  10858  10859  10860     1  180.0000771  1.0460000  2
  10856  10858  10859  10860     1  0.0000000  0.7531200  3
  10856  10858  10859  10878     1  0.0000000  0.6508444  3
  10856  10855  10866  10871     1  0.0000000  0.6508444  3
  10856  10855  10873  10860     1  180.0000771  0.4184000  2
  10856  10855  10873  10860     1  0.0000000  1.6024720  3
  10858  10859  10860  10864     1  0.0000000  0.6508444  3
  10858  10859  10860  10873     1  0.0000000  0.6508444  3
  10858  10856  10855  10866     1  180.0000771  0.8368000  1
  10858  10856  10855  10866     1  180.0000771  1.0460000  2
  10858  10856  10855  10866     1  0.0000000  0.7531200  3
  10858  10856  10855  10873     1  0.0000000  0.6508444  3
  10859  10858  10856  10876     1  0.0000000  0.6508444  3
  10860  10873  10855  10866     1  180.0000771  0.4184000  2
  10860  10873  10855  10866     1  0.0000000  1.6024720  3
  10860  10859  10858  10865     1  0.0000000  0.6508444  3
  10864  10860  10859  10878     1  0.0000000  0.6508444  3
  10865  10858  10859  10878     1  0.0000000  0.6508444  3
  10865  10858  10856  10876     1  0.0000000  4.9162000  2
  10865  10858  10856  10876     1  0.0000000  0.6024960  3
  10866  10855  10856  10876     1  0.0000000  0.6508444  3
  10871  10866  10855  10873     1  0.0000000  4.9162000  2
  10871  10866  10855  10873     1  0.0000000  0.6024960  3
  10873  10860  10859  10878     1  0.0000000  0.6508444  3
  10873  10855  10856  10876     1  0.0000000  4.9162000  2
  10873  10855  10856  10876     1  0.0000000  0.6024960  3
  10879  10881  10883  10887     1  0.0000000  0.6508444  3
  10881  10883  10887  10888     1  180.0000771  2.0083200  2
  10881  10883  10887  10888     1  0.0000000  1.2552000  3
  10881  10883  10887  10889     1  180.0000771  2.0083200  2
  10881  10883  10887  10889     1  0.0000000  1.2552000  3
  10883  10887  10888  10899     1  180.0000771  2.0083200  2
  10883  10887  10888  10899     1  0.0000000  1.2552000  3
  10883  10887  10889  10891     1  180.0000771  2.0083200  2
  10883  10887  10889  10891     1  0.0000000  1.2552000  3
  10887  10888  10899  10902     1  0.0000000  0.6508444  3
  10887  10889  10891  10895     1  0.0000000  0.6508444  3
  10888  10887  10889  10891     1  180.0000771  2.0083200  2
  10888  10887  10889  10891     1  0.0000000  1.2552000  3
  10888  10899  10902  10903     1  180.0000771  0.0000000  2
  10888  10899  10902  10951     1  180.0000771  0.0000000  2
  10889  10887  10888  10899     1  180.0000771  2.0083200  2
  10889  10887  10888  10899     1  0.0000000  1.2552000  3
  10889  10891  10895  10896     1  180.0000771  0.0000000  2
  10889  10891  10895  10927     1  180.0000771  0.0000000  2
  10891  10895  10927  10908     1  180.0000771  6.0668000  2
  10891  10895  10927  10908     1  180.0000771  1.4644000  4
  10895  10927  10908  10907     1  0.0000000  1.2552000  3
  10895  10927  10908  10909     1  0.0000000  1.2552000  3
  10896  10895  10927  10908     1  180.0000771  6.0668000  2
  10896  10895  10927  10908     1  180.0000771  1.4644000  4
  10899  10902  10951  10932     1  180.0000771  6.0668000  2
  10899  10902  10951  10932     1  180.0000771  1.4644000  4
  10902  10951  10932  10931     1  0.0000000  1.2552000  3
  10902  10951  10932  10933     1  0.0000000  1.2552000  3
  10903  10902  10951  10932     1  180.0000771  6.0668000  2
  10903  10902  10951  10932     1  180.0000771  1.4644000  4
  10904  10905  10907  10908     1  180.0000771  0.8368000  1
  10904  10905  10907  10908     1  180.0000771  1.0460000  2
  10904  10905  10907  10908     1  0.0000000  0.7531200  3
  10904  10905  10907  10914     1  0.0000000  0.6508444  3
  10904  10922  10909  10908     1  180.0000771  0.4184000  2
  10904  10922  10909  10908     1  0.0000000  1.6024720  3
  10904  10922  10909  10913     1  0.0000000  1.6038667  3
  10905  10904  10915  10920     1  0.0000000  0.6508444  3
  10905  10904  10922  10909     1  180.0000771  0.4184000  2
  10905  10904  10922  10909     1  0.0000000  1.6024720  3
  10905  10907  10908  10909     1  180.0000771  0.8368000  1
  10905  10907  10908  10909     1  180.0000771  1.0460000  2
  10905  10907  10908  10909     1  0.0000000  0.7531200  3
  10905  10907  10908  10927     1  0.0000000  0.6508444  3
  10907  10905  10904  10915     1  180.0000771  0.8368000  1
  10907  10905  10904  10915     1  180.0000771  1.0460000  2
  10907  10905  10904  10915     1  0.0000000  0.7531200  3
  10907  10905  10904  10922     1  0.0000000  0.6508444  3
  10907  10908  10909  10913     1  0.0000000  0.6508444  3
  10907  10908  10909  10922     1  0.0000000  0.6508444  3
  10908  10907  10905  10925     1  0.0000000  0.6508444  3
  10909  10908  10907  10914     1  0.0000000  0.6508444  3
  10909  10922  10904  10915     1  180.0000771  0.4184000  2
  10909  10922  10904  10915     1  0.0000000  1.6024720  3
  10913  10909  10908  10927     1  0.0000000  0.6508444  3
  10914  10907  10905  10925     1  0.0000000  4.9162000  2
  10914  10907  10905  10925     1  0.0000000  0.6024960  3
  10914  10907  10908  10927     1  0.0000000  0.6508444  3
  10915  10904  10905  10925     1  0.0000000  0.6508444  3
  10920  10915  10904  10922     1  0.0000000  4.9162000  2
  10920  10915  10904  10922     1  0.0000000  0.6024960  3
  10922  10904  10905  10925     1  0.0000000  4.9162000  2
  10922  10904  10905  10925     1  0.0000000  0.6024960  3
  10922  10909  10908  10927     1  0.0000000  0.6508444  3
  10928  10929  10931  10932     1  180.0000771  0.8368000  1
  10928  10929  10931  10932     1  180.0000771  1.0460000  2
  10928  10929  10931  10932     1  0.0000000  0.7531200  3
  10928  10929  10931  10938     1  0.0000000  0.6508444  3
  10928  10946  10933  10932     1  180.0000771  0.4184000  2
  10928  10946  10933  10932     1  0.0000000  1.6024720  3
  10928  10946  10933  10937     1  0.0000000  1.6038667  3
  10929  10928  10939  10944     1  0.0000000  0.6508444  3
  10929  10928  10946  10933     1  180.0000771  0.4184000  2
  10929  10928  10946  10933     1  0.0000000  1.6024720  3
  10929  10931  10932  10933     1  180.0000771  0.8368000  1
  10929  10931  10932  10933     1  180.0000771  1.0460000  2
  10929  10931  10932  10933     1  0.0000000  0.7531200  3
  10929  10931  10932  10951     1  0.0000000  0.6508444  3
  10931  10929  10928  10939     1  180.0000771  0.8368000  1
  10931  10929  10928  10939     1  180.0000771  1.0460000  2
  10931  10929  10928  10939     1  0.0000000  0.7531200  3
  10931  10929  10928  10946     1  0.0000000  0.6508444  3
  10931  10932  10933  10937     1  0.0000000  0.6508444  3
  10931  10932  10933  10946     1  0.0000000  0.6508444  3
  10932  10931  10929  10949     1  0.0000000  0.6508444  3
  10933  10932  10931  10938     1  0.0000000  0.6508444  3
  10933  10946  10928  10939     1  180.0000771  0.4184000  2
  10933  10946  10928  10939     1  0.0000000  1.6024720  3
  10937  10933  10932  10951     1  0.0000000  0.6508444  3
  10938  10931  10929  10949     1  0.0000000  4.9162000  2
  10938  10931  10929  10949     1  0.0000000  0.6024960  3
  10938  10931  10932  10951     1  0.0000000  0.6508444  3
  10939  10928  10929  10949     1  0.0000000  0.6508444  3
  10944  10939  10928  10946     1  0.0000000  4.9162000  2
  10944  10939  10928  10946     1  0.0000000  0.6024960  3
  10946  10928  10929  10949     1  0.0000000  4.9162000  2
  10946  10928  10929  10949     1  0.0000000  0.6024960  3
  10946  10933  10932  10951     1  0.0000000  0.6508444  3
  10952  10954  10956  10960     1  0.0000000  0.6508444  3
  10954  10956  10960  10961     1  180.0000771  2.0083200  2
  10954  10956  10960  10961     1  0.0000000  1.2552000  3
  10954  10956  10960  10962     1  180.0000771  2.0083200  2
  10954  10956  10960  10962     1  0.0000000  1.2552000  3
  10956  10960  10961  10972     1  180.0000771  2.0083200  2
  10956  10960  10961  10972     1  0.0000000  1.2552000  3
  10956  10960  10962  10964     1  180.0000771  2.0083200  2
  10956  10960  10962  10964     1  0.0000000  1.2552000  3
  10960  10961  10972  10975     1  0.0000000  0.6508444  3
  10960  10962  10964  10968     1  0.0000000  0.6508444  3
  10961  10972  10975  10976     1  180.0000771  0.0000000  2
  10961  10972  10975  11024     1  180.0000771  0.0000000  2
  10961  10960  10962  10964     1  180.0000771  2.0083200  2
  10961  10960  10962  10964     1  0.0000000  1.2552000  3
  10962  10964  10968  10969     1  180.0000771  0.0000000  2
  10962  10964  10968  11000     1  180.0000771  0.0000000  2
  10962  10960  10961  10972     1  180.0000771  2.0083200  2
  10962  10960  10961  10972     1  0.0000000  1.2552000  3
  10964  10968  11000  10981     1  180.0000771  6.0668000  2
  10964  10968  11000  10981     1  180.0000771  1.4644000  4
  10968  11000  10981  10982     1  0.0000000  1.2552000  3
  10968  11000  10981  10980     1  0.0000000  1.2552000  3
  10969  10968  11000  10981     1  180.0000771  6.0668000  2
  10969  10968  11000  10981     1  180.0000771  1.4644000  4
  10972  10975  11024  11005     1  180.0000771  6.0668000  2
  10972  10975  11024  11005     1  180.0000771  1.4644000  4
  10975  11024  11005  11006     1  0.0000000  1.2552000  3
  10975  11024  11005  11004     1  0.0000000  1.2552000  3
  10976  10975  11024  11005     1  180.0000771  6.0668000  2
  10976  10975  11024  11005     1  180.0000771  1.4644000  4
  10977  10978  10980  10981     1  180.0000771  0.8368000  1
  10977  10978  10980  10981     1  180.0000771  1.0460000  2
  10977  10978  10980  10981     1  0.0000000  0.7531200  3
  10977  10978  10980  10987     1  0.0000000  0.6508444  3
  10977  10995  10982  10986     1  0.0000000  1.6038667  3
  10977  10995  10982  10981     1  180.0000771  0.4184000  2
  10977  10995  10982  10981     1  0.0000000  1.6024720  3
  10978  10980  10981  10982     1  180.0000771  0.8368000  1
  10978  10980  10981  10982     1  180.0000771  1.0460000  2
  10978  10980  10981  10982     1  0.0000000  0.7531200  3
  10978  10980  10981  11000     1  0.0000000  0.6508444  3
  10978  10977  10988  10993     1  0.0000000  0.6508444  3
  10978  10977  10995  10982     1  180.0000771  0.4184000  2
  10978  10977  10995  10982     1  0.0000000  1.6024720  3
  10980  10981  10982  10986     1  0.0000000  0.6508444  3
  10980  10981  10982  10995     1  0.0000000  0.6508444  3
  10980  10978  10977  10988     1  180.0000771  0.8368000  1
  10980  10978  10977  10988     1  180.0000771  1.0460000  2
  10980  10978  10977  10988     1  0.0000000  0.7531200  3
  10980  10978  10977  10995     1  0.0000000  0.6508444  3
  10981  10980  10978  10998     1  0.0000000  0.6508444  3
  10982  10995  10977  10988     1  180.0000771  0.4184000  2
  10982  10995  10977  10988     1  0.0000000  1.6024720  3
  10982  10981  10980  10987     1  0.0000000  0.6508444  3
  10986  10982  10981  11000     1  0.0000000  0.6508444  3
  10987  10980  10981  11000     1  0.0000000  0.6508444  3
  10987  10980  10978  10998     1  0.0000000  4.9162000  2
  10987  10980  10978  10998     1  0.0000000  0.6024960  3
  10988  10977  10978  10998     1  0.0000000  0.6508444  3
  10993  10988  10977  10995     1  0.0000000  4.9162000  2
  10993  10988  10977  10995     1  0.0000000  0.6024960  3
  10995  10982  10981  11000     1  0.0000000  0.6508444  3
  10995  10977  10978  10998     1  0.0000000  4.9162000  2
  10995  10977  10978  10998     1  0.0000000  0.6024960  3
  11001  11002  11004  11005     1  180.0000771  0.8368000  1
  11001  11002  11004  11005     1  180.0000771  1.0460000  2
  11001  11002  11004  11005     1  0.0000000  0.7531200  3
  11001  11002  11004  11011     1  0.0000000  0.6508444  3
  11001  11019  11006  11010     1  0.0000000  1.6038667  3
  11001  11019  11006  11005     1  180.0000771  0.4184000  2
  11001  11019  11006  11005     1  0.0000000  1.6024720  3
  11002  11004  11005  11006     1  180.0000771  0.8368000  1
  11002  11004  11005  11006     1  180.0000771  1.0460000  2
  11002  11004  11005  11006     1  0.0000000  0.7531200  3
  11002  11004  11005  11024     1  0.0000000  0.6508444  3
  11002  11001  11012  11017     1  0.0000000  0.6508444  3
  11002  11001  11019  11006     1  180.0000771  0.4184000  2
  11002  11001  11019  11006     1  0.0000000  1.6024720  3
  11004  11005  11006  11010     1  0.0000000  0.6508444  3
  11004  11005  11006  11019     1  0.0000000  0.6508444  3
  11004  11002  11001  11012     1  180.0000771  0.8368000  1
  11004  11002  11001  11012     1  180.0000771  1.0460000  2
  11004  11002  11001  11012     1  0.0000000  0.7531200  3
  11004  11002  11001  11019     1  0.0000000  0.6508444  3
  11005  11004  11002  11022     1  0.0000000  0.6508444  3
  11006  11019  11001  11012     1  180.0000771  0.4184000  2
  11006  11019  11001  11012     1  0.0000000  1.6024720  3
  11006  11005  11004  11011     1  0.0000000  0.6508444  3
  11010  11006  11005  11024     1  0.0000000  0.6508444  3
  11011  11004  11005  11024     1  0.0000000  0.6508444  3
  11011  11004  11002  11022     1  0.0000000  4.9162000  2
  11011  11004  11002  11022     1  0.0000000  0.6024960  3
  11012  11001  11002  11022     1  0.0000000  0.6508444  3
  11017  11012  11001  11019     1  0.0000000  4.9162000  2
  11017  11012  11001  11019     1  0.0000000  0.6024960  3
  11019  11006  11005  11024     1  0.0000000  0.6508444  3
  11019  11001  11002  11022     1  0.0000000  4.9162000  2
  11019  11001  11002  11022     1  0.0000000  0.6024960  3
  11025  11027  11029  11033     1  0.0000000  0.6508444  3
  11027  11029  11033  11034     1  180.0000771  2.0083200  2
  11027  11029  11033  11034     1  0.0000000  1.2552000  3
  11027  11029  11033  11035     1  180.0000771  2.0083200  2
  11027  11029  11033  11035     1  0.0000000  1.2552000  3
  11029  11033  11034  11045     1  180.0000771  2.0083200  2
  11029  11033  11034  11045     1  0.0000000  1.2552000  3
  11029  11033  11035  11037     1  180.0000771  2.0083200  2
  11029  11033  11035  11037     1  0.0000000  1.2552000  3
  11033  11034  11045  11048     1  0.0000000  0.6508444  3
  11033  11035  11037  11041     1  0.0000000  0.6508444  3
  11034  11033  11035  11037     1  180.0000771  2.0083200  2
  11034  11033  11035  11037     1  0.0000000  1.2552000  3
  11034  11045  11048  11049     1  180.0000771  0.0000000  2
  11034  11045  11048  11097     1  180.0000771  0.0000000  2
  11035  11033  11034  11045     1  180.0000771  2.0083200  2
  11035  11033  11034  11045     1  0.0000000  1.2552000  3
  11035  11037  11041  11042     1  180.0000771  0.0000000  2
  11035  11037  11041  11073     1  180.0000771  0.0000000  2
  11037  11041  11073  11054     1  180.0000771  6.0668000  2
  11037  11041  11073  11054     1  180.0000771  1.4644000  4
  11041  11073  11054  11053     1  0.0000000  1.2552000  3
  11041  11073  11054  11055     1  0.0000000  1.2552000  3
  11042  11041  11073  11054     1  180.0000771  6.0668000  2
  11042  11041  11073  11054     1  180.0000771  1.4644000  4
  11045  11048  11097  11078     1  180.0000771  6.0668000  2
  11045  11048  11097  11078     1  180.0000771  1.4644000  4
  11048  11097  11078  11077     1  0.0000000  1.2552000  3
  11048  11097  11078  11079     1  0.0000000  1.2552000  3
  11049  11048  11097  11078     1  180.0000771  6.0668000  2
  11049  11048  11097  11078     1  180.0000771  1.4644000  4
  11050  11051  11053  11054     1  180.0000771  0.8368000  1
  11050  11051  11053  11054     1  180.0000771  1.0460000  2
  11050  11051  11053  11054     1  0.0000000  0.7531200  3
  11050  11051  11053  11060     1  0.0000000  0.6508444  3
  11050  11068  11055  11054     1  180.0000771  0.4184000  2
  11050  11068  11055  11054     1  0.0000000  1.6024720  3
  11050  11068  11055  11059     1  0.0000000  1.6038667  3
  11051  11050  11061  11066     1  0.0000000  0.6508444  3
  11051  11050  11068  11055     1  180.0000771  0.4184000  2
  11051  11050  11068  11055     1  0.0000000  1.6024720  3
  11051  11053  11054  11055     1  180.0000771  0.8368000  1
  11051  11053  11054  11055     1  180.0000771  1.0460000  2
  11051  11053  11054  11055     1  0.0000000  0.7531200  3
  11051  11053  11054  11073     1  0.0000000  0.6508444  3
  11053  11051  11050  11061     1  180.0000771  0.8368000  1
  11053  11051  11050  11061     1  180.0000771  1.0460000  2
  11053  11051  11050  11061     1  0.0000000  0.7531200  3
  11053  11051  11050  11068     1  0.0000000  0.6508444  3
  11053  11054  11055  11059     1  0.0000000  0.6508444  3
  11053  11054  11055  11068     1  0.0000000  0.6508444  3
  11054  11053  11051  11071     1  0.0000000  0.6508444  3
  11055  11054  11053  11060     1  0.0000000  0.6508444  3
  11055  11068  11050  11061     1  180.0000771  0.4184000  2
  11055  11068  11050  11061     1  0.0000000  1.6024720  3
  11059  11055  11054  11073     1  0.0000000  0.6508444  3
  11060  11053  11051  11071     1  0.0000000  4.9162000  2
  11060  11053  11051  11071     1  0.0000000  0.6024960  3
  11060  11053  11054  11073     1  0.0000000  0.6508444  3
  11061  11050  11051  11071     1  0.0000000  0.6508444  3
  11066  11061  11050  11068     1  0.0000000  4.9162000  2
  11066  11061  11050  11068     1  0.0000000  0.6024960  3
  11068  11050  11051  11071     1  0.0000000  4.9162000  2
  11068  11050  11051  11071     1  0.0000000  0.6024960  3
  11068  11055  11054  11073     1  0.0000000  0.6508444  3
  11074  11075  11077  11078     1  180.0000771  0.8368000  1
  11074  11075  11077  11078     1  180.0000771  1.0460000  2
  11074  11075  11077  11078     1  0.0000000  0.7531200  3
  11074  11075  11077  11084     1  0.0000000  0.6508444  3
  11074  11092  11079  11078     1  180.0000771  0.4184000  2
  11074  11092  11079  11078     1  0.0000000  1.6024720  3
  11074  11092  11079  11083     1  0.0000000  1.6038667  3
  11075  11074  11085  11090     1  0.0000000  0.6508444  3
  11075  11074  11092  11079     1  180.0000771  0.4184000  2
  11075  11074  11092  11079     1  0.0000000  1.6024720  3
  11075  11077  11078  11079     1  180.0000771  0.8368000  1
  11075  11077  11078  11079     1  180.0000771  1.0460000  2
  11075  11077  11078  11079     1  0.0000000  0.7531200  3
  11075  11077  11078  11097     1  0.0000000  0.6508444  3
  11077  11075  11074  11085     1  180.0000771  0.8368000  1
  11077  11075  11074  11085     1  180.0000771  1.0460000  2
  11077  11075  11074  11085     1  0.0000000  0.7531200  3
  11077  11075  11074  11092     1  0.0000000  0.6508444  3
  11077  11078  11079  11083     1  0.0000000  0.6508444  3
  11077  11078  11079  11092     1  0.0000000  0.6508444  3
  11078  11077  11075  11095     1  0.0000000  0.6508444  3
  11079  11078  11077  11084     1  0.0000000  0.6508444  3
  11079  11092  11074  11085     1  180.0000771  0.4184000  2
  11079  11092  11074  11085     1  0.0000000  1.6024720  3
  11083  11079  11078  11097     1  0.0000000  0.6508444  3
  11084  11077  11075  11095     1  0.0000000  4.9162000  2
  11084  11077  11075  11095     1  0.0000000  0.6024960  3
  11084  11077  11078  11097     1  0.0000000  0.6508444  3
  11085  11074  11075  11095     1  0.0000000  0.6508444  3
  11090  11085  11074  11092     1  0.0000000  4.9162000  2
  11090  11085  11074  11092     1  0.0000000  0.6024960  3
  11092  11074  11075  11095     1  0.0000000  4.9162000  2
  11092  11074  11075  11095     1  0.0000000  0.6024960  3
  11092  11079  11078  11097     1  0.0000000  0.6508444  3
  11098  11100  11102  11106     1  0.0000000  0.6508444  3
  11100  11102  11106  11107     1  180.0000771  2.0083200  2
  11100  11102  11106  11107     1  0.0000000  1.2552000  3
  11100  11102  11106  11108     1  180.0000771  2.0083200  2
  11100  11102  11106  11108     1  0.0000000  1.2552000  3
  11102  11106  11107  11118     1  180.0000771  2.0083200  2
  11102  11106  11107  11118     1  0.0000000  1.2552000  3
  11102  11106  11108  11110     1  180.0000771  2.0083200  2
  11102  11106  11108  11110     1  0.0000000  1.2552000  3
  11106  11107  11118  11121     1  0.0000000  0.6508444  3
  11106  11108  11110  11114     1  0.0000000  0.6508444  3
  11107  11118  11121  11122     1  180.0000771  0.0000000  2
  11107  11118  11121  11170     1  180.0000771  0.0000000  2
  11107  11106  11108  11110     1  180.0000771  2.0083200  2
  11107  11106  11108  11110     1  0.0000000  1.2552000  3
  11108  11110  11114  11115     1  180.0000771  0.0000000  2
  11108  11110  11114  11146     1  180.0000771  0.0000000  2
  11108  11106  11107  11118     1  180.0000771  2.0083200  2
  11108  11106  11107  11118     1  0.0000000  1.2552000  3
  11110  11114  11146  11127     1  180.0000771  6.0668000  2
  11110  11114  11146  11127     1  180.0000771  1.4644000  4
  11114  11146  11127  11128     1  0.0000000  1.2552000  3
  11114  11146  11127  11126     1  0.0000000  1.2552000  3
  11115  11114  11146  11127     1  180.0000771  6.0668000  2
  11115  11114  11146  11127     1  180.0000771  1.4644000  4
  11118  11121  11170  11151     1  180.0000771  6.0668000  2
  11118  11121  11170  11151     1  180.0000771  1.4644000  4
  11121  11170  11151  11152     1  0.0000000  1.2552000  3
  11121  11170  11151  11150     1  0.0000000  1.2552000  3
  11122  11121  11170  11151     1  180.0000771  6.0668000  2
  11122  11121  11170  11151     1  180.0000771  1.4644000  4
  11123  11124  11126  11127     1  180.0000771  0.8368000  1
  11123  11124  11126  11127     1  180.0000771  1.0460000  2
  11123  11124  11126  11127     1  0.0000000  0.7531200  3
  11123  11124  11126  11133     1  0.0000000  0.6508444  3
  11123  11141  11128  11132     1  0.0000000  1.6038667  3
  11123  11141  11128  11127     1  180.0000771  0.4184000  2
  11123  11141  11128  11127     1  0.0000000  1.6024720  3
  11124  11126  11127  11128     1  180.0000771  0.8368000  1
  11124  11126  11127  11128     1  180.0000771  1.0460000  2
  11124  11126  11127  11128     1  0.0000000  0.7531200  3
  11124  11126  11127  11146     1  0.0000000  0.6508444  3
  11124  11123  11134  11139     1  0.0000000  0.6508444  3
  11124  11123  11141  11128     1  180.0000771  0.4184000  2
  11124  11123  11141  11128     1  0.0000000  1.6024720  3
  11126  11127  11128  11132     1  0.0000000  0.6508444  3
  11126  11127  11128  11141     1  0.0000000  0.6508444  3
  11126  11124  11123  11134     1  180.0000771  0.8368000  1
  11126  11124  11123  11134     1  180.0000771  1.0460000  2
  11126  11124  11123  11134     1  0.0000000  0.7531200  3
  11126  11124  11123  11141     1  0.0000000  0.6508444  3
  11127  11126  11124  11144     1  0.0000000  0.6508444  3
  11128  11141  11123  11134     1  180.0000771  0.4184000  2
  11128  11141  11123  11134     1  0.0000000  1.6024720  3
  11128  11127  11126  11133     1  0.0000000  0.6508444  3
  11132  11128  11127  11146     1  0.0000000  0.6508444  3
  11133  11126  11127  11146     1  0.0000000  0.6508444  3
  11133  11126  11124  11144     1  0.0000000  4.9162000  2
  11133  11126  11124  11144     1  0.0000000  0.6024960  3
  11134  11123  11124  11144     1  0.0000000  0.6508444  3
  11139  11134  11123  11141     1  0.0000000  4.9162000  2
  11139  11134  11123  11141     1  0.0000000  0.6024960  3
  11141  11128  11127  11146     1  0.0000000  0.6508444  3
  11141  11123  11124  11144     1  0.0000000  4.9162000  2
  11141  11123  11124  11144     1  0.0000000  0.6024960  3
  11147  11148  11150  11151     1  180.0000771  0.8368000  1
  11147  11148  11150  11151     1  180.0000771  1.0460000  2
  11147  11148  11150  11151     1  0.0000000  0.7531200  3
  11147  11148  11150  11157     1  0.0000000  0.6508444  3
  11147  11165  11152  11156     1  0.0000000  1.6038667  3
  11147  11165  11152  11151     1  180.0000771  0.4184000  2
  11147  11165  11152  11151     1  0.0000000  1.6024720  3
  11148  11150  11151  11152     1  180.0000771  0.8368000  1
  11148  11150  11151  11152     1  180.0000771  1.0460000  2
  11148  11150  11151  11152     1  0.0000000  0.7531200  3
  11148  11150  11151  11170     1  0.0000000  0.6508444  3
  11148  11147  11158  11163     1  0.0000000  0.6508444  3
  11148  11147  11165  11152     1  180.0000771  0.4184000  2
  11148  11147  11165  11152     1  0.0000000  1.6024720  3
  11150  11151  11152  11156     1  0.0000000  0.6508444  3
  11150  11151  11152  11165     1  0.0000000  0.6508444  3
  11150  11148  11147  11158     1  180.0000771  0.8368000  1
  11150  11148  11147  11158     1  180.0000771  1.0460000  2
  11150  11148  11147  11158     1  0.0000000  0.7531200  3
  11150  11148  11147  11165     1  0.0000000  0.6508444  3
  11151  11150  11148  11168     1  0.0000000  0.6508444  3
  11152  11165  11147  11158     1  180.0000771  0.4184000  2
  11152  11165  11147  11158     1  0.0000000  1.6024720  3
  11152  11151  11150  11157     1  0.0000000  0.6508444  3
  11156  11152  11151  11170     1  0.0000000  0.6508444  3
  11157  11150  11151  11170     1  0.0000000  0.6508444  3
  11157  11150  11148  11168     1  0.0000000  4.9162000  2
  11157  11150  11148  11168     1  0.0000000  0.6024960  3
  11158  11147  11148  11168     1  0.0000000  0.6508444  3
  11163  11158  11147  11165     1  0.0000000  4.9162000  2
  11163  11158  11147  11165     1  0.0000000  0.6024960  3
  11165  11152  11151  11170     1  0.0000000  0.6508444  3
  11165  11147  11148  11168     1  0.0000000  4.9162000  2
  11165  11147  11148  11168     1  0.0000000  0.6024960  3
  11171  11173  11175  11179     1  0.0000000  0.6508444  3
  11173  11175  11179  11180     1  180.0000771  2.0083200  2
  11173  11175  11179  11180     1  0.0000000  1.2552000  3
  11173  11175  11179  11181     1  180.0000771  2.0083200  2
  11173  11175  11179  11181     1  0.0000000  1.2552000  3
  11175  11179  11180  11191     1  180.0000771  2.0083200  2
  11175  11179  11180  11191     1  0.0000000  1.2552000  3
  11175  11179  11181  11183     1  180.0000771  2.0083200  2
  11175  11179  11181  11183     1  0.0000000  1.2552000  3
  11179  11180  11191  11194     1  0.0000000  0.6508444  3
  11179  11181  11183  11187     1  0.0000000  0.6508444  3
  11180  11179  11181  11183     1  180.0000771  2.0083200  2
  11180  11179  11181  11183     1  0.0000000  1.2552000  3
  11180  11191  11194  11195     1  180.0000771  0.0000000  2
  11180  11191  11194  11243     1  180.0000771  0.0000000  2
  11181  11179  11180  11191     1  180.0000771  2.0083200  2
  11181  11179  11180  11191     1  0.0000000  1.2552000  3
  11181  11183  11187  11188     1  180.0000771  0.0000000  2
  11181  11183  11187  11219     1  180.0000771  0.0000000  2
  11183  11187  11219  11200     1  180.0000771  6.0668000  2
  11183  11187  11219  11200     1  180.0000771  1.4644000  4
  11187  11219  11200  11199     1  0.0000000  1.2552000  3
  11187  11219  11200  11201     1  0.0000000  1.2552000  3
  11188  11187  11219  11200     1  180.0000771  6.0668000  2
  11188  11187  11219  11200     1  180.0000771  1.4644000  4
  11191  11194  11243  11224     1  180.0000771  6.0668000  2
  11191  11194  11243  11224     1  180.0000771  1.4644000  4
  11194  11243  11224  11223     1  0.0000000  1.2552000  3
  11194  11243  11224  11225     1  0.0000000  1.2552000  3
  11195  11194  11243  11224     1  180.0000771  6.0668000  2
  11195  11194  11243  11224     1  180.0000771  1.4644000  4
  11196  11197  11199  11200     1  180.0000771  0.8368000  1
  11196  11197  11199  11200     1  180.0000771  1.0460000  2
  11196  11197  11199  11200     1  0.0000000  0.7531200  3
  11196  11197  11199  11206     1  0.0000000  0.6508444  3
  11196  11214  11201  11200     1  180.0000771  0.4184000  2
  11196  11214  11201  11200     1  0.0000000  1.6024720  3
  11196  11214  11201  11205     1  0.0000000  1.6038667  3
  11197  11196  11207  11212     1  0.0000000  0.6508444  3
  11197  11196  11214  11201     1  180.0000771  0.4184000  2
  11197  11196  11214  11201     1  0.0000000  1.6024720  3
  11197  11199  11200  11201     1  180.0000771  0.8368000  1
  11197  11199  11200  11201     1  180.0000771  1.0460000  2
  11197  11199  11200  11201     1  0.0000000  0.7531200  3
  11197  11199  11200  11219     1  0.0000000  0.6508444  3
  11199  11197  11196  11207     1  180.0000771  0.8368000  1
  11199  11197  11196  11207     1  180.0000771  1.0460000  2
  11199  11197  11196  11207     1  0.0000000  0.7531200  3
  11199  11197  11196  11214     1  0.0000000  0.6508444  3
  11199  11200  11201  11205     1  0.0000000  0.6508444  3
  11199  11200  11201  11214     1  0.0000000  0.6508444  3
  11200  11199  11197  11217     1  0.0000000  0.6508444  3
  11201  11200  11199  11206     1  0.0000000  0.6508444  3
  11201  11214  11196  11207     1  180.0000771  0.4184000  2
  11201  11214  11196  11207     1  0.0000000  1.6024720  3
  11205  11201  11200  11219     1  0.0000000  0.6508444  3
  11206  11199  11197  11217     1  0.0000000  4.9162000  2
  11206  11199  11197  11217     1  0.0000000  0.6024960  3
  11206  11199  11200  11219     1  0.0000000  0.6508444  3
  11207  11196  11197  11217     1  0.0000000  0.6508444  3
  11212  11207  11196  11214     1  0.0000000  4.9162000  2
  11212  11207  11196  11214     1  0.0000000  0.6024960  3
  11214  11196  11197  11217     1  0.0000000  4.9162000  2
  11214  11196  11197  11217     1  0.0000000  0.6024960  3
  11214  11201  11200  11219     1  0.0000000  0.6508444  3
  11220  11221  11223  11224     1  180.0000771  0.8368000  1
  11220  11221  11223  11224     1  180.0000771  1.0460000  2
  11220  11221  11223  11224     1  0.0000000  0.7531200  3
  11220  11221  11223  11230     1  0.0000000  0.6508444  3
  11220  11238  11225  11224     1  180.0000771  0.4184000  2
  11220  11238  11225  11224     1  0.0000000  1.6024720  3
  11220  11238  11225  11229     1  0.0000000  1.6038667  3
  11221  11220  11231  11236     1  0.0000000  0.6508444  3
  11221  11220  11238  11225     1  180.0000771  0.4184000  2
  11221  11220  11238  11225     1  0.0000000  1.6024720  3
  11221  11223  11224  11225     1  180.0000771  0.8368000  1
  11221  11223  11224  11225     1  180.0000771  1.0460000  2
  11221  11223  11224  11225     1  0.0000000  0.7531200  3
  11221  11223  11224  11243     1  0.0000000  0.6508444  3
  11223  11221  11220  11231     1  180.0000771  0.8368000  1
  11223  11221  11220  11231     1  180.0000771  1.0460000  2
  11223  11221  11220  11231     1  0.0000000  0.7531200  3
  11223  11221  11220  11238     1  0.0000000  0.6508444  3
  11223  11224  11225  11229     1  0.0000000  0.6508444  3
  11223  11224  11225  11238     1  0.0000000  0.6508444  3
  11224  11223  11221  11241     1  0.0000000  0.6508444  3
  11225  11224  11223  11230     1  0.0000000  0.6508444  3
  11225  11238  11220  11231     1  180.0000771  0.4184000  2
  11225  11238  11220  11231     1  0.0000000  1.6024720  3
  11229  11225  11224  11243     1  0.0000000  0.6508444  3
  11230  11223  11221  11241     1  0.0000000  4.9162000  2
  11230  11223  11221  11241     1  0.0000000  0.6024960  3
  11230  11223  11224  11243     1  0.0000000  0.6508444  3
  11231  11220  11221  11241     1  0.0000000  0.6508444  3
  11236  11231  11220  11238     1  0.0000000  4.9162000  2
  11236  11231  11220  11238     1  0.0000000  0.6024960  3
  11238  11220  11221  11241     1  0.0000000  4.9162000  2
  11238  11220  11221  11241     1  0.0000000  0.6024960  3
  11238  11225  11224  11243     1  0.0000000  0.6508444  3
  11244  11246  11248  11252     1  0.0000000  0.6508444  3
  11246  11248  11252  11253     1  180.0000771  2.0083200  2
  11246  11248  11252  11253     1  0.0000000  1.2552000  3
  11246  11248  11252  11254     1  180.0000771  2.0083200  2
  11246  11248  11252  11254     1  0.0000000  1.2552000  3
  11248  11252  11253  11264     1  180.0000771  2.0083200  2
  11248  11252  11253  11264     1  0.0000000  1.2552000  3
  11248  11252  11254  11256     1  180.0000771  2.0083200  2
  11248  11252  11254  11256     1  0.0000000  1.2552000  3
  11252  11253  11264  11267     1  0.0000000  0.6508444  3
  11252  11254  11256  11260     1  0.0000000  0.6508444  3
  11253  11264  11267  11268     1  180.0000771  0.0000000  2
  11253  11264  11267  11316     1  180.0000771  0.0000000  2
  11253  11252  11254  11256     1  180.0000771  2.0083200  2
  11253  11252  11254  11256     1  0.0000000  1.2552000  3
  11254  11256  11260  11261     1  180.0000771  0.0000000  2
  11254  11256  11260  11292     1  180.0000771  0.0000000  2
  11254  11252  11253  11264     1  180.0000771  2.0083200  2
  11254  11252  11253  11264     1  0.0000000  1.2552000  3
  11256  11260  11292  11273     1  180.0000771  6.0668000  2
  11256  11260  11292  11273     1  180.0000771  1.4644000  4
  11260  11292  11273  11274     1  0.0000000  1.2552000  3
  11260  11292  11273  11272     1  0.0000000  1.2552000  3
  11261  11260  11292  11273     1  180.0000771  6.0668000  2
  11261  11260  11292  11273     1  180.0000771  1.4644000  4
  11264  11267  11316  11297     1  180.0000771  6.0668000  2
  11264  11267  11316  11297     1  180.0000771  1.4644000  4
  11267  11316  11297  11298     1  0.0000000  1.2552000  3
  11267  11316  11297  11296     1  0.0000000  1.2552000  3
  11268  11267  11316  11297     1  180.0000771  6.0668000  2
  11268  11267  11316  11297     1  180.0000771  1.4644000  4
  11269  11270  11272  11273     1  180.0000771  0.8368000  1
  11269  11270  11272  11273     1  180.0000771  1.0460000  2
  11269  11270  11272  11273     1  0.0000000  0.7531200  3
  11269  11270  11272  11279     1  0.0000000  0.6508444  3
  11269  11287  11274  11278     1  0.0000000  1.6038667  3
  11269  11287  11274  11273     1  180.0000771  0.4184000  2
  11269  11287  11274  11273     1  0.0000000  1.6024720  3
  11270  11272  11273  11274     1  180.0000771  0.8368000  1
  11270  11272  11273  11274     1  180.0000771  1.0460000  2
  11270  11272  11273  11274     1  0.0000000  0.7531200  3
  11270  11272  11273  11292     1  0.0000000  0.6508444  3
  11270  11269  11280  11285     1  0.0000000  0.6508444  3
  11270  11269  11287  11274     1  180.0000771  0.4184000  2
  11270  11269  11287  11274     1  0.0000000  1.6024720  3
  11272  11273  11274  11278     1  0.0000000  0.6508444  3
  11272  11273  11274  11287     1  0.0000000  0.6508444  3
  11272  11270  11269  11280     1  180.0000771  0.8368000  1
  11272  11270  11269  11280     1  180.0000771  1.0460000  2
  11272  11270  11269  11280     1  0.0000000  0.7531200  3
  11272  11270  11269  11287     1  0.0000000  0.6508444  3
  11273  11272  11270  11290     1  0.0000000  0.6508444  3
  11274  11287  11269  11280     1  180.0000771  0.4184000  2
  11274  11287  11269  11280     1  0.0000000  1.6024720  3
  11274  11273  11272  11279     1  0.0000000  0.6508444  3
  11278  11274  11273  11292     1  0.0000000  0.6508444  3
  11279  11272  11273  11292     1  0.0000000  0.6508444  3
  11279  11272  11270  11290     1  0.0000000  4.9162000  2
  11279  11272  11270  11290     1  0.0000000  0.6024960  3
  11280  11269  11270  11290     1  0.0000000  0.6508444  3
  11285  11280  11269  11287     1  0.0000000  4.9162000  2
  11285  11280  11269  11287     1  0.0000000  0.6024960  3
  11287  11274  11273  11292     1  0.0000000  0.6508444  3
  11287  11269  11270  11290     1  0.0000000  4.9162000  2
  11287  11269  11270  11290     1  0.0000000  0.6024960  3
  11293  11294  11296  11297     1  180.0000771  0.8368000  1
  11293  11294  11296  11297     1  180.0000771  1.0460000  2
  11293  11294  11296  11297     1  0.0000000  0.7531200  3
  11293  11294  11296  11303     1  0.0000000  0.6508444  3
  11293  11311  11298  11302     1  0.0000000  1.6038667  3
  11293  11311  11298  11297     1  180.0000771  0.4184000  2
  11293  11311  11298  11297     1  0.0000000  1.6024720  3
  11294  11296  11297  11298     1  180.0000771  0.8368000  1
  11294  11296  11297  11298     1  180.0000771  1.0460000  2
  11294  11296  11297  11298     1  0.0000000  0.7531200  3
  11294  11296  11297  11316     1  0.0000000  0.6508444  3
  11294  11293  11304  11309     1  0.0000000  0.6508444  3
  11294  11293  11311  11298     1  180.0000771  0.4184000  2
  11294  11293  11311  11298     1  0.0000000  1.6024720  3
  11296  11297  11298  11302     1  0.0000000  0.6508444  3
  11296  11297  11298  11311     1  0.0000000  0.6508444  3
  11296  11294  11293  11304     1  180.0000771  0.8368000  1
  11296  11294  11293  11304     1  180.0000771  1.0460000  2
  11296  11294  11293  11304     1  0.0000000  0.7531200  3
  11296  11294  11293  11311     1  0.0000000  0.6508444  3
  11297  11296  11294  11314     1  0.0000000  0.6508444  3
  11298  11311  11293  11304     1  180.0000771  0.4184000  2
  11298  11311  11293  11304     1  0.0000000  1.6024720  3
  11298  11297  11296  11303     1  0.0000000  0.6508444  3
  11302  11298  11297  11316     1  0.0000000  0.6508444  3
  11303  11296  11297  11316     1  0.0000000  0.6508444  3
  11303  11296  11294  11314     1  0.0000000  4.9162000  2
  11303  11296  11294  11314     1  0.0000000  0.6024960  3
  11304  11293  11294  11314     1  0.0000000  0.6508444  3
  11309  11304  11293  11311     1  0.0000000  4.9162000  2
  11309  11304  11293  11311     1  0.0000000  0.6024960  3
  11311  11298  11297  11316     1  0.0000000  0.6508444  3
  11311  11293  11294  11314     1  0.0000000  4.9162000  2
  11311  11293  11294  11314     1  0.0000000  0.6024960  3
  11317  11319  11321  11325     1  0.0000000  0.6508444  3
  11319  11321  11325  11326     1  180.0000771  2.0083200  2
  11319  11321  11325  11326     1  0.0000000  1.2552000  3
  11319  11321  11325  11327     1  180.0000771  2.0083200  2
  11319  11321  11325  11327     1  0.0000000  1.2552000  3
  11321  11325  11326  11337     1  180.0000771  2.0083200  2
  11321  11325  11326  11337     1  0.0000000  1.2552000  3
  11321  11325  11327  11329     1  180.0000771  2.0083200  2
  11321  11325  11327  11329     1  0.0000000  1.2552000  3
  11325  11326  11337  11340     1  0.0000000  0.6508444  3
  11325  11327  11329  11333     1  0.0000000  0.6508444  3
  11326  11325  11327  11329     1  180.0000771  2.0083200  2
  11326  11325  11327  11329     1  0.0000000  1.2552000  3
  11326  11337  11340  11341     1  180.0000771  0.0000000  2
  11326  11337  11340  11389     1  180.0000771  0.0000000  2
  11327  11325  11326  11337     1  180.0000771  2.0083200  2
  11327  11325  11326  11337     1  0.0000000  1.2552000  3
  11327  11329  11333  11334     1  180.0000771  0.0000000  2
  11327  11329  11333  11365     1  180.0000771  0.0000000  2
  11329  11333  11365  11346     1  180.0000771  6.0668000  2
  11329  11333  11365  11346     1  180.0000771  1.4644000  4
  11333  11365  11346  11345     1  0.0000000  1.2552000  3
  11333  11365  11346  11347     1  0.0000000  1.2552000  3
  11334  11333  11365  11346     1  180.0000771  6.0668000  2
  11334  11333  11365  11346     1  180.0000771  1.4644000  4
  11337  11340  11389  11370     1  180.0000771  6.0668000  2
  11337  11340  11389  11370     1  180.0000771  1.4644000  4
  11340  11389  11370  11369     1  0.0000000  1.2552000  3
  11340  11389  11370  11371     1  0.0000000  1.2552000  3
  11341  11340  11389  11370     1  180.0000771  6.0668000  2
  11341  11340  11389  11370     1  180.0000771  1.4644000  4
  11342  11343  11345  11346     1  180.0000771  0.8368000  1
  11342  11343  11345  11346     1  180.0000771  1.0460000  2
  11342  11343  11345  11346     1  0.0000000  0.7531200  3
  11342  11343  11345  11352     1  0.0000000  0.6508444  3
  11342  11360  11347  11346     1  180.0000771  0.4184000  2
  11342  11360  11347  11346     1  0.0000000  1.6024720  3
  11342  11360  11347  11351     1  0.0000000  1.6038667  3
  11343  11342  11353  11358     1  0.0000000  0.6508444  3
  11343  11342  11360  11347     1  180.0000771  0.4184000  2
  11343  11342  11360  11347     1  0.0000000  1.6024720  3
  11343  11345  11346  11347     1  180.0000771  0.8368000  1
  11343  11345  11346  11347     1  180.0000771  1.0460000  2
  11343  11345  11346  11347     1  0.0000000  0.7531200  3
  11343  11345  11346  11365     1  0.0000000  0.6508444  3
  11345  11343  11342  11353     1  180.0000771  0.8368000  1
  11345  11343  11342  11353     1  180.0000771  1.0460000  2
  11345  11343  11342  11353     1  0.0000000  0.7531200  3
  11345  11343  11342  11360     1  0.0000000  0.6508444  3
  11345  11346  11347  11351     1  0.0000000  0.6508444  3
  11345  11346  11347  11360     1  0.0000000  0.6508444  3
  11346  11345  11343  11363     1  0.0000000  0.6508444  3
  11347  11346  11345  11352     1  0.0000000  0.6508444  3
  11347  11360  11342  11353     1  180.0000771  0.4184000  2
  11347  11360  11342  11353     1  0.0000000  1.6024720  3
  11351  11347  11346  11365     1  0.0000000  0.6508444  3
  11352  11345  11343  11363     1  0.0000000  4.9162000  2
  11352  11345  11343  11363     1  0.0000000  0.6024960  3
  11352  11345  11346  11365     1  0.0000000  0.6508444  3
  11353  11342  11343  11363     1  0.0000000  0.6508444  3
  11358  11353  11342  11360     1  0.0000000  4.9162000  2
  11358  11353  11342  11360     1  0.0000000  0.6024960  3
  11360  11342  11343  11363     1  0.0000000  4.9162000  2
  11360  11342  11343  11363     1  0.0000000  0.6024960  3
  11360  11347  11346  11365     1  0.0000000  0.6508444  3
  11366  11367  11369  11370     1  180.0000771  0.8368000  1
  11366  11367  11369  11370     1  180.0000771  1.0460000  2
  11366  11367  11369  11370     1  0.0000000  0.7531200  3
  11366  11367  11369  11376     1  0.0000000  0.6508444  3
  11366  11384  11371  11370     1  180.0000771  0.4184000  2
  11366  11384  11371  11370     1  0.0000000  1.6024720  3
  11366  11384  11371  11375     1  0.0000000  1.6038667  3
  11367  11366  11377  11382     1  0.0000000  0.6508444  3
  11367  11366  11384  11371     1  180.0000771  0.4184000  2
  11367  11366  11384  11371     1  0.0000000  1.6024720  3
  11367  11369  11370  11371     1  180.0000771  0.8368000  1
  11367  11369  11370  11371     1  180.0000771  1.0460000  2
  11367  11369  11370  11371     1  0.0000000  0.7531200  3
  11367  11369  11370  11389     1  0.0000000  0.6508444  3
  11369  11367  11366  11377     1  180.0000771  0.8368000  1
  11369  11367  11366  11377     1  180.0000771  1.0460000  2
  11369  11367  11366  11377     1  0.0000000  0.7531200  3
  11369  11367  11366  11384     1  0.0000000  0.6508444  3
  11369  11370  11371  11375     1  0.0000000  0.6508444  3
  11369  11370  11371  11384     1  0.0000000  0.6508444  3
  11370  11369  11367  11387     1  0.0000000  0.6508444  3
  11371  11370  11369  11376     1  0.0000000  0.6508444  3
  11371  11384  11366  11377     1  180.0000771  0.4184000  2
  11371  11384  11366  11377     1  0.0000000  1.6024720  3
  11375  11371  11370  11389     1  0.0000000  0.6508444  3
  11376  11369  11367  11387     1  0.0000000  4.9162000  2
  11376  11369  11367  11387     1  0.0000000  0.6024960  3
  11376  11369  11370  11389     1  0.0000000  0.6508444  3
  11377  11366  11367  11387     1  0.0000000  0.6508444  3
  11382  11377  11366  11384     1  0.0000000  4.9162000  2
  11382  11377  11366  11384     1  0.0000000  0.6024960  3
  11384  11366  11367  11387     1  0.0000000  4.9162000  2
  11384  11366  11367  11387     1  0.0000000  0.6024960  3
  11384  11371  11370  11389     1  0.0000000  0.6508444  3
  11390  11392  11394  11398     1  0.0000000  0.6508444  3
  11392  11394  11398  11399     1  180.0000771  2.0083200  2
  11392  11394  11398  11399     1  0.0000000  1.2552000  3
  11392  11394  11398  11400     1  180.0000771  2.0083200  2
  11392  11394  11398  11400     1  0.0000000  1.2552000  3
  11394  11398  11399  11410     1  180.0000771  2.0083200  2
  11394  11398  11399  11410     1  0.0000000  1.2552000  3
  11394  11398  11400  11402     1  180.0000771  2.0083200  2
  11394  11398  11400  11402     1  0.0000000  1.2552000  3
  11398  11399  11410  11413     1  0.0000000  0.6508444  3
  11398  11400  11402  11406     1  0.0000000  0.6508444  3
  11399  11410  11413  11414     1  180.0000771  0.0000000  2
  11399  11410  11413  11462     1  180.0000771  0.0000000  2
  11399  11398  11400  11402     1  180.0000771  2.0083200  2
  11399  11398  11400  11402     1  0.0000000  1.2552000  3
  11400  11402  11406  11407     1  180.0000771  0.0000000  2
  11400  11402  11406  11438     1  180.0000771  0.0000000  2
  11400  11398  11399  11410     1  180.0000771  2.0083200  2
  11400  11398  11399  11410     1  0.0000000  1.2552000  3
  11402  11406  11438  11419     1  180.0000771  6.0668000  2
  11402  11406  11438  11419     1  180.0000771  1.4644000  4
  11406  11438  11419  11420     1  0.0000000  1.2552000  3
  11406  11438  11419  11418     1  0.0000000  1.2552000  3
  11407  11406  11438  11419     1  180.0000771  6.0668000  2
  11407  11406  11438  11419     1  180.0000771  1.4644000  4
  11410  11413  11462  11443     1  180.0000771  6.0668000  2
  11410  11413  11462  11443     1  180.0000771  1.4644000  4
  11413  11462  11443  11444     1  0.0000000  1.2552000  3
  11413  11462  11443  11442     1  0.0000000  1.2552000  3
  11414  11413  11462  11443     1  180.0000771  6.0668000  2
  11414  11413  11462  11443     1  180.0000771  1.4644000  4
  11415  11416  11418  11419     1  180.0000771  0.8368000  1
  11415  11416  11418  11419     1  180.0000771  1.0460000  2
  11415  11416  11418  11419     1  0.0000000  0.7531200  3
  11415  11416  11418  11425     1  0.0000000  0.6508444  3
  11415  11433  11420  11424     1  0.0000000  1.6038667  3
  11415  11433  11420  11419     1  180.0000771  0.4184000  2
  11415  11433  11420  11419     1  0.0000000  1.6024720  3
  11416  11418  11419  11420     1  180.0000771  0.8368000  1
  11416  11418  11419  11420     1  180.0000771  1.0460000  2
  11416  11418  11419  11420     1  0.0000000  0.7531200  3
  11416  11418  11419  11438     1  0.0000000  0.6508444  3
  11416  11415  11426  11431     1  0.0000000  0.6508444  3
  11416  11415  11433  11420     1  180.0000771  0.4184000  2
  11416  11415  11433  11420     1  0.0000000  1.6024720  3
  11418  11419  11420  11424     1  0.0000000  0.6508444  3
  11418  11419  11420  11433     1  0.0000000  0.6508444  3
  11418  11416  11415  11426     1  180.0000771  0.8368000  1
  11418  11416  11415  11426     1  180.0000771  1.0460000  2
  11418  11416  11415  11426     1  0.0000000  0.7531200  3
  11418  11416  11415  11433     1  0.0000000  0.6508444  3
  11419  11418  11416  11436     1  0.0000000  0.6508444  3
  11420  11433  11415  11426     1  180.0000771  0.4184000  2
  11420  11433  11415  11426     1  0.0000000  1.6024720  3
  11420  11419  11418  11425     1  0.0000000  0.6508444  3
  11424  11420  11419  11438     1  0.0000000  0.6508444  3
  11425  11418  11419  11438     1  0.0000000  0.6508444  3
  11425  11418  11416  11436     1  0.0000000  4.9162000  2
  11425  11418  11416  11436     1  0.0000000  0.6024960  3
  11426  11415  11416  11436     1  0.0000000  0.6508444  3
  11431  11426  11415  11433     1  0.0000000  4.9162000  2
  11431  11426  11415  11433     1  0.0000000  0.6024960  3
  11433  11420  11419  11438     1  0.0000000  0.6508444  3
  11433  11415  11416  11436     1  0.0000000  4.9162000  2
  11433  11415  11416  11436     1  0.0000000  0.6024960  3
  11439  11440  11442  11443     1  180.0000771  0.8368000  1
  11439  11440  11442  11443     1  180.0000771  1.0460000  2
  11439  11440  11442  11443     1  0.0000000  0.7531200  3
  11439  11440  11442  11449     1  0.0000000  0.6508444  3
  11439  11457  11444  11448     1  0.0000000  1.6038667  3
  11439  11457  11444  11443     1  180.0000771  0.4184000  2
  11439  11457  11444  11443     1  0.0000000  1.6024720  3
  11440  11442  11443  11444     1  180.0000771  0.8368000  1
  11440  11442  11443  11444     1  180.0000771  1.0460000  2
  11440  11442  11443  11444     1  0.0000000  0.7531200  3
  11440  11442  11443  11462     1  0.0000000  0.6508444  3
  11440  11439  11450  11455     1  0.0000000  0.6508444  3
  11440  11439  11457  11444     1  180.0000771  0.4184000  2
  11440  11439  11457  11444     1  0.0000000  1.6024720  3
  11442  11443  11444  11448     1  0.0000000  0.6508444  3
  11442  11443  11444  11457     1  0.0000000  0.6508444  3
  11442  11440  11439  11450     1  180.0000771  0.8368000  1
  11442  11440  11439  11450     1  180.0000771  1.0460000  2
  11442  11440  11439  11450     1  0.0000000  0.7531200  3
  11442  11440  11439  11457     1  0.0000000  0.6508444  3
  11443  11442  11440  11460     1  0.0000000  0.6508444  3
  11444  11457  11439  11450     1  180.0000771  0.4184000  2
  11444  11457  11439  11450     1  0.0000000  1.6024720  3
  11444  11443  11442  11449     1  0.0000000  0.6508444  3
  11448  11444  11443  11462     1  0.0000000  0.6508444  3
  11449  11442  11443  11462     1  0.0000000  0.6508444  3
  11449  11442  11440  11460     1  0.0000000  4.9162000  2
  11449  11442  11440  11460     1  0.0000000  0.6024960  3
  11450  11439  11440  11460     1  0.0000000  0.6508444  3
  11455  11450  11439  11457     1  0.0000000  4.9162000  2
  11455  11450  11439  11457     1  0.0000000  0.6024960  3
  11457  11444  11443  11462     1  0.0000000  0.6508444  3
  11457  11439  11440  11460     1  0.0000000  4.9162000  2
  11457  11439  11440  11460     1  0.0000000  0.6024960  3
  11463  11465  11467  11471     1  0.0000000  0.6508444  3
  11465  11467  11471  11472     1  180.0000771  2.0083200  2
  11465  11467  11471  11472     1  0.0000000  1.2552000  3
  11465  11467  11471  11473     1  180.0000771  2.0083200  2
  11465  11467  11471  11473     1  0.0000000  1.2552000  3
  11467  11471  11472  11483     1  180.0000771  2.0083200  2
  11467  11471  11472  11483     1  0.0000000  1.2552000  3
  11467  11471  11473  11475     1  180.0000771  2.0083200  2
  11467  11471  11473  11475     1  0.0000000  1.2552000  3
  11471  11472  11483  11486     1  0.0000000  0.6508444  3
  11471  11473  11475  11479     1  0.0000000  0.6508444  3
  11472  11471  11473  11475     1  180.0000771  2.0083200  2
  11472  11471  11473  11475     1  0.0000000  1.2552000  3
  11472  11483  11486  11487     1  180.0000771  0.0000000  2
  11472  11483  11486  11535     1  180.0000771  0.0000000  2
  11473  11471  11472  11483     1  180.0000771  2.0083200  2
  11473  11471  11472  11483     1  0.0000000  1.2552000  3
  11473  11475  11479  11480     1  180.0000771  0.0000000  2
  11473  11475  11479  11511     1  180.0000771  0.0000000  2
  11475  11479  11511  11492     1  180.0000771  6.0668000  2
  11475  11479  11511  11492     1  180.0000771  1.4644000  4
  11479  11511  11492  11491     1  0.0000000  1.2552000  3
  11479  11511  11492  11493     1  0.0000000  1.2552000  3
  11480  11479  11511  11492     1  180.0000771  6.0668000  2
  11480  11479  11511  11492     1  180.0000771  1.4644000  4
  11483  11486  11535  11516     1  180.0000771  6.0668000  2
  11483  11486  11535  11516     1  180.0000771  1.4644000  4
  11486  11535  11516  11515     1  0.0000000  1.2552000  3
  11486  11535  11516  11517     1  0.0000000  1.2552000  3
  11487  11486  11535  11516     1  180.0000771  6.0668000  2
  11487  11486  11535  11516     1  180.0000771  1.4644000  4
  11488  11489  11491  11492     1  180.0000771  0.8368000  1
  11488  11489  11491  11492     1  180.0000771  1.0460000  2
  11488  11489  11491  11492     1  0.0000000  0.7531200  3
  11488  11489  11491  11498     1  0.0000000  0.6508444  3
  11488  11506  11493  11492     1  180.0000771  0.4184000  2
  11488  11506  11493  11492     1  0.0000000  1.6024720  3
  11488  11506  11493  11497     1  0.0000000  1.6038667  3
  11489  11488  11499  11504     1  0.0000000  0.6508444  3
  11489  11488  11506  11493     1  180.0000771  0.4184000  2
  11489  11488  11506  11493     1  0.0000000  1.6024720  3
  11489  11491  11492  11493     1  180.0000771  0.8368000  1
  11489  11491  11492  11493     1  180.0000771  1.0460000  2
  11489  11491  11492  11493     1  0.0000000  0.7531200  3
  11489  11491  11492  11511     1  0.0000000  0.6508444  3
  11491  11489  11488  11499     1  180.0000771  0.8368000  1
  11491  11489  11488  11499     1  180.0000771  1.0460000  2
  11491  11489  11488  11499     1  0.0000000  0.7531200  3
  11491  11489  11488  11506     1  0.0000000  0.6508444  3
  11491  11492  11493  11497     1  0.0000000  0.6508444  3
  11491  11492  11493  11506     1  0.0000000  0.6508444  3
  11492  11491  11489  11509     1  0.0000000  0.6508444  3
  11493  11492  11491  11498     1  0.0000000  0.6508444  3
  11493  11506  11488  11499     1  180.0000771  0.4184000  2
  11493  11506  11488  11499     1  0.0000000  1.6024720  3
  11497  11493  11492  11511     1  0.0000000  0.6508444  3
  11498  11491  11489  11509     1  0.0000000  4.9162000  2
  11498  11491  11489  11509     1  0.0000000  0.6024960  3
  11498  11491  11492  11511     1  0.0000000  0.6508444  3
  11499  11488  11489  11509     1  0.0000000  0.6508444  3
  11504  11499  11488  11506     1  0.0000000  4.9162000  2
  11504  11499  11488  11506     1  0.0000000  0.6024960  3
  11506  11488  11489  11509     1  0.0000000  4.9162000  2
  11506  11488  11489  11509     1  0.0000000  0.6024960  3
  11506  11493  11492  11511     1  0.0000000  0.6508444  3
  11512  11513  11515  11516     1  180.0000771  0.8368000  1
  11512  11513  11515  11516     1  180.0000771  1.0460000  2
  11512  11513  11515  11516     1  0.0000000  0.7531200  3
  11512  11513  11515  11522     1  0.0000000  0.6508444  3
  11512  11530  11517  11516     1  180.0000771  0.4184000  2
  11512  11530  11517  11516     1  0.0000000  1.6024720  3
  11512  11530  11517  11521     1  0.0000000  1.6038667  3
  11513  11512  11523  11528     1  0.0000000  0.6508444  3
  11513  11512  11530  11517     1  180.0000771  0.4184000  2
  11513  11512  11530  11517     1  0.0000000  1.6024720  3
  11513  11515  11516  11517     1  180.0000771  0.8368000  1
  11513  11515  11516  11517     1  180.0000771  1.0460000  2
  11513  11515  11516  11517     1  0.0000000  0.7531200  3
  11513  11515  11516  11535     1  0.0000000  0.6508444  3
  11515  11513  11512  11523     1  180.0000771  0.8368000  1
  11515  11513  11512  11523     1  180.0000771  1.0460000  2
  11515  11513  11512  11523     1  0.0000000  0.7531200  3
  11515  11513  11512  11530     1  0.0000000  0.6508444  3
  11515  11516  11517  11521     1  0.0000000  0.6508444  3
  11515  11516  11517  11530     1  0.0000000  0.6508444  3
  11516  11515  11513  11533     1  0.0000000  0.6508444  3
  11517  11516  11515  11522     1  0.0000000  0.6508444  3
  11517  11530  11512  11523     1  180.0000771  0.4184000  2
  11517  11530  11512  11523     1  0.0000000  1.6024720  3
  11521  11517  11516  11535     1  0.0000000  0.6508444  3
  11522  11515  11513  11533     1  0.0000000  4.9162000  2
  11522  11515  11513  11533     1  0.0000000  0.6024960  3
  11522  11515  11516  11535     1  0.0000000  0.6508444  3
  11523  11512  11513  11533     1  0.0000000  0.6508444  3
  11528  11523  11512  11530     1  0.0000000  4.9162000  2
  11528  11523  11512  11530     1  0.0000000  0.6024960  3
  11530  11512  11513  11533     1  0.0000000  4.9162000  2
  11530  11512  11513  11533     1  0.0000000  0.6024960  3
  11530  11517  11516  11535     1  0.0000000  0.6508444  3
  11536  11538  11540  11544     1  0.0000000  0.6508444  3
  11538  11540  11544  11545     1  180.0000771  2.0083200  2
  11538  11540  11544  11545     1  0.0000000  1.2552000  3
  11538  11540  11544  11546     1  180.0000771  2.0083200  2
  11538  11540  11544  11546     1  0.0000000  1.2552000  3
  11540  11544  11545  11556     1  180.0000771  2.0083200  2
  11540  11544  11545  11556     1  0.0000000  1.2552000  3
  11540  11544  11546  11548     1  180.0000771  2.0083200  2
  11540  11544  11546  11548     1  0.0000000  1.2552000  3
  11544  11545  11556  11559     1  0.0000000  0.6508444  3
  11544  11546  11548  11552     1  0.0000000  0.6508444  3
  11545  11556  11559  11560     1  180.0000771  0.0000000  2
  11545  11556  11559  11608     1  180.0000771  0.0000000  2
  11545  11544  11546  11548     1  180.0000771  2.0083200  2
  11545  11544  11546  11548     1  0.0000000  1.2552000  3
  11546  11548  11552  11553     1  180.0000771  0.0000000  2
  11546  11548  11552  11584     1  180.0000771  0.0000000  2
  11546  11544  11545  11556     1  180.0000771  2.0083200  2
  11546  11544  11545  11556     1  0.0000000  1.2552000  3
  11548  11552  11584  11565     1  180.0000771  6.0668000  2
  11548  11552  11584  11565     1  180.0000771  1.4644000  4
  11552  11584  11565  11566     1  0.0000000  1.2552000  3
  11552  11584  11565  11564     1  0.0000000  1.2552000  3
  11553  11552  11584  11565     1  180.0000771  6.0668000  2
  11553  11552  11584  11565     1  180.0000771  1.4644000  4
  11556  11559  11608  11589     1  180.0000771  6.0668000  2
  11556  11559  11608  11589     1  180.0000771  1.4644000  4
  11559  11608  11589  11590     1  0.0000000  1.2552000  3
  11559  11608  11589  11588     1  0.0000000  1.2552000  3
  11560  11559  11608  11589     1  180.0000771  6.0668000  2
  11560  11559  11608  11589     1  180.0000771  1.4644000  4
  11561  11562  11564  11565     1  180.0000771  0.8368000  1
  11561  11562  11564  11565     1  180.0000771  1.0460000  2
  11561  11562  11564  11565     1  0.0000000  0.7531200  3
  11561  11562  11564  11571     1  0.0000000  0.6508444  3
  11561  11579  11566  11570     1  0.0000000  1.6038667  3
  11561  11579  11566  11565     1  180.0000771  0.4184000  2
  11561  11579  11566  11565     1  0.0000000  1.6024720  3
  11562  11564  11565  11566     1  180.0000771  0.8368000  1
  11562  11564  11565  11566     1  180.0000771  1.0460000  2
  11562  11564  11565  11566     1  0.0000000  0.7531200  3
  11562  11564  11565  11584     1  0.0000000  0.6508444  3
  11562  11561  11572  11577     1  0.0000000  0.6508444  3
  11562  11561  11579  11566     1  180.0000771  0.4184000  2
  11562  11561  11579  11566     1  0.0000000  1.6024720  3
  11564  11565  11566  11570     1  0.0000000  0.6508444  3
  11564  11565  11566  11579     1  0.0000000  0.6508444  3
  11564  11562  11561  11572     1  180.0000771  0.8368000  1
  11564  11562  11561  11572     1  180.0000771  1.0460000  2
  11564  11562  11561  11572     1  0.0000000  0.7531200  3
  11564  11562  11561  11579     1  0.0000000  0.6508444  3
  11565  11564  11562  11582     1  0.0000000  0.6508444  3
  11566  11579  11561  11572     1  180.0000771  0.4184000  2
  11566  11579  11561  11572     1  0.0000000  1.6024720  3
  11566  11565  11564  11571     1  0.0000000  0.6508444  3
  11570  11566  11565  11584     1  0.0000000  0.6508444  3
  11571  11564  11565  11584     1  0.0000000  0.6508444  3
  11571  11564  11562  11582     1  0.0000000  4.9162000  2
  11571  11564  11562  11582     1  0.0000000  0.6024960  3
  11572  11561  11562  11582     1  0.0000000  0.6508444  3
  11577  11572  11561  11579     1  0.0000000  4.9162000  2
  11577  11572  11561  11579     1  0.0000000  0.6024960  3
  11579  11566  11565  11584     1  0.0000000  0.6508444  3
  11579  11561  11562  11582     1  0.0000000  4.9162000  2
  11579  11561  11562  11582     1  0.0000000  0.6024960  3
  11585  11586  11588  11589     1  180.0000771  0.8368000  1
  11585  11586  11588  11589     1  180.0000771  1.0460000  2
  11585  11586  11588  11589     1  0.0000000  0.7531200  3
  11585  11586  11588  11595     1  0.0000000  0.6508444  3
  11585  11603  11590  11594     1  0.0000000  1.6038667  3
  11585  11603  11590  11589     1  180.0000771  0.4184000  2
  11585  11603  11590  11589     1  0.0000000  1.6024720  3
  11586  11588  11589  11590     1  180.0000771  0.8368000  1
  11586  11588  11589  11590     1  180.0000771  1.0460000  2
  11586  11588  11589  11590     1  0.0000000  0.7531200  3
  11586  11588  11589  11608     1  0.0000000  0.6508444  3
  11586  11585  11596  11601     1  0.0000000  0.6508444  3
  11586  11585  11603  11590     1  180.0000771  0.4184000  2
  11586  11585  11603  11590     1  0.0000000  1.6024720  3
  11588  11589  11590  11594     1  0.0000000  0.6508444  3
  11588  11589  11590  11603     1  0.0000000  0.6508444  3
  11588  11586  11585  11596     1  180.0000771  0.8368000  1
  11588  11586  11585  11596     1  180.0000771  1.0460000  2
  11588  11586  11585  11596     1  0.0000000  0.7531200  3
  11588  11586  11585  11603     1  0.0000000  0.6508444  3
  11589  11588  11586  11606     1  0.0000000  0.6508444  3
  11590  11603  11585  11596     1  180.0000771  0.4184000  2
  11590  11603  11585  11596     1  0.0000000  1.6024720  3
  11590  11589  11588  11595     1  0.0000000  0.6508444  3
  11594  11590  11589  11608     1  0.0000000  0.6508444  3
  11595  11588  11589  11608     1  0.0000000  0.6508444  3
  11595  11588  11586  11606     1  0.0000000  4.9162000  2
  11595  11588  11586  11606     1  0.0000000  0.6024960  3
  11596  11585  11586  11606     1  0.0000000  0.6508444  3
  11601  11596  11585  11603     1  0.0000000  4.9162000  2
  11601  11596  11585  11603     1  0.0000000  0.6024960  3
  11603  11590  11589  11608     1  0.0000000  0.6508444  3
  11603  11585  11586  11606     1  0.0000000  4.9162000  2
  11603  11585  11586  11606     1  0.0000000  0.6024960  3
  11609  11611  11613  11617     1  0.0000000  0.6508444  3
  11611  11613  11617  11618     1  180.0000771  2.0083200  2
  11611  11613  11617  11618     1  0.0000000  1.2552000  3
  11611  11613  11617  11619     1  180.0000771  2.0083200  2
  11611  11613  11617  11619     1  0.0000000  1.2552000  3
  11613  11617  11618  11629     1  180.0000771  2.0083200  2
  11613  11617  11618  11629     1  0.0000000  1.2552000  3
  11613  11617  11619  11621     1  180.0000771  2.0083200  2
  11613  11617  11619  11621     1  0.0000000  1.2552000  3
  11617  11618  11629  11632     1  0.0000000  0.6508444  3
  11617  11619  11621  11625     1  0.0000000  0.6508444  3
  11618  11617  11619  11621     1  180.0000771  2.0083200  2
  11618  11617  11619  11621     1  0.0000000  1.2552000  3
  11618  11629  11632  11633     1  180.0000771  0.0000000  2
  11618  11629  11632  11681     1  180.0000771  0.0000000  2
  11619  11617  11618  11629     1  180.0000771  2.0083200  2
  11619  11617  11618  11629     1  0.0000000  1.2552000  3
  11619  11621  11625  11626     1  180.0000771  0.0000000  2
  11619  11621  11625  11657     1  180.0000771  0.0000000  2
  11621  11625  11657  11638     1  180.0000771  6.0668000  2
  11621  11625  11657  11638     1  180.0000771  1.4644000  4
  11625  11657  11638  11637     1  0.0000000  1.2552000  3
  11625  11657  11638  11639     1  0.0000000  1.2552000  3
  11626  11625  11657  11638     1  180.0000771  6.0668000  2
  11626  11625  11657  11638     1  180.0000771  1.4644000  4
  11629  11632  11681  11662     1  180.0000771  6.0668000  2
  11629  11632  11681  11662     1  180.0000771  1.4644000  4
  11632  11681  11662  11661     1  0.0000000  1.2552000  3
  11632  11681  11662  11663     1  0.0000000  1.2552000  3
  11633  11632  11681  11662     1  180.0000771  6.0668000  2
  11633  11632  11681  11662     1  180.0000771  1.4644000  4
  11634  11635  11637  11638     1  180.0000771  0.8368000  1
  11634  11635  11637  11638     1  180.0000771  1.0460000  2
  11634  11635  11637  11638     1  0.0000000  0.7531200  3
  11634  11635  11637  11644     1  0.0000000  0.6508444  3
  11634  11652  11639  11638     1  180.0000771  0.4184000  2
  11634  11652  11639  11638     1  0.0000000  1.6024720  3
  11634  11652  11639  11643     1  0.0000000  1.6038667  3
  11635  11634  11645  11650     1  0.0000000  0.6508444  3
  11635  11634  11652  11639     1  180.0000771  0.4184000  2
  11635  11634  11652  11639     1  0.0000000  1.6024720  3
  11635  11637  11638  11639     1  180.0000771  0.8368000  1
  11635  11637  11638  11639     1  180.0000771  1.0460000  2
  11635  11637  11638  11639     1  0.0000000  0.7531200  3
  11635  11637  11638  11657     1  0.0000000  0.6508444  3
  11637  11635  11634  11645     1  180.0000771  0.8368000  1
  11637  11635  11634  11645     1  180.0000771  1.0460000  2
  11637  11635  11634  11645     1  0.0000000  0.7531200  3
  11637  11635  11634  11652     1  0.0000000  0.6508444  3
  11637  11638  11639  11643     1  0.0000000  0.6508444  3
  11637  11638  11639  11652     1  0.0000000  0.6508444  3
  11638  11637  11635  11655     1  0.0000000  0.6508444  3
  11639  11638  11637  11644     1  0.0000000  0.6508444  3
  11639  11652  11634  11645     1  180.0000771  0.4184000  2
  11639  11652  11634  11645     1  0.0000000  1.6024720  3
  11643  11639  11638  11657     1  0.0000000  0.6508444  3
  11644  11637  11635  11655     1  0.0000000  4.9162000  2
  11644  11637  11635  11655     1  0.0000000  0.6024960  3
  11644  11637  11638  11657     1  0.0000000  0.6508444  3
  11645  11634  11635  11655     1  0.0000000  0.6508444  3
  11650  11645  11634  11652     1  0.0000000  4.9162000  2
  11650  11645  11634  11652     1  0.0000000  0.6024960  3
  11652  11634  11635  11655     1  0.0000000  4.9162000  2
  11652  11634  11635  11655     1  0.0000000  0.6024960  3
  11652  11639  11638  11657     1  0.0000000  0.6508444  3
  11658  11659  11661  11662     1  180.0000771  0.8368000  1
  11658  11659  11661  11662     1  180.0000771  1.0460000  2
  11658  11659  11661  11662     1  0.0000000  0.7531200  3
  11658  11659  11661  11668     1  0.0000000  0.6508444  3
  11658  11676  11663  11662     1  180.0000771  0.4184000  2
  11658  11676  11663  11662     1  0.0000000  1.6024720  3
  11658  11676  11663  11667     1  0.0000000  1.6038667  3
  11659  11658  11669  11674     1  0.0000000  0.6508444  3
  11659  11658  11676  11663     1  180.0000771  0.4184000  2
  11659  11658  11676  11663     1  0.0000000  1.6024720  3
  11659  11661  11662  11663     1  180.0000771  0.8368000  1
  11659  11661  11662  11663     1  180.0000771  1.0460000  2
  11659  11661  11662  11663     1  0.0000000  0.7531200  3
  11659  11661  11662  11681     1  0.0000000  0.6508444  3
  11661  11659  11658  11669     1  180.0000771  0.8368000  1
  11661  11659  11658  11669     1  180.0000771  1.0460000  2
  11661  11659  11658  11669     1  0.0000000  0.7531200  3
  11661  11659  11658  11676     1  0.0000000  0.6508444  3
  11661  11662  11663  11667     1  0.0000000  0.6508444  3
  11661  11662  11663  11676     1  0.0000000  0.6508444  3
  11662  11661  11659  11679     1  0.0000000  0.6508444  3
  11663  11662  11661  11668     1  0.0000000  0.6508444  3
  11663  11676  11658  11669     1  180.0000771  0.4184000  2
  11663  11676  11658  11669     1  0.0000000  1.6024720  3
  11667  11663  11662  11681     1  0.0000000  0.6508444  3
  11668  11661  11659  11679     1  0.0000000  4.9162000  2
  11668  11661  11659  11679     1  0.0000000  0.6024960  3
  11668  11661  11662  11681     1  0.0000000  0.6508444  3
  11669  11658  11659  11679     1  0.0000000  0.6508444  3
  11674  11669  11658  11676     1  0.0000000  4.9162000  2
  11674  11669  11658  11676     1  0.0000000  0.6024960  3
  11676  11658  11659  11679     1  0.0000000  4.9162000  2
  11676  11658  11659  11679     1  0.0000000  0.6024960  3
  11676  11663  11662  11681     1  0.0000000  0.6508444  3
  11682  11684  11686  11690     1  0.0000000  0.6508444  3
  11684  11686  11690  11691     1  180.0000771  2.0083200  2
  11684  11686  11690  11691     1  0.0000000  1.2552000  3
  11684  11686  11690  11692     1  180.0000771  2.0083200  2
  11684  11686  11690  11692     1  0.0000000  1.2552000  3
  11686  11690  11691  11702     1  180.0000771  2.0083200  2
  11686  11690  11691  11702     1  0.0000000  1.2552000  3
  11686  11690  11692  11694     1  180.0000771  2.0083200  2
  11686  11690  11692  11694     1  0.0000000  1.2552000  3
  11690  11691  11702  11705     1  0.0000000  0.6508444  3
  11690  11692  11694  11698     1  0.0000000  0.6508444  3
  11691  11702  11705  11706     1  180.0000771  0.0000000  2
  11691  11702  11705  11754     1  180.0000771  0.0000000  2
  11691  11690  11692  11694     1  180.0000771  2.0083200  2
  11691  11690  11692  11694     1  0.0000000  1.2552000  3
  11692  11694  11698  11699     1  180.0000771  0.0000000  2
  11692  11694  11698  11730     1  180.0000771  0.0000000  2
  11692  11690  11691  11702     1  180.0000771  2.0083200  2
  11692  11690  11691  11702     1  0.0000000  1.2552000  3
  11694  11698  11730  11711     1  180.0000771  6.0668000  2
  11694  11698  11730  11711     1  180.0000771  1.4644000  4
  11698  11730  11711  11712     1  0.0000000  1.2552000  3
  11698  11730  11711  11710     1  0.0000000  1.2552000  3
  11699  11698  11730  11711     1  180.0000771  6.0668000  2
  11699  11698  11730  11711     1  180.0000771  1.4644000  4
  11702  11705  11754  11735     1  180.0000771  6.0668000  2
  11702  11705  11754  11735     1  180.0000771  1.4644000  4
  11705  11754  11735  11736     1  0.0000000  1.2552000  3
  11705  11754  11735  11734     1  0.0000000  1.2552000  3
  11706  11705  11754  11735     1  180.0000771  6.0668000  2
  11706  11705  11754  11735     1  180.0000771  1.4644000  4
  11707  11708  11710  11711     1  180.0000771  0.8368000  1
  11707  11708  11710  11711     1  180.0000771  1.0460000  2
  11707  11708  11710  11711     1  0.0000000  0.7531200  3
  11707  11708  11710  11717     1  0.0000000  0.6508444  3
  11707  11725  11712  11716     1  0.0000000  1.6038667  3
  11707  11725  11712  11711     1  180.0000771  0.4184000  2
  11707  11725  11712  11711     1  0.0000000  1.6024720  3
  11708  11710  11711  11712     1  180.0000771  0.8368000  1
  11708  11710  11711  11712     1  180.0000771  1.0460000  2
  11708  11710  11711  11712     1  0.0000000  0.7531200  3
  11708  11710  11711  11730     1  0.0000000  0.6508444  3
  11708  11707  11718  11723     1  0.0000000  0.6508444  3
  11708  11707  11725  11712     1  180.0000771  0.4184000  2
  11708  11707  11725  11712     1  0.0000000  1.6024720  3
  11710  11711  11712  11716     1  0.0000000  0.6508444  3
  11710  11711  11712  11725     1  0.0000000  0.6508444  3
  11710  11708  11707  11718     1  180.0000771  0.8368000  1
  11710  11708  11707  11718     1  180.0000771  1.0460000  2
  11710  11708  11707  11718     1  0.0000000  0.7531200  3
  11710  11708  11707  11725     1  0.0000000  0.6508444  3
  11711  11710  11708  11728     1  0.0000000  0.6508444  3
  11712  11725  11707  11718     1  180.0000771  0.4184000  2
  11712  11725  11707  11718     1  0.0000000  1.6024720  3
  11712  11711  11710  11717     1  0.0000000  0.6508444  3
  11716  11712  11711  11730     1  0.0000000  0.6508444  3
  11717  11710  11711  11730     1  0.0000000  0.6508444  3
  11717  11710  11708  11728     1  0.0000000  4.9162000  2
  11717  11710  11708  11728     1  0.0000000  0.6024960  3
  11718  11707  11708  11728     1  0.0000000  0.6508444  3
  11723  11718  11707  11725     1  0.0000000  4.9162000  2
  11723  11718  11707  11725     1  0.0000000  0.6024960  3
  11725  11712  11711  11730     1  0.0000000  0.6508444  3
  11725  11707  11708  11728     1  0.0000000  4.9162000  2
  11725  11707  11708  11728     1  0.0000000  0.6024960  3
  11731  11732  11734  11735     1  180.0000771  0.8368000  1
  11731  11732  11734  11735     1  180.0000771  1.0460000  2
  11731  11732  11734  11735     1  0.0000000  0.7531200  3
  11731  11732  11734  11741     1  0.0000000  0.6508444  3
  11731  11749  11736  11740     1  0.0000000  1.6038667  3
  11731  11749  11736  11735     1  180.0000771  0.4184000  2
  11731  11749  11736  11735     1  0.0000000  1.6024720  3
  11732  11734  11735  11736     1  180.0000771  0.8368000  1
  11732  11734  11735  11736     1  180.0000771  1.0460000  2
  11732  11734  11735  11736     1  0.0000000  0.7531200  3
  11732  11734  11735  11754     1  0.0000000  0.6508444  3
  11732  11731  11742  11747     1  0.0000000  0.6508444  3
  11732  11731  11749  11736     1  180.0000771  0.4184000  2
  11732  11731  11749  11736     1  0.0000000  1.6024720  3
  11734  11735  11736  11740     1  0.0000000  0.6508444  3
  11734  11735  11736  11749     1  0.0000000  0.6508444  3
  11734  11732  11731  11742     1  180.0000771  0.8368000  1
  11734  11732  11731  11742     1  180.0000771  1.0460000  2
  11734  11732  11731  11742     1  0.0000000  0.7531200  3
  11734  11732  11731  11749     1  0.0000000  0.6508444  3
  11735  11734  11732  11752     1  0.0000000  0.6508444  3
  11736  11749  11731  11742     1  180.0000771  0.4184000  2
  11736  11749  11731  11742     1  0.0000000  1.6024720  3
  11736  11735  11734  11741     1  0.0000000  0.6508444  3
  11740  11736  11735  11754     1  0.0000000  0.6508444  3
  11741  11734  11735  11754     1  0.0000000  0.6508444  3
  11741  11734  11732  11752     1  0.0000000  4.9162000  2
  11741  11734  11732  11752     1  0.0000000  0.6024960  3
  11742  11731  11732  11752     1  0.0000000  0.6508444  3
  11747  11742  11731  11749     1  0.0000000  4.9162000  2
  11747  11742  11731  11749     1  0.0000000  0.6024960  3
  11749  11736  11735  11754     1  0.0000000  0.6508444  3
  11749  11731  11732  11752     1  0.0000000  4.9162000  2
  11749  11731  11732  11752     1  0.0000000  0.6024960  3
  11755  11757  11759  11763     1  0.0000000  0.6508444  3
  11757  11759  11763  11764     1  180.0000771  2.0083200  2
  11757  11759  11763  11764     1  0.0000000  1.2552000  3
  11757  11759  11763  11765     1  180.0000771  2.0083200  2
  11757  11759  11763  11765     1  0.0000000  1.2552000  3
  11759  11763  11764  11775     1  180.0000771  2.0083200  2
  11759  11763  11764  11775     1  0.0000000  1.2552000  3
  11759  11763  11765  11767     1  180.0000771  2.0083200  2
  11759  11763  11765  11767     1  0.0000000  1.2552000  3
  11763  11764  11775  11778     1  0.0000000  0.6508444  3
  11763  11765  11767  11771     1  0.0000000  0.6508444  3
  11764  11763  11765  11767     1  180.0000771  2.0083200  2
  11764  11763  11765  11767     1  0.0000000  1.2552000  3
  11764  11775  11778  11779     1  180.0000771  0.0000000  2
  11764  11775  11778  11827     1  180.0000771  0.0000000  2
  11765  11763  11764  11775     1  180.0000771  2.0083200  2
  11765  11763  11764  11775     1  0.0000000  1.2552000  3
  11765  11767  11771  11772     1  180.0000771  0.0000000  2
  11765  11767  11771  11803     1  180.0000771  0.0000000  2
  11767  11771  11803  11784     1  180.0000771  6.0668000  2
  11767  11771  11803  11784     1  180.0000771  1.4644000  4
  11771  11803  11784  11783     1  0.0000000  1.2552000  3
  11771  11803  11784  11785     1  0.0000000  1.2552000  3
  11772  11771  11803  11784     1  180.0000771  6.0668000  2
  11772  11771  11803  11784     1  180.0000771  1.4644000  4
  11775  11778  11827  11808     1  180.0000771  6.0668000  2
  11775  11778  11827  11808     1  180.0000771  1.4644000  4
  11778  11827  11808  11807     1  0.0000000  1.2552000  3
  11778  11827  11808  11809     1  0.0000000  1.2552000  3
  11779  11778  11827  11808     1  180.0000771  6.0668000  2
  11779  11778  11827  11808     1  180.0000771  1.4644000  4
  11780  11781  11783  11784     1  180.0000771  0.8368000  1
  11780  11781  11783  11784     1  180.0000771  1.0460000  2
  11780  11781  11783  11784     1  0.0000000  0.7531200  3
  11780  11781  11783  11790     1  0.0000000  0.6508444  3
  11780  11798  11785  11784     1  180.0000771  0.4184000  2
  11780  11798  11785  11784     1  0.0000000  1.6024720  3
  11780  11798  11785  11789     1  0.0000000  1.6038667  3
  11781  11780  11791  11796     1  0.0000000  0.6508444  3
  11781  11780  11798  11785     1  180.0000771  0.4184000  2
  11781  11780  11798  11785     1  0.0000000  1.6024720  3
  11781  11783  11784  11785     1  180.0000771  0.8368000  1
  11781  11783  11784  11785     1  180.0000771  1.0460000  2
  11781  11783  11784  11785     1  0.0000000  0.7531200  3
  11781  11783  11784  11803     1  0.0000000  0.6508444  3
  11783  11781  11780  11791     1  180.0000771  0.8368000  1
  11783  11781  11780  11791     1  180.0000771  1.0460000  2
  11783  11781  11780  11791     1  0.0000000  0.7531200  3
  11783  11781  11780  11798     1  0.0000000  0.6508444  3
  11783  11784  11785  11789     1  0.0000000  0.6508444  3
  11783  11784  11785  11798     1  0.0000000  0.6508444  3
  11784  11783  11781  11801     1  0.0000000  0.6508444  3
  11785  11784  11783  11790     1  0.0000000  0.6508444  3
  11785  11798  11780  11791     1  180.0000771  0.4184000  2
  11785  11798  11780  11791     1  0.0000000  1.6024720  3
  11789  11785  11784  11803     1  0.0000000  0.6508444  3
  11790  11783  11781  11801     1  0.0000000  4.9162000  2
  11790  11783  11781  11801     1  0.0000000  0.6024960  3
  11790  11783  11784  11803     1  0.0000000  0.6508444  3
  11791  11780  11781  11801     1  0.0000000  0.6508444  3
  11796  11791  11780  11798     1  0.0000000  4.9162000  2
  11796  11791  11780  11798     1  0.0000000  0.6024960  3
  11798  11780  11781  11801     1  0.0000000  4.9162000  2
  11798  11780  11781  11801     1  0.0000000  0.6024960  3
  11798  11785  11784  11803     1  0.0000000  0.6508444  3
  11804  11805  11807  11808     1  180.0000771  0.8368000  1
  11804  11805  11807  11808     1  180.0000771  1.0460000  2
  11804  11805  11807  11808     1  0.0000000  0.7531200  3
  11804  11805  11807  11814     1  0.0000000  0.6508444  3
  11804  11822  11809  11808     1  180.0000771  0.4184000  2
  11804  11822  11809  11808     1  0.0000000  1.6024720  3
  11804  11822  11809  11813     1  0.0000000  1.6038667  3
  11805  11804  11815  11820     1  0.0000000  0.6508444  3
  11805  11804  11822  11809     1  180.0000771  0.4184000  2
  11805  11804  11822  11809     1  0.0000000  1.6024720  3
  11805  11807  11808  11809     1  180.0000771  0.8368000  1
  11805  11807  11808  11809     1  180.0000771  1.0460000  2
  11805  11807  11808  11809     1  0.0000000  0.7531200  3
  11805  11807  11808  11827     1  0.0000000  0.6508444  3
  11807  11805  11804  11815     1  180.0000771  0.8368000  1
  11807  11805  11804  11815     1  180.0000771  1.0460000  2
  11807  11805  11804  11815     1  0.0000000  0.7531200  3
  11807  11805  11804  11822     1  0.0000000  0.6508444  3
  11807  11808  11809  11813     1  0.0000000  0.6508444  3
  11807  11808  11809  11822     1  0.0000000  0.6508444  3
  11808  11807  11805  11825     1  0.0000000  0.6508444  3
  11809  11808  11807  11814     1  0.0000000  0.6508444  3
  11809  11822  11804  11815     1  180.0000771  0.4184000  2
  11809  11822  11804  11815     1  0.0000000  1.6024720  3
  11813  11809  11808  11827     1  0.0000000  0.6508444  3
  11814  11807  11805  11825     1  0.0000000  4.9162000  2
  11814  11807  11805  11825     1  0.0000000  0.6024960  3
  11814  11807  11808  11827     1  0.0000000  0.6508444  3
  11815  11804  11805  11825     1  0.0000000  0.6508444  3
  11820  11815  11804  11822     1  0.0000000  4.9162000  2
  11820  11815  11804  11822     1  0.0000000  0.6024960  3
  11822  11804  11805  11825     1  0.0000000  4.9162000  2
  11822  11804  11805  11825     1  0.0000000  0.6024960  3
  11822  11809  11808  11827     1  0.0000000  0.6508444  3
  11828  11830  11832  11836     1  0.0000000  0.6508444  3
  11830  11832  11836  11837     1  180.0000771  2.0083200  2
  11830  11832  11836  11837     1  0.0000000  1.2552000  3
  11830  11832  11836  11838     1  180.0000771  2.0083200  2
  11830  11832  11836  11838     1  0.0000000  1.2552000  3
  11832  11836  11837  11848     1  180.0000771  2.0083200  2
  11832  11836  11837  11848     1  0.0000000  1.2552000  3
  11832  11836  11838  11840     1  180.0000771  2.0083200  2
  11832  11836  11838  11840     1  0.0000000  1.2552000  3
  11836  11837  11848  11851     1  0.0000000  0.6508444  3
  11836  11838  11840  11844     1  0.0000000  0.6508444  3
  11837  11848  11851  11852     1  180.0000771  0.0000000  2
  11837  11848  11851  11900     1  180.0000771  0.0000000  2
  11837  11836  11838  11840     1  180.0000771  2.0083200  2
  11837  11836  11838  11840     1  0.0000000  1.2552000  3
  11838  11840  11844  11845     1  180.0000771  0.0000000  2
  11838  11840  11844  11876     1  180.0000771  0.0000000  2
  11838  11836  11837  11848     1  180.0000771  2.0083200  2
  11838  11836  11837  11848     1  0.0000000  1.2552000  3
  11840  11844  11876  11857     1  180.0000771  6.0668000  2
  11840  11844  11876  11857     1  180.0000771  1.4644000  4
  11844  11876  11857  11858     1  0.0000000  1.2552000  3
  11844  11876  11857  11856     1  0.0000000  1.2552000  3
  11845  11844  11876  11857     1  180.0000771  6.0668000  2
  11845  11844  11876  11857     1  180.0000771  1.4644000  4
  11848  11851  11900  11881     1  180.0000771  6.0668000  2
  11848  11851  11900  11881     1  180.0000771  1.4644000  4
  11851  11900  11881  11882     1  0.0000000  1.2552000  3
  11851  11900  11881  11880     1  0.0000000  1.2552000  3
  11852  11851  11900  11881     1  180.0000771  6.0668000  2
  11852  11851  11900  11881     1  180.0000771  1.4644000  4
  11853  11854  11856  11857     1  180.0000771  0.8368000  1
  11853  11854  11856  11857     1  180.0000771  1.0460000  2
  11853  11854  11856  11857     1  0.0000000  0.7531200  3
  11853  11854  11856  11863     1  0.0000000  0.6508444  3
  11853  11871  11858  11862     1  0.0000000  1.6038667  3
  11853  11871  11858  11857     1  180.0000771  0.4184000  2
  11853  11871  11858  11857     1  0.0000000  1.6024720  3
  11854  11856  11857  11858     1  180.0000771  0.8368000  1
  11854  11856  11857  11858     1  180.0000771  1.0460000  2
  11854  11856  11857  11858     1  0.0000000  0.7531200  3
  11854  11856  11857  11876     1  0.0000000  0.6508444  3
  11854  11853  11864  11869     1  0.0000000  0.6508444  3
  11854  11853  11871  11858     1  180.0000771  0.4184000  2
  11854  11853  11871  11858     1  0.0000000  1.6024720  3
  11856  11857  11858  11862     1  0.0000000  0.6508444  3
  11856  11857  11858  11871     1  0.0000000  0.6508444  3
  11856  11854  11853  11864     1  180.0000771  0.8368000  1
  11856  11854  11853  11864     1  180.0000771  1.0460000  2
  11856  11854  11853  11864     1  0.0000000  0.7531200  3
  11856  11854  11853  11871     1  0.0000000  0.6508444  3
  11857  11856  11854  11874     1  0.0000000  0.6508444  3
  11858  11871  11853  11864     1  180.0000771  0.4184000  2
  11858  11871  11853  11864     1  0.0000000  1.6024720  3
  11858  11857  11856  11863     1  0.0000000  0.6508444  3
  11862  11858  11857  11876     1  0.0000000  0.6508444  3
  11863  11856  11857  11876     1  0.0000000  0.6508444  3
  11863  11856  11854  11874     1  0.0000000  4.9162000  2
  11863  11856  11854  11874     1  0.0000000  0.6024960  3
  11864  11853  11854  11874     1  0.0000000  0.6508444  3
  11869  11864  11853  11871     1  0.0000000  4.9162000  2
  11869  11864  11853  11871     1  0.0000000  0.6024960  3
  11871  11858  11857  11876     1  0.0000000  0.6508444  3
  11871  11853  11854  11874     1  0.0000000  4.9162000  2
  11871  11853  11854  11874     1  0.0000000  0.6024960  3
  11877  11878  11880  11881     1  180.0000771  0.8368000  1
  11877  11878  11880  11881     1  180.0000771  1.0460000  2
  11877  11878  11880  11881     1  0.0000000  0.7531200  3
  11877  11878  11880  11887     1  0.0000000  0.6508444  3
  11877  11895  11882  11886     1  0.0000000  1.6038667  3
  11877  11895  11882  11881     1  180.0000771  0.4184000  2
  11877  11895  11882  11881     1  0.0000000  1.6024720  3
  11878  11880  11881  11882     1  180.0000771  0.8368000  1
  11878  11880  11881  11882     1  180.0000771  1.0460000  2
  11878  11880  11881  11882     1  0.0000000  0.7531200  3
  11878  11880  11881  11900     1  0.0000000  0.6508444  3
  11878  11877  11888  11893     1  0.0000000  0.6508444  3
  11878  11877  11895  11882     1  180.0000771  0.4184000  2
  11878  11877  11895  11882     1  0.0000000  1.6024720  3
  11880  11881  11882  11886     1  0.0000000  0.6508444  3
  11880  11881  11882  11895     1  0.0000000  0.6508444  3
  11880  11878  11877  11888     1  180.0000771  0.8368000  1
  11880  11878  11877  11888     1  180.0000771  1.0460000  2
  11880  11878  11877  11888     1  0.0000000  0.7531200  3
  11880  11878  11877  11895     1  0.0000000  0.6508444  3
  11881  11880  11878  11898     1  0.0000000  0.6508444  3
  11882  11895  11877  11888     1  180.0000771  0.4184000  2
  11882  11895  11877  11888     1  0.0000000  1.6024720  3
  11882  11881  11880  11887     1  0.0000000  0.6508444  3
  11886  11882  11881  11900     1  0.0000000  0.6508444  3
  11887  11880  11881  11900     1  0.0000000  0.6508444  3
  11887  11880  11878  11898     1  0.0000000  4.9162000  2
  11887  11880  11878  11898     1  0.0000000  0.6024960  3
  11888  11877  11878  11898     1  0.0000000  0.6508444  3
  11893  11888  11877  11895     1  0.0000000  4.9162000  2
  11893  11888  11877  11895     1  0.0000000  0.6024960  3
  11895  11882  11881  11900     1  0.0000000  0.6508444  3
  11895  11877  11878  11898     1  0.0000000  4.9162000  2
  11895  11877  11878  11898     1  0.0000000  0.6024960  3
  11901  11903  11905  11909     1  0.0000000  0.6508444  3
  11903  11905  11909  11910     1  180.0000771  2.0083200  2
  11903  11905  11909  11910     1  0.0000000  1.2552000  3
  11903  11905  11909  11911     1  180.0000771  2.0083200  2
  11903  11905  11909  11911     1  0.0000000  1.2552000  3
  11905  11909  11910  11921     1  180.0000771  2.0083200  2
  11905  11909  11910  11921     1  0.0000000  1.2552000  3
  11905  11909  11911  11913     1  180.0000771  2.0083200  2
  11905  11909  11911  11913     1  0.0000000  1.2552000  3
  11909  11910  11921  11924     1  0.0000000  0.6508444  3
  11909  11911  11913  11917     1  0.0000000  0.6508444  3
  11910  11909  11911  11913     1  180.0000771  2.0083200  2
  11910  11909  11911  11913     1  0.0000000  1.2552000  3
  11910  11921  11924  11925     1  180.0000771  0.0000000  2
  11910  11921  11924  11973     1  180.0000771  0.0000000  2
  11911  11909  11910  11921     1  180.0000771  2.0083200  2
  11911  11909  11910  11921     1  0.0000000  1.2552000  3
  11911  11913  11917  11918     1  180.0000771  0.0000000  2
  11911  11913  11917  11949     1  180.0000771  0.0000000  2
  11913  11917  11949  11930     1  180.0000771  6.0668000  2
  11913  11917  11949  11930     1  180.0000771  1.4644000  4
  11917  11949  11930  11929     1  0.0000000  1.2552000  3
  11917  11949  11930  11931     1  0.0000000  1.2552000  3
  11918  11917  11949  11930     1  180.0000771  6.0668000  2
  11918  11917  11949  11930     1  180.0000771  1.4644000  4
  11921  11924  11973  11954     1  180.0000771  6.0668000  2
  11921  11924  11973  11954     1  180.0000771  1.4644000  4
  11924  11973  11954  11953     1  0.0000000  1.2552000  3
  11924  11973  11954  11955     1  0.0000000  1.2552000  3
  11925  11924  11973  11954     1  180.0000771  6.0668000  2
  11925  11924  11973  11954     1  180.0000771  1.4644000  4
  11926  11927  11929  11930     1  180.0000771  0.8368000  1
  11926  11927  11929  11930     1  180.0000771  1.0460000  2
  11926  11927  11929  11930     1  0.0000000  0.7531200  3
  11926  11927  11929  11936     1  0.0000000  0.6508444  3
  11926  11944  11931  11930     1  180.0000771  0.4184000  2
  11926  11944  11931  11930     1  0.0000000  1.6024720  3
  11926  11944  11931  11935     1  0.0000000  1.6038667  3
  11927  11926  11937  11942     1  0.0000000  0.6508444  3
  11927  11926  11944  11931     1  180.0000771  0.4184000  2
  11927  11926  11944  11931     1  0.0000000  1.6024720  3
  11927  11929  11930  11931     1  180.0000771  0.8368000  1
  11927  11929  11930  11931     1  180.0000771  1.0460000  2
  11927  11929  11930  11931     1  0.0000000  0.7531200  3
  11927  11929  11930  11949     1  0.0000000  0.6508444  3
  11929  11927  11926  11937     1  180.0000771  0.8368000  1
  11929  11927  11926  11937     1  180.0000771  1.0460000  2
  11929  11927  11926  11937     1  0.0000000  0.7531200  3
  11929  11927  11926  11944     1  0.0000000  0.6508444  3
  11929  11930  11931  11935     1  0.0000000  0.6508444  3
  11929  11930  11931  11944     1  0.0000000  0.6508444  3
  11930  11929  11927  11947     1  0.0000000  0.6508444  3
  11931  11930  11929  11936     1  0.0000000  0.6508444  3
  11931  11944  11926  11937     1  180.0000771  0.4184000  2
  11931  11944  11926  11937     1  0.0000000  1.6024720  3
  11935  11931  11930  11949     1  0.0000000  0.6508444  3
  11936  11929  11927  11947     1  0.0000000  4.9162000  2
  11936  11929  11927  11947     1  0.0000000  0.6024960  3
  11936  11929  11930  11949     1  0.0000000  0.6508444  3
  11937  11926  11927  11947     1  0.0000000  0.6508444  3
  11942  11937  11926  11944     1  0.0000000  4.9162000  2
  11942  11937  11926  11944     1  0.0000000  0.6024960  3
  11944  11926  11927  11947     1  0.0000000  4.9162000  2
  11944  11926  11927  11947     1  0.0000000  0.6024960  3
  11944  11931  11930  11949     1  0.0000000  0.6508444  3
  11950  11951  11953  11954     1  180.0000771  0.8368000  1
  11950  11951  11953  11954     1  180.0000771  1.0460000  2
  11950  11951  11953  11954     1  0.0000000  0.7531200  3
  11950  11951  11953  11960     1  0.0000000  0.6508444  3
  11950  11968  11955  11954     1  180.0000771  0.4184000  2
  11950  11968  11955  11954     1  0.0000000  1.6024720  3
  11950  11968  11955  11959     1  0.0000000  1.6038667  3
  11951  11950  11961  11966     1  0.0000000  0.6508444  3
  11951  11950  11968  11955     1  180.0000771  0.4184000  2
  11951  11950  11968  11955     1  0.0000000  1.6024720  3
  11951  11953  11954  11955     1  180.0000771  0.8368000  1
  11951  11953  11954  11955     1  180.0000771  1.0460000  2
  11951  11953  11954  11955     1  0.0000000  0.7531200  3
  11951  11953  11954  11973     1  0.0000000  0.6508444  3
  11953  11951  11950  11961     1  180.0000771  0.8368000  1
  11953  11951  11950  11961     1  180.0000771  1.0460000  2
  11953  11951  11950  11961     1  0.0000000  0.7531200  3
  11953  11951  11950  11968     1  0.0000000  0.6508444  3
  11953  11954  11955  11959     1  0.0000000  0.6508444  3
  11953  11954  11955  11968     1  0.0000000  0.6508444  3
  11954  11953  11951  11971     1  0.0000000  0.6508444  3
  11955  11954  11953  11960     1  0.0000000  0.6508444  3
  11955  11968  11950  11961     1  180.0000771  0.4184000  2
  11955  11968  11950  11961     1  0.0000000  1.6024720  3
  11959  11955  11954  11973     1  0.0000000  0.6508444  3
  11960  11953  11951  11971     1  0.0000000  4.9162000  2
  11960  11953  11951  11971     1  0.0000000  0.6024960  3
  11960  11953  11954  11973     1  0.0000000  0.6508444  3
  11961  11950  11951  11971     1  0.0000000  0.6508444  3
  11966  11961  11950  11968     1  0.0000000  4.9162000  2
  11966  11961  11950  11968     1  0.0000000  0.6024960  3
  11968  11950  11951  11971     1  0.0000000  4.9162000  2
  11968  11950  11951  11971     1  0.0000000  0.6024960  3
  11968  11955  11954  11973     1  0.0000000  0.6508444  3
  11974  11976  11978  11982     1  0.0000000  0.6508444  3
  11976  11978  11982  11983     1  180.0000771  2.0083200  2
  11976  11978  11982  11983     1  0.0000000  1.2552000  3
  11976  11978  11982  11984     1  180.0000771  2.0083200  2
  11976  11978  11982  11984     1  0.0000000  1.2552000  3
  11978  11982  11983  11994     1  180.0000771  2.0083200  2
  11978  11982  11983  11994     1  0.0000000  1.2552000  3
  11978  11982  11984  11986     1  180.0000771  2.0083200  2
  11978  11982  11984  11986     1  0.0000000  1.2552000  3
  11982  11983  11994  11997     1  0.0000000  0.6508444  3
  11982  11984  11986  11990     1  0.0000000  0.6508444  3
  11983  11994  11997  11998     1  180.0000771  0.0000000  2
  11983  11994  11997  12046     1  180.0000771  0.0000000  2
  11983  11982  11984  11986     1  180.0000771  2.0083200  2
  11983  11982  11984  11986     1  0.0000000  1.2552000  3
  11984  11986  11990  11991     1  180.0000771  0.0000000  2
  11984  11986  11990  12022     1  180.0000771  0.0000000  2
  11984  11982  11983  11994     1  180.0000771  2.0083200  2
  11984  11982  11983  11994     1  0.0000000  1.2552000  3
  11986  11990  12022  12003     1  180.0000771  6.0668000  2
  11986  11990  12022  12003     1  180.0000771  1.4644000  4
  11990  12022  12003  12004     1  0.0000000  1.2552000  3
  11990  12022  12003  12002     1  0.0000000  1.2552000  3
  11991  11990  12022  12003     1  180.0000771  6.0668000  2
  11991  11990  12022  12003     1  180.0000771  1.4644000  4
  11994  11997  12046  12027     1  180.0000771  6.0668000  2
  11994  11997  12046  12027     1  180.0000771  1.4644000  4
  11997  12046  12027  12028     1  0.0000000  1.2552000  3
  11997  12046  12027  12026     1  0.0000000  1.2552000  3
  11998  11997  12046  12027     1  180.0000771  6.0668000  2
  11998  11997  12046  12027     1  180.0000771  1.4644000  4
  11999  12000  12002  12003     1  180.0000771  0.8368000  1
  11999  12000  12002  12003     1  180.0000771  1.0460000  2
  11999  12000  12002  12003     1  0.0000000  0.7531200  3
  11999  12000  12002  12009     1  0.0000000  0.6508444  3
  11999  12017  12004  12008     1  0.0000000  1.6038667  3
  11999  12017  12004  12003     1  180.0000771  0.4184000  2
  11999  12017  12004  12003     1  0.0000000  1.6024720  3
  12000  12002  12003  12004     1  180.0000771  0.8368000  1
  12000  12002  12003  12004     1  180.0000771  1.0460000  2
  12000  12002  12003  12004     1  0.0000000  0.7531200  3
  12000  12002  12003  12022     1  0.0000000  0.6508444  3
  12000  11999  12010  12015     1  0.0000000  0.6508444  3
  12000  11999  12017  12004     1  180.0000771  0.4184000  2
  12000  11999  12017  12004     1  0.0000000  1.6024720  3
  12002  12003  12004  12008     1  0.0000000  0.6508444  3
  12002  12003  12004  12017     1  0.0000000  0.6508444  3
  12002  12000  11999  12010     1  180.0000771  0.8368000  1
  12002  12000  11999  12010     1  180.0000771  1.0460000  2
  12002  12000  11999  12010     1  0.0000000  0.7531200  3
  12002  12000  11999  12017     1  0.0000000  0.6508444  3
  12003  12002  12000  12020     1  0.0000000  0.6508444  3
  12004  12017  11999  12010     1  180.0000771  0.4184000  2
  12004  12017  11999  12010     1  0.0000000  1.6024720  3
  12004  12003  12002  12009     1  0.0000000  0.6508444  3
  12008  12004  12003  12022     1  0.0000000  0.6508444  3
  12009  12002  12003  12022     1  0.0000000  0.6508444  3
  12009  12002  12000  12020     1  0.0000000  4.9162000  2
  12009  12002  12000  12020     1  0.0000000  0.6024960  3
  12010  11999  12000  12020     1  0.0000000  0.6508444  3
  12015  12010  11999  12017     1  0.0000000  4.9162000  2
  12015  12010  11999  12017     1  0.0000000  0.6024960  3
  12017  12004  12003  12022     1  0.0000000  0.6508444  3
  12017  11999  12000  12020     1  0.0000000  4.9162000  2
  12017  11999  12000  12020     1  0.0000000  0.6024960  3
  12023  12024  12026  12027     1  180.0000771  0.8368000  1
  12023  12024  12026  12027     1  180.0000771  1.0460000  2
  12023  12024  12026  12027     1  0.0000000  0.7531200  3
  12023  12024  12026  12033     1  0.0000000  0.6508444  3
  12023  12041  12028  12032     1  0.0000000  1.6038667  3
  12023  12041  12028  12027     1  180.0000771  0.4184000  2
  12023  12041  12028  12027     1  0.0000000  1.6024720  3
  12024  12026  12027  12028     1  180.0000771  0.8368000  1
  12024  12026  12027  12028     1  180.0000771  1.0460000  2
  12024  12026  12027  12028     1  0.0000000  0.7531200  3
  12024  12026  12027  12046     1  0.0000000  0.6508444  3
  12024  12023  12034  12039     1  0.0000000  0.6508444  3
  12024  12023  12041  12028     1  180.0000771  0.4184000  2
  12024  12023  12041  12028     1  0.0000000  1.6024720  3
  12026  12027  12028  12032     1  0.0000000  0.6508444  3
  12026  12027  12028  12041     1  0.0000000  0.6508444  3
  12026  12024  12023  12034     1  180.0000771  0.8368000  1
  12026  12024  12023  12034     1  180.0000771  1.0460000  2
  12026  12024  12023  12034     1  0.0000000  0.7531200  3
  12026  12024  12023  12041     1  0.0000000  0.6508444  3
  12027  12026  12024  12044     1  0.0000000  0.6508444  3
  12028  12041  12023  12034     1  180.0000771  0.4184000  2
  12028  12041  12023  12034     1  0.0000000  1.6024720  3
  12028  12027  12026  12033     1  0.0000000  0.6508444  3
  12032  12028  12027  12046     1  0.0000000  0.6508444  3
  12033  12026  12027  12046     1  0.0000000  0.6508444  3
  12033  12026  12024  12044     1  0.0000000  4.9162000  2
  12033  12026  12024  12044     1  0.0000000  0.6024960  3
  12034  12023  12024  12044     1  0.0000000  0.6508444  3
  12039  12034  12023  12041     1  0.0000000  4.9162000  2
  12039  12034  12023  12041     1  0.0000000  0.6024960  3
  12041  12028  12027  12046     1  0.0000000  0.6508444  3
  12041  12023  12024  12044     1  0.0000000  4.9162000  2
  12041  12023  12024  12044     1  0.0000000  0.6024960  3
  12047  12049  12051  12055     1  0.0000000  0.6508444  3
  12049  12051  12055  12056     1  180.0000771  2.0083200  2
  12049  12051  12055  12056     1  0.0000000  1.2552000  3
  12049  12051  12055  12057     1  180.0000771  2.0083200  2
  12049  12051  12055  12057     1  0.0000000  1.2552000  3
  12051  12055  12056  12067     1  180.0000771  2.0083200  2
  12051  12055  12056  12067     1  0.0000000  1.2552000  3
  12051  12055  12057  12059     1  180.0000771  2.0083200  2
  12051  12055  12057  12059     1  0.0000000  1.2552000  3
  12055  12056  12067  12070     1  0.0000000  0.6508444  3
  12055  12057  12059  12063     1  0.0000000  0.6508444  3
  12056  12055  12057  12059     1  180.0000771  2.0083200  2
  12056  12055  12057  12059     1  0.0000000  1.2552000  3
  12056  12067  12070  12071     1  180.0000771  0.0000000  2
  12056  12067  12070  12119     1  180.0000771  0.0000000  2
  12057  12055  12056  12067     1  180.0000771  2.0083200  2
  12057  12055  12056  12067     1  0.0000000  1.2552000  3
  12057  12059  12063  12064     1  180.0000771  0.0000000  2
  12057  12059  12063  12095     1  180.0000771  0.0000000  2
  12059  12063  12095  12076     1  180.0000771  6.0668000  2
  12059  12063  12095  12076     1  180.0000771  1.4644000  4
  12063  12095  12076  12075     1  0.0000000  1.2552000  3
  12063  12095  12076  12077     1  0.0000000  1.2552000  3
  12064  12063  12095  12076     1  180.0000771  6.0668000  2
  12064  12063  12095  12076     1  180.0000771  1.4644000  4
  12067  12070  12119  12100     1  180.0000771  6.0668000  2
  12067  12070  12119  12100     1  180.0000771  1.4644000  4
  12070  12119  12100  12099     1  0.0000000  1.2552000  3
  12070  12119  12100  12101     1  0.0000000  1.2552000  3
  12071  12070  12119  12100     1  180.0000771  6.0668000  2
  12071  12070  12119  12100     1  180.0000771  1.4644000  4
  12072  12073  12075  12076     1  180.0000771  0.8368000  1
  12072  12073  12075  12076     1  180.0000771  1.0460000  2
  12072  12073  12075  12076     1  0.0000000  0.7531200  3
  12072  12073  12075  12082     1  0.0000000  0.6508444  3
  12072  12090  12077  12076     1  180.0000771  0.4184000  2
  12072  12090  12077  12076     1  0.0000000  1.6024720  3
  12072  12090  12077  12081     1  0.0000000  1.6038667  3
  12073  12072  12083  12088     1  0.0000000  0.6508444  3
  12073  12072  12090  12077     1  180.0000771  0.4184000  2
  12073  12072  12090  12077     1  0.0000000  1.6024720  3
  12073  12075  12076  12077     1  180.0000771  0.8368000  1
  12073  12075  12076  12077     1  180.0000771  1.0460000  2
  12073  12075  12076  12077     1  0.0000000  0.7531200  3
  12073  12075  12076  12095     1  0.0000000  0.6508444  3
  12075  12073  12072  12083     1  180.0000771  0.8368000  1
  12075  12073  12072  12083     1  180.0000771  1.0460000  2
  12075  12073  12072  12083     1  0.0000000  0.7531200  3
  12075  12073  12072  12090     1  0.0000000  0.6508444  3
  12075  12076  12077  12081     1  0.0000000  0.6508444  3
  12075  12076  12077  12090     1  0.0000000  0.6508444  3
  12076  12075  12073  12093     1  0.0000000  0.6508444  3
  12077  12076  12075  12082     1  0.0000000  0.6508444  3
  12077  12090  12072  12083     1  180.0000771  0.4184000  2
  12077  12090  12072  12083     1  0.0000000  1.6024720  3
  12081  12077  12076  12095     1  0.0000000  0.6508444  3
  12082  12075  12073  12093     1  0.0000000  4.9162000  2
  12082  12075  12073  12093     1  0.0000000  0.6024960  3
  12082  12075  12076  12095     1  0.0000000  0.6508444  3
  12083  12072  12073  12093     1  0.0000000  0.6508444  3
  12088  12083  12072  12090     1  0.0000000  4.9162000  2
  12088  12083  12072  12090     1  0.0000000  0.6024960  3
  12090  12072  12073  12093     1  0.0000000  4.9162000  2
  12090  12072  12073  12093     1  0.0000000  0.6024960  3
  12090  12077  12076  12095     1  0.0000000  0.6508444  3
  12096  12097  12099  12100     1  180.0000771  0.8368000  1
  12096  12097  12099  12100     1  180.0000771  1.0460000  2
  12096  12097  12099  12100     1  0.0000000  0.7531200  3
  12096  12097  12099  12106     1  0.0000000  0.6508444  3
  12096  12114  12101  12100     1  180.0000771  0.4184000  2
  12096  12114  12101  12100     1  0.0000000  1.6024720  3
  12096  12114  12101  12105     1  0.0000000  1.6038667  3
  12097  12096  12107  12112     1  0.0000000  0.6508444  3
  12097  12096  12114  12101     1  180.0000771  0.4184000  2
  12097  12096  12114  12101     1  0.0000000  1.6024720  3
  12097  12099  12100  12101     1  180.0000771  0.8368000  1
  12097  12099  12100  12101     1  180.0000771  1.0460000  2
  12097  12099  12100  12101     1  0.0000000  0.7531200  3
  12097  12099  12100  12119     1  0.0000000  0.6508444  3
  12099  12097  12096  12107     1  180.0000771  0.8368000  1
  12099  12097  12096  12107     1  180.0000771  1.0460000  2
  12099  12097  12096  12107     1  0.0000000  0.7531200  3
  12099  12097  12096  12114     1  0.0000000  0.6508444  3
  12099  12100  12101  12105     1  0.0000000  0.6508444  3
  12099  12100  12101  12114     1  0.0000000  0.6508444  3
  12100  12099  12097  12117     1  0.0000000  0.6508444  3
  12101  12100  12099  12106     1  0.0000000  0.6508444  3
  12101  12114  12096  12107     1  180.0000771  0.4184000  2
  12101  12114  12096  12107     1  0.0000000  1.6024720  3
  12105  12101  12100  12119     1  0.0000000  0.6508444  3
  12106  12099  12097  12117     1  0.0000000  4.9162000  2
  12106  12099  12097  12117     1  0.0000000  0.6024960  3
  12106  12099  12100  12119     1  0.0000000  0.6508444  3
  12107  12096  12097  12117     1  0.0000000  0.6508444  3
  12112  12107  12096  12114     1  0.0000000  4.9162000  2
  12112  12107  12096  12114     1  0.0000000  0.6024960  3
  12114  12096  12097  12117     1  0.0000000  4.9162000  2
  12114  12096  12097  12117     1  0.0000000  0.6024960  3
  12114  12101  12100  12119     1  0.0000000  0.6508444  3
  12120  12122  12124  12128     1  0.0000000  0.6508444  3
  12122  12124  12128  12129     1  180.0000771  2.0083200  2
  12122  12124  12128  12129     1  0.0000000  1.2552000  3
  12122  12124  12128  12130     1  180.0000771  2.0083200  2
  12122  12124  12128  12130     1  0.0000000  1.2552000  3
  12124  12128  12129  12140     1  180.0000771  2.0083200  2
  12124  12128  12129  12140     1  0.0000000  1.2552000  3
  12124  12128  12130  12132     1  180.0000771  2.0083200  2
  12124  12128  12130  12132     1  0.0000000  1.2552000  3
  12128  12129  12140  12143     1  0.0000000  0.6508444  3
  12128  12130  12132  12136     1  0.0000000  0.6508444  3
  12129  12140  12143  12144     1  180.0000771  0.0000000  2
  12129  12140  12143  12192     1  180.0000771  0.0000000  2
  12129  12128  12130  12132     1  180.0000771  2.0083200  2
  12129  12128  12130  12132     1  0.0000000  1.2552000  3
  12130  12132  12136  12137     1  180.0000771  0.0000000  2
  12130  12132  12136  12168     1  180.0000771  0.0000000  2
  12130  12128  12129  12140     1  180.0000771  2.0083200  2
  12130  12128  12129  12140     1  0.0000000  1.2552000  3
  12132  12136  12168  12149     1  180.0000771  6.0668000  2
  12132  12136  12168  12149     1  180.0000771  1.4644000  4
  12136  12168  12149  12150     1  0.0000000  1.2552000  3
  12136  12168  12149  12148     1  0.0000000  1.2552000  3
  12137  12136  12168  12149     1  180.0000771  6.0668000  2
  12137  12136  12168  12149     1  180.0000771  1.4644000  4
  12140  12143  12192  12173     1  180.0000771  6.0668000  2
  12140  12143  12192  12173     1  180.0000771  1.4644000  4
  12143  12192  12173  12174     1  0.0000000  1.2552000  3
  12143  12192  12173  12172     1  0.0000000  1.2552000  3
  12144  12143  12192  12173     1  180.0000771  6.0668000  2
  12144  12143  12192  12173     1  180.0000771  1.4644000  4
  12145  12146  12148  12149     1  180.0000771  0.8368000  1
  12145  12146  12148  12149     1  180.0000771  1.0460000  2
  12145  12146  12148  12149     1  0.0000000  0.7531200  3
  12145  12146  12148  12155     1  0.0000000  0.6508444  3
  12145  12163  12150  12154     1  0.0000000  1.6038667  3
  12145  12163  12150  12149     1  180.0000771  0.4184000  2
  12145  12163  12150  12149     1  0.0000000  1.6024720  3
  12146  12148  12149  12150     1  180.0000771  0.8368000  1
  12146  12148  12149  12150     1  180.0000771  1.0460000  2
  12146  12148  12149  12150     1  0.0000000  0.7531200  3
  12146  12148  12149  12168     1  0.0000000  0.6508444  3
  12146  12145  12156  12161     1  0.0000000  0.6508444  3
  12146  12145  12163  12150     1  180.0000771  0.4184000  2
  12146  12145  12163  12150     1  0.0000000  1.6024720  3
  12148  12149  12150  12154     1  0.0000000  0.6508444  3
  12148  12149  12150  12163     1  0.0000000  0.6508444  3
  12148  12146  12145  12156     1  180.0000771  0.8368000  1
  12148  12146  12145  12156     1  180.0000771  1.0460000  2
  12148  12146  12145  12156     1  0.0000000  0.7531200  3
  12148  12146  12145  12163     1  0.0000000  0.6508444  3
  12149  12148  12146  12166     1  0.0000000  0.6508444  3
  12150  12163  12145  12156     1  180.0000771  0.4184000  2
  12150  12163  12145  12156     1  0.0000000  1.6024720  3
  12150  12149  12148  12155     1  0.0000000  0.6508444  3
  12154  12150  12149  12168     1  0.0000000  0.6508444  3
  12155  12148  12149  12168     1  0.0000000  0.6508444  3
  12155  12148  12146  12166     1  0.0000000  4.9162000  2
  12155  12148  12146  12166     1  0.0000000  0.6024960  3
  12156  12145  12146  12166     1  0.0000000  0.6508444  3
  12161  12156  12145  12163     1  0.0000000  4.9162000  2
  12161  12156  12145  12163     1  0.0000000  0.6024960  3
  12163  12150  12149  12168     1  0.0000000  0.6508444  3
  12163  12145  12146  12166     1  0.0000000  4.9162000  2
  12163  12145  12146  12166     1  0.0000000  0.6024960  3
  12169  12170  12172  12173     1  180.0000771  0.8368000  1
  12169  12170  12172  12173     1  180.0000771  1.0460000  2
  12169  12170  12172  12173     1  0.0000000  0.7531200  3
  12169  12170  12172  12179     1  0.0000000  0.6508444  3
  12169  12187  12174  12178     1  0.0000000  1.6038667  3
  12169  12187  12174  12173     1  180.0000771  0.4184000  2
  12169  12187  12174  12173     1  0.0000000  1.6024720  3
  12170  12172  12173  12174     1  180.0000771  0.8368000  1
  12170  12172  12173  12174     1  180.0000771  1.0460000  2
  12170  12172  12173  12174     1  0.0000000  0.7531200  3
  12170  12172  12173  12192     1  0.0000000  0.6508444  3
  12170  12169  12180  12185     1  0.0000000  0.6508444  3
  12170  12169  12187  12174     1  180.0000771  0.4184000  2
  12170  12169  12187  12174     1  0.0000000  1.6024720  3
  12172  12173  12174  12178     1  0.0000000  0.6508444  3
  12172  12173  12174  12187     1  0.0000000  0.6508444  3
  12172  12170  12169  12180     1  180.0000771  0.8368000  1
  12172  12170  12169  12180     1  180.0000771  1.0460000  2
  12172  12170  12169  12180     1  0.0000000  0.7531200  3
  12172  12170  12169  12187     1  0.0000000  0.6508444  3
  12173  12172  12170  12190     1  0.0000000  0.6508444  3
  12174  12187  12169  12180     1  180.0000771  0.4184000  2
  12174  12187  12169  12180     1  0.0000000  1.6024720  3
  12174  12173  12172  12179     1  0.0000000  0.6508444  3
  12178  12174  12173  12192     1  0.0000000  0.6508444  3
  12179  12172  12173  12192     1  0.0000000  0.6508444  3
  12179  12172  12170  12190     1  0.0000000  4.9162000  2
  12179  12172  12170  12190     1  0.0000000  0.6024960  3
  12180  12169  12170  12190     1  0.0000000  0.6508444  3
  12185  12180  12169  12187     1  0.0000000  4.9162000  2
  12185  12180  12169  12187     1  0.0000000  0.6024960  3
  12187  12174  12173  12192     1  0.0000000  0.6508444  3
  12187  12169  12170  12190     1  0.0000000  4.9162000  2
  12187  12169  12170  12190     1  0.0000000  0.6024960  3
  12193  12195  12197  12201     1  0.0000000  0.6508444  3
  12195  12197  12201  12202     1  180.0000771  2.0083200  2
  12195  12197  12201  12202     1  0.0000000  1.2552000  3
  12195  12197  12201  12203     1  180.0000771  2.0083200  2
  12195  12197  12201  12203     1  0.0000000  1.2552000  3
  12197  12201  12202  12213     1  180.0000771  2.0083200  2
  12197  12201  12202  12213     1  0.0000000  1.2552000  3
  12197  12201  12203  12205     1  180.0000771  2.0083200  2
  12197  12201  12203  12205     1  0.0000000  1.2552000  3
  12201  12202  12213  12216     1  0.0000000  0.6508444  3
  12201  12203  12205  12209     1  0.0000000  0.6508444  3
  12202  12201  12203  12205     1  180.0000771  2.0083200  2
  12202  12201  12203  12205     1  0.0000000  1.2552000  3
  12202  12213  12216  12217     1  180.0000771  0.0000000  2
  12202  12213  12216  12265     1  180.0000771  0.0000000  2
  12203  12201  12202  12213     1  180.0000771  2.0083200  2
  12203  12201  12202  12213     1  0.0000000  1.2552000  3
  12203  12205  12209  12210     1  180.0000771  0.0000000  2
  12203  12205  12209  12241     1  180.0000771  0.0000000  2
  12205  12209  12241  12222     1  180.0000771  6.0668000  2
  12205  12209  12241  12222     1  180.0000771  1.4644000  4
  12209  12241  12222  12221     1  0.0000000  1.2552000  3
  12209  12241  12222  12223     1  0.0000000  1.2552000  3
  12210  12209  12241  12222     1  180.0000771  6.0668000  2
  12210  12209  12241  12222     1  180.0000771  1.4644000  4
  12213  12216  12265  12246     1  180.0000771  6.0668000  2
  12213  12216  12265  12246     1  180.0000771  1.4644000  4
  12216  12265  12246  12245     1  0.0000000  1.2552000  3
  12216  12265  12246  12247     1  0.0000000  1.2552000  3
  12217  12216  12265  12246     1  180.0000771  6.0668000  2
  12217  12216  12265  12246     1  180.0000771  1.4644000  4
  12218  12219  12221  12222     1  180.0000771  0.8368000  1
  12218  12219  12221  12222     1  180.0000771  1.0460000  2
  12218  12219  12221  12222     1  0.0000000  0.7531200  3
  12218  12219  12221  12228     1  0.0000000  0.6508444  3
  12218  12236  12223  12222     1  180.0000771  0.4184000  2
  12218  12236  12223  12222     1  0.0000000  1.6024720  3
  12218  12236  12223  12227     1  0.0000000  1.6038667  3
  12219  12218  12229  12234     1  0.0000000  0.6508444  3
  12219  12218  12236  12223     1  180.0000771  0.4184000  2
  12219  12218  12236  12223     1  0.0000000  1.6024720  3
  12219  12221  12222  12223     1  180.0000771  0.8368000  1
  12219  12221  12222  12223     1  180.0000771  1.0460000  2
  12219  12221  12222  12223     1  0.0000000  0.7531200  3
  12219  12221  12222  12241     1  0.0000000  0.6508444  3
  12221  12219  12218  12229     1  180.0000771  0.8368000  1
  12221  12219  12218  12229     1  180.0000771  1.0460000  2
  12221  12219  12218  12229     1  0.0000000  0.7531200  3
  12221  12219  12218  12236     1  0.0000000  0.6508444  3
  12221  12222  12223  12227     1  0.0000000  0.6508444  3
  12221  12222  12223  12236     1  0.0000000  0.6508444  3
  12222  12221  12219  12239     1  0.0000000  0.6508444  3
  12223  12222  12221  12228     1  0.0000000  0.6508444  3
  12223  12236  12218  12229     1  180.0000771  0.4184000  2
  12223  12236  12218  12229     1  0.0000000  1.6024720  3
  12227  12223  12222  12241     1  0.0000000  0.6508444  3
  12228  12221  12219  12239     1  0.0000000  4.9162000  2
  12228  12221  12219  12239     1  0.0000000  0.6024960  3
  12228  12221  12222  12241     1  0.0000000  0.6508444  3
  12229  12218  12219  12239     1  0.0000000  0.6508444  3
  12234  12229  12218  12236     1  0.0000000  4.9162000  2
  12234  12229  12218  12236     1  0.0000000  0.6024960  3
  12236  12218  12219  12239     1  0.0000000  4.9162000  2
  12236  12218  12219  12239     1  0.0000000  0.6024960  3
  12236  12223  12222  12241     1  0.0000000  0.6508444  3
  12242  12243  12245  12246     1  180.0000771  0.8368000  1
  12242  12243  12245  12246     1  180.0000771  1.0460000  2
  12242  12243  12245  12246     1  0.0000000  0.7531200  3
  12242  12243  12245  12252     1  0.0000000  0.6508444  3
  12242  12260  12247  12246     1  180.0000771  0.4184000  2
  12242  12260  12247  12246     1  0.0000000  1.6024720  3
  12242  12260  12247  12251     1  0.0000000  1.6038667  3
  12243  12242  12253  12258     1  0.0000000  0.6508444  3
  12243  12242  12260  12247     1  180.0000771  0.4184000  2
  12243  12242  12260  12247     1  0.0000000  1.6024720  3
  12243  12245  12246  12247     1  180.0000771  0.8368000  1
  12243  12245  12246  12247     1  180.0000771  1.0460000  2
  12243  12245  12246  12247     1  0.0000000  0.7531200  3
  12243  12245  12246  12265     1  0.0000000  0.6508444  3
  12245  12243  12242  12253     1  180.0000771  0.8368000  1
  12245  12243  12242  12253     1  180.0000771  1.0460000  2
  12245  12243  12242  12253     1  0.0000000  0.7531200  3
  12245  12243  12242  12260     1  0.0000000  0.6508444  3
  12245  12246  12247  12251     1  0.0000000  0.6508444  3
  12245  12246  12247  12260     1  0.0000000  0.6508444  3
  12246  12245  12243  12263     1  0.0000000  0.6508444  3
  12247  12246  12245  12252     1  0.0000000  0.6508444  3
  12247  12260  12242  12253     1  180.0000771  0.4184000  2
  12247  12260  12242  12253     1  0.0000000  1.6024720  3
  12251  12247  12246  12265     1  0.0000000  0.6508444  3
  12252  12245  12243  12263     1  0.0000000  4.9162000  2
  12252  12245  12243  12263     1  0.0000000  0.6024960  3
  12252  12245  12246  12265     1  0.0000000  0.6508444  3
  12253  12242  12243  12263     1  0.0000000  0.6508444  3
  12258  12253  12242  12260     1  0.0000000  4.9162000  2
  12258  12253  12242  12260     1  0.0000000  0.6024960  3
  12260  12242  12243  12263     1  0.0000000  4.9162000  2
  12260  12242  12243  12263     1  0.0000000  0.6024960  3
  12260  12247  12246  12265     1  0.0000000  0.6508444  3
  12266  12268  12270  12274     1  0.0000000  0.6508444  3
  12268  12270  12274  12275     1  180.0000771  2.0083200  2
  12268  12270  12274  12275     1  0.0000000  1.2552000  3
  12268  12270  12274  12276     1  180.0000771  2.0083200  2
  12268  12270  12274  12276     1  0.0000000  1.2552000  3
  12270  12274  12275  12286     1  180.0000771  2.0083200  2
  12270  12274  12275  12286     1  0.0000000  1.2552000  3
  12270  12274  12276  12278     1  180.0000771  2.0083200  2
  12270  12274  12276  12278     1  0.0000000  1.2552000  3
  12274  12275  12286  12289     1  0.0000000  0.6508444  3
  12274  12276  12278  12282     1  0.0000000  0.6508444  3
  12275  12286  12289  12290     1  180.0000771  0.0000000  2
  12275  12286  12289  12338     1  180.0000771  0.0000000  2
  12275  12274  12276  12278     1  180.0000771  2.0083200  2
  12275  12274  12276  12278     1  0.0000000  1.2552000  3
  12276  12278  12282  12283     1  180.0000771  0.0000000  2
  12276  12278  12282  12314     1  180.0000771  0.0000000  2
  12276  12274  12275  12286     1  180.0000771  2.0083200  2
  12276  12274  12275  12286     1  0.0000000  1.2552000  3
  12278  12282  12314  12295     1  180.0000771  6.0668000  2
  12278  12282  12314  12295     1  180.0000771  1.4644000  4
  12282  12314  12295  12296     1  0.0000000  1.2552000  3
  12282  12314  12295  12294     1  0.0000000  1.2552000  3
  12283  12282  12314  12295     1  180.0000771  6.0668000  2
  12283  12282  12314  12295     1  180.0000771  1.4644000  4
  12286  12289  12338  12319     1  180.0000771  6.0668000  2
  12286  12289  12338  12319     1  180.0000771  1.4644000  4
  12289  12338  12319  12320     1  0.0000000  1.2552000  3
  12289  12338  12319  12318     1  0.0000000  1.2552000  3
  12290  12289  12338  12319     1  180.0000771  6.0668000  2
  12290  12289  12338  12319     1  180.0000771  1.4644000  4
  12291  12292  12294  12295     1  180.0000771  0.8368000  1
  12291  12292  12294  12295     1  180.0000771  1.0460000  2
  12291  12292  12294  12295     1  0.0000000  0.7531200  3
  12291  12292  12294  12301     1  0.0000000  0.6508444  3
  12291  12309  12296  12300     1  0.0000000  1.6038667  3
  12291  12309  12296  12295     1  180.0000771  0.4184000  2
  12291  12309  12296  12295     1  0.0000000  1.6024720  3
  12292  12294  12295  12296     1  180.0000771  0.8368000  1
  12292  12294  12295  12296     1  180.0000771  1.0460000  2
  12292  12294  12295  12296     1  0.0000000  0.7531200  3
  12292  12294  12295  12314     1  0.0000000  0.6508444  3
  12292  12291  12302  12307     1  0.0000000  0.6508444  3
  12292  12291  12309  12296     1  180.0000771  0.4184000  2
  12292  12291  12309  12296     1  0.0000000  1.6024720  3
  12294  12295  12296  12300     1  0.0000000  0.6508444  3
  12294  12295  12296  12309     1  0.0000000  0.6508444  3
  12294  12292  12291  12302     1  180.0000771  0.8368000  1
  12294  12292  12291  12302     1  180.0000771  1.0460000  2
  12294  12292  12291  12302     1  0.0000000  0.7531200  3
  12294  12292  12291  12309     1  0.0000000  0.6508444  3
  12295  12294  12292  12312     1  0.0000000  0.6508444  3
  12296  12309  12291  12302     1  180.0000771  0.4184000  2
  12296  12309  12291  12302     1  0.0000000  1.6024720  3
  12296  12295  12294  12301     1  0.0000000  0.6508444  3
  12300  12296  12295  12314     1  0.0000000  0.6508444  3
  12301  12294  12295  12314     1  0.0000000  0.6508444  3
  12301  12294  12292  12312     1  0.0000000  4.9162000  2
  12301  12294  12292  12312     1  0.0000000  0.6024960  3
  12302  12291  12292  12312     1  0.0000000  0.6508444  3
  12307  12302  12291  12309     1  0.0000000  4.9162000  2
  12307  12302  12291  12309     1  0.0000000  0.6024960  3
  12309  12296  12295  12314     1  0.0000000  0.6508444  3
  12309  12291  12292  12312     1  0.0000000  4.9162000  2
  12309  12291  12292  12312     1  0.0000000  0.6024960  3
  12315  12316  12318  12319     1  180.0000771  0.8368000  1
  12315  12316  12318  12319     1  180.0000771  1.0460000  2
  12315  12316  12318  12319     1  0.0000000  0.7531200  3
  12315  12316  12318  12325     1  0.0000000  0.6508444  3
  12315  12333  12320  12324     1  0.0000000  1.6038667  3
  12315  12333  12320  12319     1  180.0000771  0.4184000  2
  12315  12333  12320  12319     1  0.0000000  1.6024720  3
  12316  12318  12319  12320     1  180.0000771  0.8368000  1
  12316  12318  12319  12320     1  180.0000771  1.0460000  2
  12316  12318  12319  12320     1  0.0000000  0.7531200  3
  12316  12318  12319  12338     1  0.0000000  0.6508444  3
  12316  12315  12326  12331     1  0.0000000  0.6508444  3
  12316  12315  12333  12320     1  180.0000771  0.4184000  2
  12316  12315  12333  12320     1  0.0000000  1.6024720  3
  12318  12319  12320  12324     1  0.0000000  0.6508444  3
  12318  12319  12320  12333     1  0.0000000  0.6508444  3
  12318  12316  12315  12326     1  180.0000771  0.8368000  1
  12318  12316  12315  12326     1  180.0000771  1.0460000  2
  12318  12316  12315  12326     1  0.0000000  0.7531200  3
  12318  12316  12315  12333     1  0.0000000  0.6508444  3
  12319  12318  12316  12336     1  0.0000000  0.6508444  3
  12320  12333  12315  12326     1  180.0000771  0.4184000  2
  12320  12333  12315  12326     1  0.0000000  1.6024720  3
  12320  12319  12318  12325     1  0.0000000  0.6508444  3
  12324  12320  12319  12338     1  0.0000000  0.6508444  3
  12325  12318  12319  12338     1  0.0000000  0.6508444  3
  12325  12318  12316  12336     1  0.0000000  4.9162000  2
  12325  12318  12316  12336     1  0.0000000  0.6024960  3
  12326  12315  12316  12336     1  0.0000000  0.6508444  3
  12331  12326  12315  12333     1  0.0000000  4.9162000  2
  12331  12326  12315  12333     1  0.0000000  0.6024960  3
  12333  12320  12319  12338     1  0.0000000  0.6508444  3
  12333  12315  12316  12336     1  0.0000000  4.9162000  2
  12333  12315  12316  12336     1  0.0000000  0.6024960  3
  12339  12341  12343  12347     1  0.0000000  0.6508444  3
  12341  12343  12347  12348     1  180.0000771  2.0083200  2
  12341  12343  12347  12348     1  0.0000000  1.2552000  3
  12341  12343  12347  12349     1  180.0000771  2.0083200  2
  12341  12343  12347  12349     1  0.0000000  1.2552000  3
  12343  12347  12348  12359     1  180.0000771  2.0083200  2
  12343  12347  12348  12359     1  0.0000000  1.2552000  3
  12343  12347  12349  12351     1  180.0000771  2.0083200  2
  12343  12347  12349  12351     1  0.0000000  1.2552000  3
  12347  12348  12359  12362     1  0.0000000  0.6508444  3
  12347  12349  12351  12355     1  0.0000000  0.6508444  3
  12348  12347  12349  12351     1  180.0000771  2.0083200  2
  12348  12347  12349  12351     1  0.0000000  1.2552000  3
  12348  12359  12362  12363     1  180.0000771  0.0000000  2
  12348  12359  12362  12411     1  180.0000771  0.0000000  2
  12349  12347  12348  12359     1  180.0000771  2.0083200  2
  12349  12347  12348  12359     1  0.0000000  1.2552000  3
  12349  12351  12355  12356     1  180.0000771  0.0000000  2
  12349  12351  12355  12387     1  180.0000771  0.0000000  2
  12351  12355  12387  12368     1  180.0000771  6.0668000  2
  12351  12355  12387  12368     1  180.0000771  1.4644000  4
  12355  12387  12368  12367     1  0.0000000  1.2552000  3
  12355  12387  12368  12369     1  0.0000000  1.2552000  3
  12356  12355  12387  12368     1  180.0000771  6.0668000  2
  12356  12355  12387  12368     1  180.0000771  1.4644000  4
  12359  12362  12411  12392     1  180.0000771  6.0668000  2
  12359  12362  12411  12392     1  180.0000771  1.4644000  4
  12362  12411  12392  12391     1  0.0000000  1.2552000  3
  12362  12411  12392  12393     1  0.0000000  1.2552000  3
  12363  12362  12411  12392     1  180.0000771  6.0668000  2
  12363  12362  12411  12392     1  180.0000771  1.4644000  4
  12364  12365  12367  12368     1  180.0000771  0.8368000  1
  12364  12365  12367  12368     1  180.0000771  1.0460000  2
  12364  12365  12367  12368     1  0.0000000  0.7531200  3
  12364  12365  12367  12374     1  0.0000000  0.6508444  3
  12364  12382  12369  12368     1  180.0000771  0.4184000  2
  12364  12382  12369  12368     1  0.0000000  1.6024720  3
  12364  12382  12369  12373     1  0.0000000  1.6038667  3
  12365  12364  12375  12380     1  0.0000000  0.6508444  3
  12365  12364  12382  12369     1  180.0000771  0.4184000  2
  12365  12364  12382  12369     1  0.0000000  1.6024720  3
  12365  12367  12368  12369     1  180.0000771  0.8368000  1
  12365  12367  12368  12369     1  180.0000771  1.0460000  2
  12365  12367  12368  12369     1  0.0000000  0.7531200  3
  12365  12367  12368  12387     1  0.0000000  0.6508444  3
  12367  12365  12364  12375     1  180.0000771  0.8368000  1
  12367  12365  12364  12375     1  180.0000771  1.0460000  2
  12367  12365  12364  12375     1  0.0000000  0.7531200  3
  12367  12365  12364  12382     1  0.0000000  0.6508444  3
  12367  12368  12369  12373     1  0.0000000  0.6508444  3
  12367  12368  12369  12382     1  0.0000000  0.6508444  3
  12368  12367  12365  12385     1  0.0000000  0.6508444  3
  12369  12368  12367  12374     1  0.0000000  0.6508444  3
  12369  12382  12364  12375     1  180.0000771  0.4184000  2
  12369  12382  12364  12375     1  0.0000000  1.6024720  3
  12373  12369  12368  12387     1  0.0000000  0.6508444  3
  12374  12367  12365  12385     1  0.0000000  4.9162000  2
  12374  12367  12365  12385     1  0.0000000  0.6024960  3
  12374  12367  12368  12387     1  0.0000000  0.6508444  3
  12375  12364  12365  12385     1  0.0000000  0.6508444  3
  12380  12375  12364  12382     1  0.0000000  4.9162000  2
  12380  12375  12364  12382     1  0.0000000  0.6024960  3
  12382  12364  12365  12385     1  0.0000000  4.9162000  2
  12382  12364  12365  12385     1  0.0000000  0.6024960  3
  12382  12369  12368  12387     1  0.0000000  0.6508444  3
  12388  12389  12391  12392     1  180.0000771  0.8368000  1
  12388  12389  12391  12392     1  180.0000771  1.0460000  2
  12388  12389  12391  12392     1  0.0000000  0.7531200  3
  12388  12389  12391  12398     1  0.0000000  0.6508444  3
  12388  12406  12393  12392     1  180.0000771  0.4184000  2
  12388  12406  12393  12392     1  0.0000000  1.6024720  3
  12388  12406  12393  12397     1  0.0000000  1.6038667  3
  12389  12388  12399  12404     1  0.0000000  0.6508444  3
  12389  12388  12406  12393     1  180.0000771  0.4184000  2
  12389  12388  12406  12393     1  0.0000000  1.6024720  3
  12389  12391  12392  12393     1  180.0000771  0.8368000  1
  12389  12391  12392  12393     1  180.0000771  1.0460000  2
  12389  12391  12392  12393     1  0.0000000  0.7531200  3
  12389  12391  12392  12411     1  0.0000000  0.6508444  3
  12391  12389  12388  12399     1  180.0000771  0.8368000  1
  12391  12389  12388  12399     1  180.0000771  1.0460000  2
  12391  12389  12388  12399     1  0.0000000  0.7531200  3
  12391  12389  12388  12406     1  0.0000000  0.6508444  3
  12391  12392  12393  12397     1  0.0000000  0.6508444  3
  12391  12392  12393  12406     1  0.0000000  0.6508444  3
  12392  12391  12389  12409     1  0.0000000  0.6508444  3
  12393  12392  12391  12398     1  0.0000000  0.6508444  3
  12393  12406  12388  12399     1  180.0000771  0.4184000  2
  12393  12406  12388  12399     1  0.0000000  1.6024720  3
  12397  12393  12392  12411     1  0.0000000  0.6508444  3
  12398  12391  12389  12409     1  0.0000000  4.9162000  2
  12398  12391  12389  12409     1  0.0000000  0.6024960  3
  12398  12391  12392  12411     1  0.0000000  0.6508444  3
  12399  12388  12389  12409     1  0.0000000  0.6508444  3
  12404  12399  12388  12406     1  0.0000000  4.9162000  2
  12404  12399  12388  12406     1  0.0000000  0.6024960  3
  12406  12388  12389  12409     1  0.0000000  4.9162000  2
  12406  12388  12389  12409     1  0.0000000  0.6024960  3
  12406  12393  12392  12411     1  0.0000000  0.6508444  3
  12412  12414  12416  12420     1  0.0000000  0.6508444  3
  12414  12416  12420  12421     1  180.0000771  2.0083200  2
  12414  12416  12420  12421     1  0.0000000  1.2552000  3
  12414  12416  12420  12422     1  180.0000771  2.0083200  2
  12414  12416  12420  12422     1  0.0000000  1.2552000  3
  12416  12420  12421  12432     1  180.0000771  2.0083200  2
  12416  12420  12421  12432     1  0.0000000  1.2552000  3
  12416  12420  12422  12424     1  180.0000771  2.0083200  2
  12416  12420  12422  12424     1  0.0000000  1.2552000  3
  12420  12421  12432  12435     1  0.0000000  0.6508444  3
  12420  12422  12424  12428     1  0.0000000  0.6508444  3
  12421  12432  12435  12436     1  180.0000771  0.0000000  2
  12421  12432  12435  12484     1  180.0000771  0.0000000  2
  12421  12420  12422  12424     1  180.0000771  2.0083200  2
  12421  12420  12422  12424     1  0.0000000  1.2552000  3
  12422  12424  12428  12429     1  180.0000771  0.0000000  2
  12422  12424  12428  12460     1  180.0000771  0.0000000  2
  12422  12420  12421  12432     1  180.0000771  2.0083200  2
  12422  12420  12421  12432     1  0.0000000  1.2552000  3
  12424  12428  12460  12441     1  180.0000771  6.0668000  2
  12424  12428  12460  12441     1  180.0000771  1.4644000  4
  12428  12460  12441  12442     1  0.0000000  1.2552000  3
  12428  12460  12441  12440     1  0.0000000  1.2552000  3
  12429  12428  12460  12441     1  180.0000771  6.0668000  2
  12429  12428  12460  12441     1  180.0000771  1.4644000  4
  12432  12435  12484  12465     1  180.0000771  6.0668000  2
  12432  12435  12484  12465     1  180.0000771  1.4644000  4
  12435  12484  12465  12466     1  0.0000000  1.2552000  3
  12435  12484  12465  12464     1  0.0000000  1.2552000  3
  12436  12435  12484  12465     1  180.0000771  6.0668000  2
  12436  12435  12484  12465     1  180.0000771  1.4644000  4
  12437  12438  12440  12441     1  180.0000771  0.8368000  1
  12437  12438  12440  12441     1  180.0000771  1.0460000  2
  12437  12438  12440  12441     1  0.0000000  0.7531200  3
  12437  12438  12440  12447     1  0.0000000  0.6508444  3
  12437  12455  12442  12446     1  0.0000000  1.6038667  3
  12437  12455  12442  12441     1  180.0000771  0.4184000  2
  12437  12455  12442  12441     1  0.0000000  1.6024720  3
  12438  12440  12441  12442     1  180.0000771  0.8368000  1
  12438  12440  12441  12442     1  180.0000771  1.0460000  2
  12438  12440  12441  12442     1  0.0000000  0.7531200  3
  12438  12440  12441  12460     1  0.0000000  0.6508444  3
  12438  12437  12448  12453     1  0.0000000  0.6508444  3
  12438  12437  12455  12442     1  180.0000771  0.4184000  2
  12438  12437  12455  12442     1  0.0000000  1.6024720  3
  12440  12441  12442  12446     1  0.0000000  0.6508444  3
  12440  12441  12442  12455     1  0.0000000  0.6508444  3
  12440  12438  12437  12448     1  180.0000771  0.8368000  1
  12440  12438  12437  12448     1  180.0000771  1.0460000  2
  12440  12438  12437  12448     1  0.0000000  0.7531200  3
  12440  12438  12437  12455     1  0.0000000  0.6508444  3
  12441  12440  12438  12458     1  0.0000000  0.6508444  3
  12442  12455  12437  12448     1  180.0000771  0.4184000  2
  12442  12455  12437  12448     1  0.0000000  1.6024720  3
  12442  12441  12440  12447     1  0.0000000  0.6508444  3
  12446  12442  12441  12460     1  0.0000000  0.6508444  3
  12447  12440  12441  12460     1  0.0000000  0.6508444  3
  12447  12440  12438  12458     1  0.0000000  4.9162000  2
  12447  12440  12438  12458     1  0.0000000  0.6024960  3
  12448  12437  12438  12458     1  0.0000000  0.6508444  3
  12453  12448  12437  12455     1  0.0000000  4.9162000  2
  12453  12448  12437  12455     1  0.0000000  0.6024960  3
  12455  12442  12441  12460     1  0.0000000  0.6508444  3
  12455  12437  12438  12458     1  0.0000000  4.9162000  2
  12455  12437  12438  12458     1  0.0000000  0.6024960  3
  12461  12462  12464  12465     1  180.0000771  0.8368000  1
  12461  12462  12464  12465     1  180.0000771  1.0460000  2
  12461  12462  12464  12465     1  0.0000000  0.7531200  3
  12461  12462  12464  12471     1  0.0000000  0.6508444  3
  12461  12479  12466  12470     1  0.0000000  1.6038667  3
  12461  12479  12466  12465     1  180.0000771  0.4184000  2
  12461  12479  12466  12465     1  0.0000000  1.6024720  3
  12462  12464  12465  12466     1  180.0000771  0.8368000  1
  12462  12464  12465  12466     1  180.0000771  1.0460000  2
  12462  12464  12465  12466     1  0.0000000  0.7531200  3
  12462  12464  12465  12484     1  0.0000000  0.6508444  3
  12462  12461  12472  12477     1  0.0000000  0.6508444  3
  12462  12461  12479  12466     1  180.0000771  0.4184000  2
  12462  12461  12479  12466     1  0.0000000  1.6024720  3
  12464  12465  12466  12470     1  0.0000000  0.6508444  3
  12464  12465  12466  12479     1  0.0000000  0.6508444  3
  12464  12462  12461  12472     1  180.0000771  0.8368000  1
  12464  12462  12461  12472     1  180.0000771  1.0460000  2
  12464  12462  12461  12472     1  0.0000000  0.7531200  3
  12464  12462  12461  12479     1  0.0000000  0.6508444  3
  12465  12464  12462  12482     1  0.0000000  0.6508444  3
  12466  12479  12461  12472     1  180.0000771  0.4184000  2
  12466  12479  12461  12472     1  0.0000000  1.6024720  3
  12466  12465  12464  12471     1  0.0000000  0.6508444  3
  12470  12466  12465  12484     1  0.0000000  0.6508444  3
  12471  12464  12465  12484     1  0.0000000  0.6508444  3
  12471  12464  12462  12482     1  0.0000000  4.9162000  2
  12471  12464  12462  12482     1  0.0000000  0.6024960  3
  12472  12461  12462  12482     1  0.0000000  0.6508444  3
  12477  12472  12461  12479     1  0.0000000  4.9162000  2
  12477  12472  12461  12479     1  0.0000000  0.6024960  3
  12479  12466  12465  12484     1  0.0000000  0.6508444  3
  12479  12461  12462  12482     1  0.0000000  4.9162000  2
  12479  12461  12462  12482     1  0.0000000  0.6024960  3
     27     64     33     37     4  180.0000771  43.9320000  2
     30     89     34     40     4  180.0000771  43.9320000  2
     21    114     35     38     4  180.0000771  43.9320000  2
     24    139     36     39     4  180.0000771  43.9320000  2
     54    164     60     62     4  180.0000771  43.9320000  2
     57    189     61     63     4  180.0000771  43.9320000  2
     79    214     85     87     4  180.0000771  43.9320000  2
     82    239     86     88     4  180.0000771  43.9320000  2
    104    264    110    112     4  180.0000771  43.9320000  2
    107    289    111    113     4  180.0000771  43.9320000  2
    129    314    135    137     4  180.0000771  43.9320000  2
    132    339    136    138     4  180.0000771  43.9320000  2
    154    364    160    162     4  180.0000771  43.9320000  2
    157    389    161    163     4  180.0000771  43.9320000  2
    179    414    185    187     4  180.0000771  43.9320000  2
    182    439    186    188     4  180.0000771  43.9320000  2
    204    464    210    212     4  180.0000771  43.9320000  2
    207    489    211    213     4  180.0000771  43.9320000  2
    229    514    235    237     4  180.0000771  43.9320000  2
    232    539    236    238     4  180.0000771  43.9320000  2
    254    564    260    262     4  180.0000771  43.9320000  2
    257    589    261    263     4  180.0000771  43.9320000  2
    279    614    285    287     4  180.0000771  43.9320000  2
    282    639    286    288     4  180.0000771  43.9320000  2
    304    664    310    312     4  180.0000771  43.9320000  2
    307    689    311    313     4  180.0000771  43.9320000  2
    329    714    335    337     4  180.0000771  43.9320000  2
    332    739    336    338     4  180.0000771  43.9320000  2
    354    764    360    362     4  180.0000771  43.9320000  2
    357    789    361    363     4  180.0000771  43.9320000  2
    379    814    385    387     4  180.0000771  43.9320000  2
    382    839    386    388     4  180.0000771  43.9320000  2
    404    864    410    412     4  180.0000771  43.9320000  2
    407    889    411    413     4  180.0000771  43.9320000  2
    429    914    435    437     4  180.0000771  43.9320000  2
    432    939    436    438     4  180.0000771  43.9320000  2
    454    964    460    462     4  180.0000771  43.9320000  2
    457    989    461    463     4  180.0000771  43.9320000  2
    479   1014    485    487     4  180.0000771  43.9320000  2
    482   1039    486    488     4  180.0000771  43.9320000  2
    504   1064    510    512     4  180.0000771  43.9320000  2
    507   1089    511    513     4  180.0000771  43.9320000  2
    529   1114    535    537     4  180.0000771  43.9320000  2
    532   1139    536    538     4  180.0000771  43.9320000  2
    554   1164    560    562     4  180.0000771  43.9320000  2
    557   1189    561    563     4  180.0000771  43.9320000  2
    579   1214    585    587     4  180.0000771  43.9320000  2
    582   1239    586    588     4  180.0000771  43.9320000  2
    604   1264    610    612     4  180.0000771  43.9320000  2
    607   1289    611    613     4  180.0000771  43.9320000  2
    629   1314    635    637     4  180.0000771  43.9320000  2
    632   1339    636    638     4  180.0000771  43.9320000  2
    654   1364    660    662     4  180.0000771  43.9320000  2
    657   1389    661    663     4  180.0000771  43.9320000  2
    679   1414    685    687     4  180.0000771  43.9320000  2
    682   1439    686    688     4  180.0000771  43.9320000  2
    704   1464    710    712     4  180.0000771  43.9320000  2
    707   1489    711    713     4  180.0000771  43.9320000  2
    729   1514    735    737     4  180.0000771  43.9320000  2
    732   1539    736    738     4  180.0000771  43.9320000  2
    754   1564    760    762     4  180.0000771  43.9320000  2
    757   1589    761    763     4  180.0000771  43.9320000  2
    779   1614    785    787     4  180.0000771  43.9320000  2
    782   1639    786    788     4  180.0000771  43.9320000  2
    804   1664    810    812     4  180.0000771  43.9320000  2
    807   1689    811    813     4  180.0000771  43.9320000  2
    829   1714    835    837     4  180.0000771  43.9320000  2
    832   1739    836    838     4  180.0000771  43.9320000  2
    854   1764    860    862     4  180.0000771  43.9320000  2
    857   1789    861    863     4  180.0000771  43.9320000  2
    879   1814    885    887     4  180.0000771  43.9320000  2
    882   1839    886    888     4  180.0000771  43.9320000  2
    904   1864    910    912     4  180.0000771  43.9320000  2
    907   1889    911    913     4  180.0000771  43.9320000  2
    929   1914    935    937     4  180.0000771  43.9320000  2
    932   1939    936    938     4  180.0000771  43.9320000  2
    954   1964    960    962     4  180.0000771  43.9320000  2
    957   1989    961    963     4  180.0000771  43.9320000  2
    979   2014    985    987     4  180.0000771  43.9320000  2
    982   2039    986    988     4  180.0000771  43.9320000  2
   1004   2064   1010   1012     4  180.0000771  43.9320000  2
   1007   2089   1011   1013     4  180.0000771  43.9320000  2
   1029   2114   1035   1037     4  180.0000771  43.9320000  2
   1032   2139   1036   1038     4  180.0000771  43.9320000  2
   1054   2164   1060   1062     4  180.0000771  43.9320000  2
   1057   2189   1061   1063     4  180.0000771  43.9320000  2
   1079   2214   1085   1087     4  180.0000771  43.9320000  2
   1082   2239   1086   1088     4  180.0000771  43.9320000  2
   1104   2264   1110   1112     4  180.0000771  43.9320000  2
   1107   2289   1111   1113     4  180.0000771  43.9320000  2
   1129   2314   1135   1137     4  180.0000771  43.9320000  2
   1132   2339   1136   1138     4  180.0000771  43.9320000  2
   1154   2364   1160   1162     4  180.0000771  43.9320000  2
   1157   2389   1161   1163     4  180.0000771  43.9320000  2
   1179   2414   1185   1187     4  180.0000771  43.9320000  2
   1182   2439   1186   1188     4  180.0000771  43.9320000  2
   1204   2464   1210   1212     4  180.0000771  43.9320000  2
   1207   2489   1211   1213     4  180.0000771  43.9320000  2
   1229   2514   1235   1237     4  180.0000771  43.9320000  2
   1232   2539   1236   1238     4  180.0000771  43.9320000  2
   1254   2564   1260   1262     4  180.0000771  43.9320000  2
   1257   2589   1261   1263     4  180.0000771  43.9320000  2
   1279   2614   1285   1287     4  180.0000771  43.9320000  2
   1282   2639   1286   1288     4  180.0000771  43.9320000  2
   1304   2664   1310   1312     4  180.0000771  43.9320000  2
   1307   2689   1311   1313     4  180.0000771  43.9320000  2
   1329   2714   1335   1337     4  180.0000771  43.9320000  2
   1332   2739   1336   1338     4  180.0000771  43.9320000  2
   1354   2764   1360   1362     4  180.0000771  43.9320000  2
   1357   2789   1361   1363     4  180.0000771  43.9320000  2
   1379   2814   1385   1387     4  180.0000771  43.9320000  2
   1382   2839   1386   1388     4  180.0000771  43.9320000  2
   1404   2864   1410   1412     4  180.0000771  43.9320000  2
   1407   2889   1411   1413     4  180.0000771  43.9320000  2
   1429   2914   1435   1437     4  180.0000771  43.9320000  2
   1432   2939   1436   1438     4  180.0000771  43.9320000  2
   1454   2964   1460   1462     4  180.0000771  43.9320000  2
   1457   2989   1461   1463     4  180.0000771  43.9320000  2
   1479   3014   1485   1487     4  180.0000771  43.9320000  2
   1482   3039   1486   1488     4  180.0000771  43.9320000  2
   1504   3064   1510   1512     4  180.0000771  43.9320000  2
   1507   3089   1511   1513     4  180.0000771  43.9320000  2
   1529   3114   1535   1537     4  180.0000771  43.9320000  2
   1532   3139   1536   1538     4  180.0000771  43.9320000  2
   1554   3141   1560   1562     4  180.0000771  43.9320000  2
   1557   3214   1561   1563     4  180.0000771  43.9320000  2
   1579   3287   1585   1587     4  180.0000771  43.9320000  2
   1582   3360   1586   1588     4  180.0000771  43.9320000  2
   1604   3433   1610   1612     4  180.0000771  43.9320000  2
   1607   3506   1611   1613     4  180.0000771  43.9320000  2
   1629   3579   1635   1637     4  180.0000771  43.9320000  2
   1632   3652   1636   1638     4  180.0000771  43.9320000  2
   1654   3725   1660   1662     4  180.0000771  43.9320000  2
   1657   3798   1661   1663     4  180.0000771  43.9320000  2
   1679   3871   1685   1687     4  180.0000771  43.9320000  2
   1682   3944   1686   1688     4  180.0000771  43.9320000  2
   1704   4017   1710   1712     4  180.0000771  43.9320000  2
   1707   4090   1711   1713     4  180.0000771  43.9320000  2
   1729   4163   1735   1737     4  180.0000771  43.9320000  2
   1732   4236   1736   1738     4  180.0000771  43.9320000  2
   1754   4309   1760   1762     4  180.0000771  43.9320000  2
   1757   4382   1761   1763     4  180.0000771  43.9320000  2
   1779   4455   1785   1787     4  180.0000771  43.9320000  2
   1782   4528   1786   1788     4  180.0000771  43.9320000  2
   1804   4601   1810   1812     4  180.0000771  43.9320000  2
   1807   4674   1811   1813     4  180.0000771  43.9320000  2
   1829   4747   1835   1837     4  180.0000771  43.9320000  2
   1832   4820   1836   1838     4  180.0000771  43.9320000  2
   1854   4893   1860   1862     4  180.0000771  43.9320000  2
   1857   4966   1861   1863     4  180.0000771  43.9320000  2
   1879   5039   1885   1887     4  180.0000771  43.9320000  2
   1882   5112   1886   1888     4  180.0000771  43.9320000  2
   1904   5185   1910   1912     4  180.0000771  43.9320000  2
   1907   5258   1911   1913     4  180.0000771  43.9320000  2
   1929   5331   1935   1937     4  180.0000771  43.9320000  2
   1932   5404   1936   1938     4  180.0000771  43.9320000  2
   1954   5477   1960   1962     4  180.0000771  43.9320000  2
   1957   5550   1961   1963     4  180.0000771  43.9320000  2
   1979   5623   1985   1987     4  180.0000771  43.9320000  2
   1982   5696   1986   1988     4  180.0000771  43.9320000  2
   2004   5769   2010   2012     4  180.0000771  43.9320000  2
   2007   5842   2011   2013     4  180.0000771  43.9320000  2
   2029   5915   2035   2037     4  180.0000771  43.9320000  2
   2032   5988   2036   2038     4  180.0000771  43.9320000  2
   2054   6061   2060   2062     4  180.0000771  43.9320000  2
   2057   6134   2061   2063     4  180.0000771  43.9320000  2
   2079   6207   2085   2087     4  180.0000771  43.9320000  2
   2082   6280   2086   2088     4  180.0000771  43.9320000  2
   2104   6353   2110   2112     4  180.0000771  43.9320000  2
   2107   6426   2111   2113     4  180.0000771  43.9320000  2
   2129   6499   2135   2137     4  180.0000771  43.9320000  2
   2132   6572   2136   2138     4  180.0000771  43.9320000  2
   2154   6645   2160   2162     4  180.0000771  43.9320000  2
   2157   6718   2161   2163     4  180.0000771  43.9320000  2
   2179   6791   2185   2187     4  180.0000771  43.9320000  2
   2182   6864   2186   2188     4  180.0000771  43.9320000  2
   2204   6937   2210   2212     4  180.0000771  43.9320000  2
   2207   7010   2211   2213     4  180.0000771  43.9320000  2
   2229   7083   2235   2237     4  180.0000771  43.9320000  2
   2232   7156   2236   2238     4  180.0000771  43.9320000  2
   2254   7229   2260   2262     4  180.0000771  43.9320000  2
   2257   7302   2261   2263     4  180.0000771  43.9320000  2
   2279   7375   2285   2287     4  180.0000771  43.9320000  2
   2282   7448   2286   2288     4  180.0000771  43.9320000  2
   2304   7521   2310   2312     4  180.0000771  43.9320000  2
   2307   7594   2311   2313     4  180.0000771  43.9320000  2
   2329   7667   2335   2337     4  180.0000771  43.9320000  2
   2332   7740   2336   2338     4  180.0000771  43.9320000  2
   2354   7813   2360   2362     4  180.0000771  43.9320000  2
   2357   7886   2361   2363     4  180.0000771  43.9320000  2
   2379   7959   2385   2387     4  180.0000771  43.9320000  2
   2382   8032   2386   2388     4  180.0000771  43.9320000  2
   2404   8105   2410   2412     4  180.0000771  43.9320000  2
   2407   8178   2411   2413     4  180.0000771  43.9320000  2
   2429   8251   2435   2437     4  180.0000771  43.9320000  2
   2432   8324   2436   2438     4  180.0000771  43.9320000  2
   2454   8397   2460   2462     4  180.0000771  43.9320000  2
   2457   8470   2461   2463     4  180.0000771  43.9320000  2
   2479   8543   2485   2487     4  180.0000771  43.9320000  2
   2482   8616   2486   2488     4  180.0000771  43.9320000  2
   2504   8689   2510   2512     4  180.0000771  43.9320000  2
   2507   8762   2511   2513     4  180.0000771  43.9320000  2
   2529   8835   2535   2537     4  180.0000771  43.9320000  2
   2532   8908   2536   2538     4  180.0000771  43.9320000  2
   2554   8981   2560   2562     4  180.0000771  43.9320000  2
   2557   9054   2561   2563     4  180.0000771  43.9320000  2
   2579   9127   2585   2587     4  180.0000771  43.9320000  2
   2582   9200   2586   2588     4  180.0000771  43.9320000  2
   2604   9273   2610   2612     4  180.0000771  43.9320000  2
   2607   9346   2611   2613     4  180.0000771  43.9320000  2
   2629   9419   2635   2637     4  180.0000771  43.9320000  2
   2632   9492   2636   2638     4  180.0000771  43.9320000  2
   2654   9565   2660   2662     4  180.0000771  43.9320000  2
   2657   9638   2661   2663     4  180.0000771  43.9320000  2
   2679   9711   2685   2687     4  180.0000771  43.9320000  2
   2682   9784   2686   2688     4  180.0000771  43.9320000  2
   2704   9857   2710   2712     4  180.0000771  43.9320000  2
   2707   9930   2711   2713     4  180.0000771  43.9320000  2
   2729  10003   2735   2737     4  180.0000771  43.9320000  2
   2732  10076   2736   2738     4  180.0000771  43.9320000  2
   2754  10149   2760   2762     4  180.0000771  43.9320000  2
   2757  10222   2761   2763     4  180.0000771  43.9320000  2
   2779  10295   2785   2787     4  180.0000771  43.9320000  2
   2782  10368   2786   2788     4  180.0000771  43.9320000  2
   2804  10441   2810   2812     4  180.0000771  43.9320000  2
   2807  10514   2811   2813     4  180.0000771  43.9320000  2
   2829  10587   2835   2837     4  180.0000771  43.9320000  2
   2832  10660   2836   2838     4  180.0000771  43.9320000  2
   2854  10733   2860   2862     4  180.0000771  43.9320000  2
   2857  10806   2861   2863     4  180.0000771  43.9320000  2
   2879  10879   2885   2887     4  180.0000771  43.9320000  2
   2882  10952   2886   2888     4  180.0000771  43.9320000  2
   2904  11025   2910   2912     4  180.0000771  43.9320000  2
   2907  11098   2911   2913     4  180.0000771  43.9320000  2
   2929  11171   2935   2937     4  180.0000771  43.9320000  2
   2932  11244   2936   2938     4  180.0000771  43.9320000  2
   2954  11317   2960   2962     4  180.0000771  43.9320000  2
   2957  11390   2961   2963     4  180.0000771  43.9320000  2
   2979  11463   2985   2987     4  180.0000771  43.9320000  2
   2982  11536   2986   2988     4  180.0000771  43.9320000  2
   3004  11609   3010   3012     4  180.0000771  43.9320000  2
   3007  11682   3011   3013     4  180.0000771  43.9320000  2
   3029  11755   3035   3037     4  180.0000771  43.9320000  2
   3032  11828   3036   3038     4  180.0000771  43.9320000  2
   3054  11901   3060   3062     4  180.0000771  43.9320000  2
   3057  11974   3061   3063     4  180.0000771  43.9320000  2
   3079  12047   3085   3087     4  180.0000771  43.9320000  2
   3082  12120   3086   3088     4  180.0000771  43.9320000  2
   3104  12193   3110   3112     4  180.0000771  43.9320000  2
   3107  12266   3111   3113     4  180.0000771  43.9320000  2
   3129  12339   3135   3137     4  180.0000771  43.9320000  2
   3132  12412   3136   3138     4  180.0000771  43.9320000  2
   3153   3189   3157   3158     4  180.0000771  43.9320000  2
   3161   3213   3164   3165     4  180.0000771  43.9320000  2
   3226   3262   3230   3231     4  180.0000771  43.9320000  2
   3234   3286   3237   3238     4  180.0000771  43.9320000  2
   3299   3335   3303   3304     4  180.0000771  43.9320000  2
   3307   3359   3310   3311     4  180.0000771  43.9320000  2
   3372   3408   3376   3377     4  180.0000771  43.9320000  2
   3380   3432   3383   3384     4  180.0000771  43.9320000  2
   3445   3481   3449   3450     4  180.0000771  43.9320000  2
   3453   3505   3456   3457     4  180.0000771  43.9320000  2
   3518   3554   3522   3523     4  180.0000771  43.9320000  2
   3526   3578   3529   3530     4  180.0000771  43.9320000  2
   3591   3627   3595   3596     4  180.0000771  43.9320000  2
   3599   3651   3602   3603     4  180.0000771  43.9320000  2
   3664   3700   3668   3669     4  180.0000771  43.9320000  2
   3672   3724   3675   3676     4  180.0000771  43.9320000  2
   3737   3773   3741   3742     4  180.0000771  43.9320000  2
   3745   3797   3748   3749     4  180.0000771  43.9320000  2
   3810   3846   3814   3815     4  180.0000771  43.9320000  2
   3818   3870   3821   3822     4  180.0000771  43.9320000  2
   3883   3919   3887   3888     4  180.0000771  43.9320000  2
   3891   3943   3894   3895     4  180.0000771  43.9320000  2
   3956   3992   3960   3961     4  180.0000771  43.9320000  2
   3964   4016   3967   3968     4  180.0000771  43.9320000  2
   4029   4065   4033   4034     4  180.0000771  43.9320000  2
   4037   4089   4040   4041     4  180.0000771  43.9320000  2
   4102   4138   4106   4107     4  180.0000771  43.9320000  2
   4110   4162   4113   4114     4  180.0000771  43.9320000  2
   4175   4211   4179   4180     4  180.0000771  43.9320000  2
   4183   4235   4186   4187     4  180.0000771  43.9320000  2
   4248   4284   4252   4253     4  180.0000771  43.9320000  2
   4256   4308   4259   4260     4  180.0000771  43.9320000  2
   4321   4357   4325   4326     4  180.0000771  43.9320000  2
   4329   4381   4332   4333     4  180.0000771  43.9320000  2
   4394   4430   4398   4399     4  180.0000771  43.9320000  2
   4402   4454   4405   4406     4  180.0000771  43.9320000  2
   4467   4503   4471   4472     4  180.0000771  43.9320000  2
   4475   4527   4478   4479     4  180.0000771  43.9320000  2
   4540   4576   4544   4545     4  180.0000771  43.9320000  2
   4548   4600   4551   4552     4  180.0000771  43.9320000  2
   4613   4649   4617   4618     4  180.0000771  43.9320000  2
   4621   4673   4624   4625     4  180.0000771  43.9320000  2
   4686   4722   4690   4691     4  180.0000771  43.9320000  2
   4694   4746   4697   4698     4  180.0000771  43.9320000  2
   4759   4795   4763   4764     4  180.0000771  43.9320000  2
   4767   4819   4770   4771     4  180.0000771  43.9320000  2
   4832   4868   4836   4837     4  180.0000771  43.9320000  2
   4840   4892   4843   4844     4  180.0000771  43.9320000  2
   4905   4941   4909   4910     4  180.0000771  43.9320000  2
   4913   4965   4916   4917     4  180.0000771  43.9320000  2
   4978   5014   4982   4983     4  180.0000771  43.9320000  2
   4986   5038   4989   4990     4  180.0000771  43.9320000  2
   5051   5087   5055   5056     4  180.0000771  43.9320000  2
   5059   5111   5062   5063     4  180.0000771  43.9320000  2
   5124   5160   5128   5129     4  180.0000771  43.9320000  2
   5132   5184   5135   5136     4  180.0000771  43.9320000  2
   5197   5233   5201   5202     4  180.0000771  43.9320000  2
   5205   5257   5208   5209     4  180.0000771  43.9320000  2
   5270   5306   5274   5275     4  180.0000771  43.9320000  2
   5278   5330   5281   5282     4  180.0000771  43.9320000  2
   5343   5379   5347   5348     4  180.0000771  43.9320000  2
   5351   5403   5354   5355     4  180.0000771  43.9320000  2
   5416   5452   5420   5421     4  180.0000771  43.9320000  2
   5424   5476   5427   5428     4  180.0000771  43.9320000  2
   5489   5525   5493   5494     4  180.0000771  43.9320000  2
   5497   5549   5500   5501     4  180.0000771  43.9320000  2
   5562   5598   5566   5567     4  180.0000771  43.9320000  2
   5570   5622   5573   5574     4  180.0000771  43.9320000  2
   5635   5671   5639   5640     4  180.0000771  43.9320000  2
   5643   5695   5646   5647     4  180.0000771  43.9320000  2
   5708   5744   5712   5713     4  180.0000771  43.9320000  2
   5716   5768   5719   5720     4  180.0000771  43.9320000  2
   5781   5817   5785   5786     4  180.0000771  43.9320000  2
   5789   5841   5792   5793     4  180.0000771  43.9320000  2
   5854   5890   5858   5859     4  180.0000771  43.9320000  2
   5862   5914   5865   5866     4  180.0000771  43.9320000  2
   5927   5963   5931   5932     4  180.0000771  43.9320000  2
   5935   5987   5938   5939     4  180.0000771  43.9320000  2
   6000   6036   6004   6005     4  180.0000771  43.9320000  2
   6008   6060   6011   6012     4  180.0000771  43.9320000  2
   6073   6109   6077   6078     4  180.0000771  43.9320000  2
   6081   6133   6084   6085     4  180.0000771  43.9320000  2
   6146   6182   6150   6151     4  180.0000771  43.9320000  2
   6154   6206   6157   6158     4  180.0000771  43.9320000  2
   6219   6255   6223   6224     4  180.0000771  43.9320000  2
   6227   6279   6230   6231     4  180.0000771  43.9320000  2
   6292   6328   6296   6297     4  180.0000771  43.9320000  2
   6300   6352   6303   6304     4  180.0000771  43.9320000  2
   6365   6401   6369   6370     4  180.0000771  43.9320000  2
   6373   6425   6376   6377     4  180.0000771  43.9320000  2
   6438   6474   6442   6443     4  180.0000771  43.9320000  2
   6446   6498   6449   6450     4  180.0000771  43.9320000  2
   6511   6547   6515   6516     4  180.0000771  43.9320000  2
   6519   6571   6522   6523     4  180.0000771  43.9320000  2
   6584   6620   6588   6589     4  180.0000771  43.9320000  2
   6592   6644   6595   6596     4  180.0000771  43.9320000  2
   6657   6693   6661   6662     4  180.0000771  43.9320000  2
   6665   6717   6668   6669     4  180.0000771  43.9320000  2
   6730   6766   6734   6735     4  180.0000771  43.9320000  2
   6738   6790   6741   6742     4  180.0000771  43.9320000  2
   6803   6839   6807   6808     4  180.0000771  43.9320000  2
   6811   6863   6814   6815     4  180.0000771  43.9320000  2
   6876   6912   6880   6881     4  180.0000771  43.9320000  2
   6884   6936   6887   6888     4  180.0000771  43.9320000  2
   6949   6985   6953   6954     4  180.0000771  43.9320000  2
   6957   7009   6960   6961     4  180.0000771  43.9320000  2
   7022   7058   7026   7027     4  180.0000771  43.9320000  2
   7030   7082   7033   7034     4  180.0000771  43.9320000  2
   7095   7131   7099   7100     4  180.0000771  43.9320000  2
   7103   7155   7106   7107     4  180.0000771  43.9320000  2
   7168   7204   7172   7173     4  180.0000771  43.9320000  2
   7176   7228   7179   7180     4  180.0000771  43.9320000  2
   7241   7277   7245   7246     4  180.0000771  43.9320000  2
   7249   7301   7252   7253     4  180.0000771  43.9320000  2
   7314   7350   7318   7319     4  180.0000771  43.9320000  2
   7322   7374   7325   7326     4  180.0000771  43.9320000  2
   7387   7423   7391   7392     4  180.0000771  43.9320000  2
   7395   7447   7398   7399     4  180.0000771  43.9320000  2
   7460   7496   7464   7465     4  180.0000771  43.9320000  2
   7468   7520   7471   7472     4  180.0000771  43.9320000  2
   7533   7569   7537   7538     4  180.0000771  43.9320000  2
   7541   7593   7544   7545     4  180.0000771  43.9320000  2
   7606   7642   7610   7611     4  180.0000771  43.9320000  2
   7614   7666   7617   7618     4  180.0000771  43.9320000  2
   7679   7715   7683   7684     4  180.0000771  43.9320000  2
   7687   7739   7690   7691     4  180.0000771  43.9320000  2
   7752   7788   7756   7757     4  180.0000771  43.9320000  2
   7760   7812   7763   7764     4  180.0000771  43.9320000  2
   7825   7861   7829   7830     4  180.0000771  43.9320000  2
   7833   7885   7836   7837     4  180.0000771  43.9320000  2
   7898   7934   7902   7903     4  180.0000771  43.9320000  2
   7906   7958   7909   7910     4  180.0000771  43.9320000  2
   7971   8007   7975   7976     4  180.0000771  43.9320000  2
   7979   8031   7982   7983     4  180.0000771  43.9320000  2
   8044   8080   8048   8049     4  180.0000771  43.9320000  2
   8052   8104   8055   8056     4  180.0000771  43.9320000  2
   8117   8153   8121   8122     4  180.0000771  43.9320000  2
   8125   8177   8128   8129     4  180.0000771  43.9320000  2
   8190   8226   8194   8195     4  180.0000771  43.9320000  2
   8198   8250   8201   8202     4  180.0000771  43.9320000  2
   8263   8299   8267   8268     4  180.0000771  43.9320000  2
   8271   8323   8274   8275     4  180.0000771  43.9320000  2
   8336   8372   8340   8341     4  180.0000771  43.9320000  2
   8344   8396   8347   8348     4  180.0000771  43.9320000  2
   8409   8445   8413   8414     4  180.0000771  43.9320000  2
   8417   8469   8420   8421     4  180.0000771  43.9320000  2
   8482   8518   8486   8487     4  180.0000771  43.9320000  2
   8490   8542   8493   8494     4  180.0000771  43.9320000  2
   8555   8591   8559   8560     4  180.0000771  43.9320000  2
   8563   8615   8566   8567     4  180.0000771  43.9320000  2
   8628   8664   8632   8633     4  180.0000771  43.9320000  2
   8636   8688   8639   8640     4  180.0000771  43.9320000  2
   8701   8737   8705   8706     4  180.0000771  43.9320000  2
   8709   8761   8712   8713     4  180.0000771  43.9320000  2
   8774   8810   8778   8779     4  180.0000771  43.9320000  2
   8782   8834   8785   8786     4  180.0000771  43.9320000  2
   8847   8883   8851   8852     4  180.0000771  43.9320000  2
   8855   8907   8858   8859     4  180.0000771  43.9320000  2
   8920   8956   8924   8925     4  180.0000771  43.9320000  2
   8928   8980   8931   8932     4  180.0000771  43.9320000  2
   8993   9029   8997   8998     4  180.0000771  43.9320000  2
   9001   9053   9004   9005     4  180.0000771  43.9320000  2
   9066   9102   9070   9071     4  180.0000771  43.9320000  2
   9074   9126   9077   9078     4  180.0000771  43.9320000  2
   9139   9175   9143   9144     4  180.0000771  43.9320000  2
   9147   9199   9150   9151     4  180.0000771  43.9320000  2
   9212   9248   9216   9217     4  180.0000771  43.9320000  2
   9220   9272   9223   9224     4  180.0000771  43.9320000  2
   9285   9321   9289   9290     4  180.0000771  43.9320000  2
   9293   9345   9296   9297     4  180.0000771  43.9320000  2
   9358   9394   9362   9363     4  180.0000771  43.9320000  2
   9366   9418   9369   9370     4  180.0000771  43.9320000  2
   9431   9467   9435   9436     4  180.0000771  43.9320000  2
   9439   9491   9442   9443     4  180.0000771  43.9320000  2
   9504   9540   9508   9509     4  180.0000771  43.9320000  2
   9512   9564   9515   9516     4  180.0000771  43.9320000  2
   9577   9613   9581   9582     4  180.0000771  43.9320000  2
   9585   9637   9588   9589     4  180.0000771  43.9320000  2
   9650   9686   9654   9655     4  180.0000771  43.9320000  2
   9658   9710   9661   9662     4  180.0000771  43.9320000  2
   9723   9759   9727   9728     4  180.0000771  43.9320000  2
   9731   9783   9734   9735     4  180.0000771  43.9320000  2
   9796   9832   9800   9801     4  180.0000771  43.9320000  2
   9804   9856   9807   9808     4  180.0000771  43.9320000  2
   9869   9905   9873   9874     4  180.0000771  43.9320000  2
   9877   9929   9880   9881     4  180.0000771  43.9320000  2
   9942   9978   9946   9947     4  180.0000771  43.9320000  2
   9950  10002   9953   9954     4  180.0000771  43.9320000  2
  10015  10051  10019  10020     4  180.0000771  43.9320000  2
  10023  10075  10026  10027     4  180.0000771  43.9320000  2
  10088  10124  10092  10093     4  180.0000771  43.9320000  2
  10096  10148  10099  10100     4  180.0000771  43.9320000  2
  10161  10197  10165  10166     4  180.0000771  43.9320000  2
  10169  10221  10172  10173     4  180.0000771  43.9320000  2
  10234  10270  10238  10239     4  180.0000771  43.9320000  2
  10242  10294  10245  10246     4  180.0000771  43.9320000  2
  10307  10343  10311  10312     4  180.0000771  43.9320000  2
  10315  10367  10318  10319     4  180.0000771  43.9320000  2
  10380  10416  10384  10385     4  180.0000771  43.9320000  2
  10388  10440  10391  10392     4  180.0000771  43.9320000  2
  10453  10489  10457  10458     4  180.0000771  43.9320000  2
  10461  10513  10464  10465     4  180.0000771  43.9320000  2
  10526  10562  10530  10531     4  180.0000771  43.9320000  2
  10534  10586  10537  10538     4  180.0000771  43.9320000  2
  10599  10635  10603  10604     4  180.0000771  43.9320000  2
  10607  10659  10610  10611     4  180.0000771  43.9320000  2
  10672  10708  10676  10677     4  180.0000771  43.9320000  2
  10680  10732  10683  10684     4  180.0000771  43.9320000  2
  10745  10781  10749  10750     4  180.0000771  43.9320000  2
  10753  10805  10756  10757     4  180.0000771  43.9320000  2
  10818  10854  10822  10823     4  180.0000771  43.9320000  2
  10826  10878  10829  10830     4  180.0000771  43.9320000  2
  10891  10927  10895  10896     4  180.0000771  43.9320000  2
  10899  10951  10902  10903     4  180.0000771  43.9320000  2
  10964  11000  10968  10969     4  180.0000771  43.9320000  2
  10972  11024  10975  10976     4  180.0000771  43.9320000  2
  11037  11073  11041  11042     4  180.0000771  43.9320000  2
  11045  11097  11048  11049     4  180.0000771  43.9320000  2
  11110  11146  11114  11115     4  180.0000771  43.9320000  2
  11118  11170  11121  11122     4  180.0000771  43.9320000  2
  11183  11219  11187  11188     4  180.0000771  43.9320000  2
  11191  11243  11194  11195     4  180.0000771  43.9320000  2
  11256  11292  11260  11261     4  180.0000771  43.9320000  2
  11264  11316  11267  11268     4  180.0000771  43.9320000  2
  11329  11365  11333  11334     4  180.0000771  43.9320000  2
  11337  11389  11340  11341     4  180.0000771  43.9320000  2
  11402  11438  11406  11407     4  180.0000771  43.9320000  2
  11410  11462  11413  11414     4  180.0000771  43.9320000  2
  11475  11511  11479  11480     4  180.0000771  43.9320000  2
  11483  11535  11486  11487     4  180.0000771  43.9320000  2
  11548  11584  11552  11553     4  180.0000771  43.9320000  2
  11556  11608  11559  11560     4  180.0000771  43.9320000  2
  11621  11657  11625  11626     4  180.0000771  43.9320000  2
  11629  11681  11632  11633     4  180.0000771  43.9320000  2
  11694  11730  11698  11699     4  180.0000771  43.9320000  2
  11702  11754  11705  11706     4  180.0000771  43.9320000  2
  11767  11803  11771  11772     4  180.0000771  43.9320000  2
  11775  11827  11778  11779     4  180.0000771  43.9320000  2
  11840  11876  11844  11845     4  180.0000771  43.9320000  2
  11848  11900  11851  11852     4  180.0000771  43.9320000  2
  11913  11949  11917  11918     4  180.0000771  43.9320000  2
  11921  11973  11924  11925     4  180.0000771  43.9320000  2
  11986  12022  11990  11991     4  180.0000771  43.9320000  2
  11994  12046  11997  11998     4  180.0000771  43.9320000  2
  12059  12095  12063  12064     4  180.0000771  43.9320000  2
  12067  12119  12070  12071     4  180.0000771  43.9320000  2
  12132  12168  12136  12137     4  180.0000771  43.9320000  2
  12140  12192  12143  12144     4  180.0000771  43.9320000  2
  12205  12241  12209  12210     4  180.0000771  43.9320000  2
  12213  12265  12216  12217     4  180.0000771  43.9320000  2
  12278  12314  12282  12283     4  180.0000771  43.9320000  2
  12286  12338  12289  12290     4  180.0000771  43.9320000  2
  12351  12387  12355  12356     4  180.0000771  43.9320000  2
  12359  12411  12362  12363     4  180.0000771  43.9320000  2
  12424  12460  12428  12429     4  180.0000771  43.9320000  2
  12432  12484  12435  12436     4  180.0000771  43.9320000  2
      1      8      9     10     1  0.0000000  1.2552000  3
      1      8      9     11     1  0.0000000  1.2552000  3
      1      8     12     13     1  0.0000000  1.2552000  3
      1      8     12     14     1  0.0000000  1.2552000  3
      2      1      4      7     1  0.0000000  0.6508444  3
      2      1      4      5     1  0.0000000  0.6508444  3
      2      1      4      6     1  0.0000000  0.6508444  3
      2      1      8      9     1  0.0000000  1.2552000  3
      2      1      8     12     1  0.0000000  1.2552000  3
      3      1      4      7     1  0.0000000  0.6508444  3
      3      1      4      5     1  0.0000000  0.6508444  3
      3      1      4      6     1  0.0000000  0.6508444  3
      3      1      8      9     1  0.0000000  1.2552000  3
      3      1      8     12     1  0.0000000  1.2552000  3
      4      7     15     16     1  0.0000000  1.2552000  3
      4      7     15     17     1  0.0000000  1.2552000  3
      4      7     18     19     1  0.0000000  1.2552000  3
      4      7     18     20     1  0.0000000  1.2552000  3
      8      1      4      5     1  0.0000000  0.6508444  3
      5      4      7     15     1  0.0000000  1.2552000  3
      5      4      7     18     1  0.0000000  1.2552000  3
      8      1      4      6     1  0.0000000  0.6508444  3
      6      4      7     15     1  0.0000000  1.2552000  3
      6      4      7     18     1  0.0000000  1.2552000  3
      7     15     21     22     1  0.0000000  0.6508444  3
      7     15     21     23     1  0.0000000  0.6508444  3
      7     18     24     25     1  0.0000000  0.6508444  3
      7     18     24     26     1  0.0000000  0.6508444  3
      8      9     30     31     1  0.0000000  0.6508444  3
      8      9     30     32     1  0.0000000  0.6508444  3
      8     12     27     28     1  0.0000000  0.6508444  3
      8     12     27     29     1  0.0000000  0.6508444  3
      9      8     12     13     1  0.0000000  1.2552000  3
      9      8     12     14     1  0.0000000  1.2552000  3
     10      9      8     12     1  0.0000000  1.2552000  3
     10      9     30     34     1  0.0000000  0.6508444  3
     10      9     30     31     1  0.0000000  0.6508444  3
     10      9     30     32     1  0.0000000  0.6508444  3
     11      9      8     12     1  0.0000000  1.2552000  3
     11      9     30     34     1  0.0000000  0.6508444  3
     11      9     30     31     1  0.0000000  0.6508444  3
     11      9     30     32     1  0.0000000  0.6508444  3
     13     12     27     33     1  0.0000000  0.6508444  3
     13     12     27     28     1  0.0000000  0.6508444  3
     13     12     27     29     1  0.0000000  0.6508444  3
     14     12     27     33     1  0.0000000  0.6508444  3
     14     12     27     28     1  0.0000000  0.6508444  3
     14     12     27     29     1  0.0000000  0.6508444  3
     15      7     18     19     1  0.0000000  1.2552000  3
     15      7     18     20     1  0.0000000  1.2552000  3
     16     15      7     18     1  0.0000000  1.2552000  3
     16     15     21     35     1  0.0000000  0.6508444  3
     16     15     21     22     1  0.0000000  0.6508444  3
     16     15     21     23     1  0.0000000  0.6508444  3
     17     15      7     18     1  0.0000000  1.2552000  3
     17     15     21     35     1  0.0000000  0.6508444  3
     17     15     21     22     1  0.0000000  0.6508444  3
     17     15     21     23     1  0.0000000  0.6508444  3
     19     18     24     36     1  0.0000000  0.6508444  3
     19     18     24     25     1  0.0000000  0.6508444  3
     19     18     24     26     1  0.0000000  0.6508444  3
     20     18     24     36     1  0.0000000  0.6508444  3
     20     18     24     25     1  0.0000000  0.6508444  3
     20     18     24     26     1  0.0000000  0.6508444  3
     21     35    114    115     1  180.0000771  10.4600000  2
     22     21     35     38     1  0.0000000  3.3472000  1
     22     21     35     38     1  0.0000000  0.0000000  2
     22     21     35     38     1  180.0000771  0.3347200  3
     22     21     35    114     1  180.0000771  0.0000000  2
     23     21     35     38     1  0.0000000  3.3472000  1
     23     21     35     38     1  0.0000000  0.0000000  2
     23     21     35     38     1  180.0000771  0.3347200  3
     23     21     35    114     1  180.0000771  0.0000000  2
     24     36    139    140     1  180.0000771  10.4600000  2
     25     24     36     39     1  0.0000000  3.3472000  1
     25     24     36     39     1  0.0000000  0.0000000  2
     25     24     36     39     1  180.0000771  0.3347200  3
     25     24     36    139     1  180.0000771  0.0000000  2
     26     24     36     39     1  0.0000000  3.3472000  1
     26     24     36     39     1  0.0000000  0.0000000  2
     26     24     36     39     1  180.0000771  0.3347200  3
     26     24     36    139     1  180.0000771  0.0000000  2
     27     33     64     65     1  180.0000771  10.4600000  2
     28     27     33     37     1  0.0000000  3.3472000  1
     28     27     33     37     1  0.0000000  0.0000000  2
     28     27     33     37     1  180.0000771  0.3347200  3
     28     27     33     64     1  180.0000771  0.0000000  2
     29     27     33     37     1  0.0000000  3.3472000  1
     29     27     33     37     1  0.0000000  0.0000000  2
     29     27     33     37     1  180.0000771  0.3347200  3
     29     27     33     64     1  180.0000771  0.0000000  2
     30     34     89     90     1  180.0000771  10.4600000  2
     31     30     34     40     1  0.0000000  3.3472000  1
     31     30     34     40     1  0.0000000  0.0000000  2
     31     30     34     40     1  180.0000771  0.3347200  3
     31     30     34     89     1  180.0000771  0.0000000  2
     32     30     34     40     1  0.0000000  3.3472000  1
     32     30     34     40     1  0.0000000  0.0000000  2
     32     30     34     40     1  180.0000771  0.3347200  3
     32     30     34     89     1  180.0000771  0.0000000  2
     33     64     44     45     1  0.0000000  0.0000000  2
     33     64     44     46     1  0.0000000  0.0000000  2
     34     89     69     70     1  0.0000000  0.0000000  2
     34     89     69     71     1  0.0000000  0.0000000  2
     35    114     94     95     1  0.0000000  0.0000000  2
     35    114     94     96     1  0.0000000  0.0000000  2
     36    139    119    120     1  0.0000000  0.0000000  2
     36    139    119    121     1  0.0000000  0.0000000  2
     37     33     64     65     1  0.0000000  8.3680000  1
     37     33     64     65     1  180.0000771  10.4600000  2
     38     35    114    115     1  0.0000000  8.3680000  1
     38     35    114    115     1  180.0000771  10.4600000  2
     39     36    139    140     1  0.0000000  8.3680000  1
     39     36    139    140     1  180.0000771  10.4600000  2
     40     34     89     90     1  0.0000000  8.3680000  1
     40     34     89     90     1  180.0000771  10.4600000  2
     41     44     64     65     1  0.0000000  0.0000000  2
     41     47     48     49     1  0.0000000  1.2552000  3
     41     47     48     50     1  0.0000000  1.2552000  3
     41     47     51     52     1  0.0000000  1.2552000  3
     41     47     51     53     1  0.0000000  1.2552000  3
     42     41     44     64     1  0.0000000  0.6508444  3
     42     41     44     45     1  0.0000000  0.6508444  3
     42     41     44     46     1  0.0000000  0.6508444  3
     42     41     47     48     1  0.0000000  1.2552000  3
     42     41     47     51     1  0.0000000  1.2552000  3
     43     41     44     64     1  0.0000000  0.6508444  3
     43     41     44     45     1  0.0000000  0.6508444  3
     43     41     44     46     1  0.0000000  0.6508444  3
     43     41     47     48     1  0.0000000  1.2552000  3
     43     41     47     51     1  0.0000000  1.2552000  3
     45     44     41     47     1  0.0000000  0.6508444  3
     45     44     64     65     1  0.0000000  0.0000000  2
     46     44     41     47     1  0.0000000  0.6508444  3
     46     44     64     65     1  0.0000000  0.0000000  2
     47     48     57     58     1  0.0000000  0.6508444  3
     47     48     57     59     1  0.0000000  0.6508444  3
     47     51     54     55     1  0.0000000  0.6508444  3
     47     51     54     56     1  0.0000000  0.6508444  3
     48     47     51     52     1  0.0000000  1.2552000  3
     48     47     51     53     1  0.0000000  1.2552000  3
     49     48     47     51     1  0.0000000  1.2552000  3
     49     48     57     61     1  0.0000000  0.6508444  3
     49     48     57     58     1  0.0000000  0.6508444  3
     49     48     57     59     1  0.0000000  0.6508444  3
     50     48     47     51     1  0.0000000  1.2552000  3
     50     48     57     61     1  0.0000000  0.6508444  3
     50     48     57     58     1  0.0000000  0.6508444  3
     50     48     57     59     1  0.0000000  0.6508444  3
     52     51     54     60     1  0.0000000  0.6508444  3
     52     51     54     55     1  0.0000000  0.6508444  3
     52     51     54     56     1  0.0000000  0.6508444  3
     53     51     54     60     1  0.0000000  0.6508444  3
     53     51     54     55     1  0.0000000  0.6508444  3
     53     51     54     56     1  0.0000000  0.6508444  3
     54     60    164    165     1  180.0000771  10.4600000  2
     55     54     60     62     1  0.0000000  3.3472000  1
     55     54     60     62     1  0.0000000  0.0000000  2
     55     54     60     62     1  180.0000771  0.3347200  3
     55     54     60    164     1  180.0000771  0.0000000  2
     56     54     60     62     1  0.0000000  3.3472000  1
     56     54     60     62     1  0.0000000  0.0000000  2
     56     54     60     62     1  180.0000771  0.3347200  3
     56     54     60    164     1  180.0000771  0.0000000  2
     57     61    189    190     1  180.0000771  10.4600000  2
     58     57     61     63     1  0.0000000  3.3472000  1
     58     57     61     63     1  0.0000000  0.0000000  2
     58     57     61     63     1  180.0000771  0.3347200  3
     58     57     61    189     1  180.0000771  0.0000000  2
     59     57     61     63     1  0.0000000  3.3472000  1
     59     57     61     63     1  0.0000000  0.0000000  2
     59     57     61     63     1  180.0000771  0.3347200  3
     59     57     61    189     1  180.0000771  0.0000000  2
     60    164    144    145     1  0.0000000  0.0000000  2
     60    164    144    146     1  0.0000000  0.0000000  2
     61    189    169    170     1  0.0000000  0.0000000  2
     61    189    169    171     1  0.0000000  0.0000000  2
     62     60    164    165     1  0.0000000  8.3680000  1
     62     60    164    165     1  180.0000771  10.4600000  2
     63     61    189    190     1  0.0000000  8.3680000  1
     63     61    189    190     1  180.0000771  10.4600000  2
     66     69     89     90     1  0.0000000  0.0000000  2
     66     72     73     74     1  0.0000000  1.2552000  3
     66     72     73     75     1  0.0000000  1.2552000  3
     66     72     76     77     1  0.0000000  1.2552000  3
     66     72     76     78     1  0.0000000  1.2552000  3
     67     66     69     89     1  0.0000000  0.6508444  3
     67     66     69     70     1  0.0000000  0.6508444  3
     67     66     69     71     1  0.0000000  0.6508444  3
     67     66     72     73     1  0.0000000  1.2552000  3
     67     66     72     76     1  0.0000000  1.2552000  3
     68     66     69     89     1  0.0000000  0.6508444  3
     68     66     69     70     1  0.0000000  0.6508444  3
     68     66     69     71     1  0.0000000  0.6508444  3
     68     66     72     73     1  0.0000000  1.2552000  3
     68     66     72     76     1  0.0000000  1.2552000  3
     70     69     66     72     1  0.0000000  0.6508444  3
     70     69     89     90     1  0.0000000  0.0000000  2
     71     69     66     72     1  0.0000000  0.6508444  3
     71     69     89     90     1  0.0000000  0.0000000  2
     72     73     82     83     1  0.0000000  0.6508444  3
     72     73     82     84     1  0.0000000  0.6508444  3
     72     76     79     80     1  0.0000000  0.6508444  3
     72     76     79     81     1  0.0000000  0.6508444  3
     73     72     76     77     1  0.0000000  1.2552000  3
     73     72     76     78     1  0.0000000  1.2552000  3
     74     73     72     76     1  0.0000000  1.2552000  3
     74     73     82     86     1  0.0000000  0.6508444  3
     74     73     82     83     1  0.0000000  0.6508444  3
     74     73     82     84     1  0.0000000  0.6508444  3
     75     73     72     76     1  0.0000000  1.2552000  3
     75     73     82     86     1  0.0000000  0.6508444  3
     75     73     82     83     1  0.0000000  0.6508444  3
     75     73     82     84     1  0.0000000  0.6508444  3
     77     76     79     85     1  0.0000000  0.6508444  3
     77     76     79     80     1  0.0000000  0.6508444  3
     77     76     79     81     1  0.0000000  0.6508444  3
     78     76     79     85     1  0.0000000  0.6508444  3
     78     76     79     80     1  0.0000000  0.6508444  3
     78     76     79     81     1  0.0000000  0.6508444  3
     79     85    214    215     1  180.0000771  10.4600000  2
     80     79     85     87     1  0.0000000  3.3472000  1
     80     79     85     87     1  0.0000000  0.0000000  2
     80     79     85     87     1  180.0000771  0.3347200  3
     80     79     85    214     1  180.0000771  0.0000000  2
     81     79     85     87     1  0.0000000  3.3472000  1
     81     79     85     87     1  0.0000000  0.0000000  2
     81     79     85     87     1  180.0000771  0.3347200  3
     81     79     85    214     1  180.0000771  0.0000000  2
     82     86    239    240     1  180.0000771  10.4600000  2
     83     82     86     88     1  0.0000000  3.3472000  1
     83     82     86     88     1  0.0000000  0.0000000  2
     83     82     86     88     1  180.0000771  0.3347200  3
     83     82     86    239     1  180.0000771  0.0000000  2
     84     82     86     88     1  0.0000000  3.3472000  1
     84     82     86     88     1  0.0000000  0.0000000  2
     84     82     86     88     1  180.0000771  0.3347200  3
     84     82     86    239     1  180.0000771  0.0000000  2
     85    214    194    195     1  0.0000000  0.0000000  2
     85    214    194    196     1  0.0000000  0.0000000  2
     86    239    219    220     1  0.0000000  0.0000000  2
     86    239    219    221     1  0.0000000  0.0000000  2
     87     85    214    215     1  0.0000000  8.3680000  1
     87     85    214    215     1  180.0000771  10.4600000  2
     88     86    239    240     1  0.0000000  8.3680000  1
     88     86    239    240     1  180.0000771  10.4600000  2
     91     94    114    115     1  0.0000000  0.0000000  2
     91     97     98     99     1  0.0000000  1.2552000  3
     91     97     98    100     1  0.0000000  1.2552000  3
     91     97    101    102     1  0.0000000  1.2552000  3
     91     97    101    103     1  0.0000000  1.2552000  3
     92     91     94    114     1  0.0000000  0.6508444  3
     92     91     94     95     1  0.0000000  0.6508444  3
     92     91     94     96     1  0.0000000  0.6508444  3
     92     91     97     98     1  0.0000000  1.2552000  3
     92     91     97    101     1  0.0000000  1.2552000  3
     93     91     94    114     1  0.0000000  0.6508444  3
     93     91     94     95     1  0.0000000  0.6508444  3
     93     91     94     96     1  0.0000000  0.6508444  3
     93     91     97     98     1  0.0000000  1.2552000  3
     93     91     97    101     1  0.0000000  1.2552000  3
     95     94     91     97     1  0.0000000  0.6508444  3
     95     94    114    115     1  0.0000000  0.0000000  2
     96     94     91     97     1  0.0000000  0.6508444  3
     96     94    114    115     1  0.0000000  0.0000000  2
     97     98    107    108     1  0.0000000  0.6508444  3
     97     98    107    109     1  0.0000000  0.6508444  3
     97    101    104    105     1  0.0000000  0.6508444  3
     97    101    104    106     1  0.0000000  0.6508444  3
     98     97    101    102     1  0.0000000  1.2552000  3
     98     97    101    103     1  0.0000000  1.2552000  3
     99     98     97    101     1  0.0000000  1.2552000  3
     99     98    107    111     1  0.0000000  0.6508444  3
     99     98    107    108     1  0.0000000  0.6508444  3
     99     98    107    109     1  0.0000000  0.6508444  3
    100     98     97    101     1  0.0000000  1.2552000  3
    100     98    107    111     1  0.0000000  0.6508444  3
    100     98    107    108     1  0.0000000  0.6508444  3
    100     98    107    109     1  0.0000000  0.6508444  3
    102    101    104    110     1  0.0000000  0.6508444  3
    102    101    104    105     1  0.0000000  0.6508444  3
    102    101    104    106     1  0.0000000  0.6508444  3
    103    101    104    110     1  0.0000000  0.6508444  3
    103    101    104    105     1  0.0000000  0.6508444  3
    103    101    104    106     1  0.0000000  0.6508444  3
    104    110    264    265     1  180.0000771  10.4600000  2
    105    104    110    112     1  0.0000000  3.3472000  1
    105    104    110    112     1  0.0000000  0.0000000  2
    105    104    110    112     1  180.0000771  0.3347200  3
    105    104    110    264     1  180.0000771  0.0000000  2
    106    104    110    112     1  0.0000000  3.3472000  1
    106    104    110    112     1  0.0000000  0.0000000  2
    106    104    110    112     1  180.0000771  0.3347200  3
    106    104    110    264     1  180.0000771  0.0000000  2
    107    111    289    290     1  180.0000771  10.4600000  2
    108    107    111    113     1  0.0000000  3.3472000  1
    108    107    111    113     1  0.0000000  0.0000000  2
    108    107    111    113     1  180.0000771  0.3347200  3
    108    107    111    289     1  180.0000771  0.0000000  2
    109    107    111    113     1  0.0000000  3.3472000  1
    109    107    111    113     1  0.0000000  0.0000000  2
    109    107    111    113     1  180.0000771  0.3347200  3
    109    107    111    289     1  180.0000771  0.0000000  2
    110    264    244    245     1  0.0000000  0.0000000  2
    110    264    244    246     1  0.0000000  0.0000000  2
    111    289    269    270     1  0.0000000  0.0000000  2
    111    289    269    271     1  0.0000000  0.0000000  2
    112    110    264    265     1  0.0000000  8.3680000  1
    112    110    264    265     1  180.0000771  10.4600000  2
    113    111    289    290     1  0.0000000  8.3680000  1
    113    111    289    290     1  180.0000771  10.4600000  2
    116    119    139    140     1  0.0000000  0.0000000  2
    116    122    123    124     1  0.0000000  1.2552000  3
    116    122    123    125     1  0.0000000  1.2552000  3
    116    122    126    127     1  0.0000000  1.2552000  3
    116    122    126    128     1  0.0000000  1.2552000  3
    117    116    119    139     1  0.0000000  0.6508444  3
    117    116    119    120     1  0.0000000  0.6508444  3
    117    116    119    121     1  0.0000000  0.6508444  3
    117    116    122    123     1  0.0000000  1.2552000  3
    117    116    122    126     1  0.0000000  1.2552000  3
    118    116    119    139     1  0.0000000  0.6508444  3
    118    116    119    120     1  0.0000000  0.6508444  3
    118    116    119    121     1  0.0000000  0.6508444  3
    118    116    122    123     1  0.0000000  1.2552000  3
    118    116    122    126     1  0.0000000  1.2552000  3
    120    119    116    122     1  0.0000000  0.6508444  3
    120    119    139    140     1  0.0000000  0.0000000  2
    121    119    116    122     1  0.0000000  0.6508444  3
    121    119    139    140     1  0.0000000  0.0000000  2
    122    123    132    133     1  0.0000000  0.6508444  3
    122    123    132    134     1  0.0000000  0.6508444  3
    122    126    129    130     1  0.0000000  0.6508444  3
    122    126    129    131     1  0.0000000  0.6508444  3
    123    122    126    127     1  0.0000000  1.2552000  3
    123    122    126    128     1  0.0000000  1.2552000  3
    124    123    122    126     1  0.0000000  1.2552000  3
    124    123    132    136     1  0.0000000  0.6508444  3
    124    123    132    133     1  0.0000000  0.6508444  3
    124    123    132    134     1  0.0000000  0.6508444  3
    125    123    122    126     1  0.0000000  1.2552000  3
    125    123    132    136     1  0.0000000  0.6508444  3
    125    123    132    133     1  0.0000000  0.6508444  3
    125    123    132    134     1  0.0000000  0.6508444  3
    127    126    129    135     1  0.0000000  0.6508444  3
    127    126    129    130     1  0.0000000  0.6508444  3
    127    126    129    131     1  0.0000000  0.6508444  3
    128    126    129    135     1  0.0000000  0.6508444  3
    128    126    129    130     1  0.0000000  0.6508444  3
    128    126    129    131     1  0.0000000  0.6508444  3
    129    135    314    315     1  180.0000771  10.4600000  2
    130    129    135    137     1  0.0000000  3.3472000  1
    130    129    135    137     1  0.0000000  0.0000000  2
    130    129    135    137     1  180.0000771  0.3347200  3
    130    129    135    314     1  180.0000771  0.0000000  2
    131    129    135    137     1  0.0000000  3.3472000  1
    131    129    135    137     1  0.0000000  0.0000000  2
    131    129    135    137     1  180.0000771  0.3347200  3
    131    129    135    314     1  180.0000771  0.0000000  2
    132    136    339    340     1  180.0000771  10.4600000  2
    133    132    136    138     1  0.0000000  3.3472000  1
    133    132    136    138     1  0.0000000  0.0000000  2
    133    132    136    138     1  180.0000771  0.3347200  3
    133    132    136    339     1  180.0000771  0.0000000  2
    134    132    136    138     1  0.0000000  3.3472000  1
    134    132    136    138     1  0.0000000  0.0000000  2
    134    132    136    138     1  180.0000771  0.3347200  3
    134    132    136    339     1  180.0000771  0.0000000  2
    135    314    294    295     1  0.0000000  0.0000000  2
    135    314    294    296     1  0.0000000  0.0000000  2
    136    339    319    320     1  0.0000000  0.0000000  2
    136    339    319    321     1  0.0000000  0.0000000  2
    137    135    314    315     1  0.0000000  8.3680000  1
    137    135    314    315     1  180.0000771  10.4600000  2
    138    136    339    340     1  0.0000000  8.3680000  1
    138    136    339    340     1  180.0000771  10.4600000  2
    141    144    164    165     1  0.0000000  0.0000000  2
    141    147    148    149     1  0.0000000  1.2552000  3
    141    147    148    150     1  0.0000000  1.2552000  3
    141    147    151    152     1  0.0000000  1.2552000  3
    141    147    151    153     1  0.0000000  1.2552000  3
    142    141    144    164     1  0.0000000  0.6508444  3
    142    141    144    145     1  0.0000000  0.6508444  3
    142    141    144    146     1  0.0000000  0.6508444  3
    142    141    147    148     1  0.0000000  1.2552000  3
    142    141    147    151     1  0.0000000  1.2552000  3
    143    141    144    164     1  0.0000000  0.6508444  3
    143    141    144    145     1  0.0000000  0.6508444  3
    143    141    144    146     1  0.0000000  0.6508444  3
    143    141    147    148     1  0.0000000  1.2552000  3
    143    141    147    151     1  0.0000000  1.2552000  3
    145    144    141    147     1  0.0000000  0.6508444  3
    145    144    164    165     1  0.0000000  0.0000000  2
    146    144    141    147     1  0.0000000  0.6508444  3
    146    144    164    165     1  0.0000000  0.0000000  2
    147    148    157    158     1  0.0000000  0.6508444  3
    147    148    157    159     1  0.0000000  0.6508444  3
    147    151    154    155     1  0.0000000  0.6508444  3
    147    151    154    156     1  0.0000000  0.6508444  3
    148    147    151    152     1  0.0000000  1.2552000  3
    148    147    151    153     1  0.0000000  1.2552000  3
    149    148    147    151     1  0.0000000  1.2552000  3
    149    148    157    161     1  0.0000000  0.6508444  3
    149    148    157    158     1  0.0000000  0.6508444  3
    149    148    157    159     1  0.0000000  0.6508444  3
    150    148    147    151     1  0.0000000  1.2552000  3
    150    148    157    161     1  0.0000000  0.6508444  3
    150    148    157    158     1  0.0000000  0.6508444  3
    150    148    157    159     1  0.0000000  0.6508444  3
    152    151    154    160     1  0.0000000  0.6508444  3
    152    151    154    155     1  0.0000000  0.6508444  3
    152    151    154    156     1  0.0000000  0.6508444  3
    153    151    154    160     1  0.0000000  0.6508444  3
    153    151    154    155     1  0.0000000  0.6508444  3
    153    151    154    156     1  0.0000000  0.6508444  3
    154    160    364    365     1  180.0000771  10.4600000  2
    155    154    160    162     1  0.0000000  3.3472000  1
    155    154    160    162     1  0.0000000  0.0000000  2
    155    154    160    162     1  180.0000771  0.3347200  3
    155    154    160    364     1  180.0000771  0.0000000  2
    156    154    160    162     1  0.0000000  3.3472000  1
    156    154    160    162     1  0.0000000  0.0000000  2
    156    154    160    162     1  180.0000771  0.3347200  3
    156    154    160    364     1  180.0000771  0.0000000  2
    157    161    389    390     1  180.0000771  10.4600000  2
    158    157    161    163     1  0.0000000  3.3472000  1
    158    157    161    163     1  0.0000000  0.0000000  2
    158    157    161    163     1  180.0000771  0.3347200  3
    158    157    161    389     1  180.0000771  0.0000000  2
    159    157    161    163     1  0.0000000  3.3472000  1
    159    157    161    163     1  0.0000000  0.0000000  2
    159    157    161    163     1  180.0000771  0.3347200  3
    159    157    161    389     1  180.0000771  0.0000000  2
    160    364    344    345     1  0.0000000  0.0000000  2
    160    364    344    346     1  0.0000000  0.0000000  2
    161    389    369    370     1  0.0000000  0.0000000  2
    161    389    369    371     1  0.0000000  0.0000000  2
    162    160    364    365     1  0.0000000  8.3680000  1
    162    160    364    365     1  180.0000771  10.4600000  2
    163    161    389    390     1  0.0000000  8.3680000  1
    163    161    389    390     1  180.0000771  10.4600000  2
    166    169    189    190     1  0.0000000  0.0000000  2
    166    172    173    174     1  0.0000000  1.2552000  3
    166    172    173    175     1  0.0000000  1.2552000  3
    166    172    176    177     1  0.0000000  1.2552000  3
    166    172    176    178     1  0.0000000  1.2552000  3
    167    166    169    189     1  0.0000000  0.6508444  3
    167    166    169    170     1  0.0000000  0.6508444  3
    167    166    169    171     1  0.0000000  0.6508444  3
    167    166    172    173     1  0.0000000  1.2552000  3
    167    166    172    176     1  0.0000000  1.2552000  3
    168    166    169    189     1  0.0000000  0.6508444  3
    168    166    169    170     1  0.0000000  0.6508444  3
    168    166    169    171     1  0.0000000  0.6508444  3
    168    166    172    173     1  0.0000000  1.2552000  3
    168    166    172    176     1  0.0000000  1.2552000  3
    170    169    166    172     1  0.0000000  0.6508444  3
    170    169    189    190     1  0.0000000  0.0000000  2
    171    169    166    172     1  0.0000000  0.6508444  3
    171    169    189    190     1  0.0000000  0.0000000  2
    172    173    182    183     1  0.0000000  0.6508444  3
    172    173    182    184     1  0.0000000  0.6508444  3
    172    176    179    180     1  0.0000000  0.6508444  3
    172    176    179    181     1  0.0000000  0.6508444  3
    173    172    176    177     1  0.0000000  1.2552000  3
    173    172    176    178     1  0.0000000  1.2552000  3
    174    173    172    176     1  0.0000000  1.2552000  3
    174    173    182    186     1  0.0000000  0.6508444  3
    174    173    182    183     1  0.0000000  0.6508444  3
    174    173    182    184     1  0.0000000  0.6508444  3
    175    173    172    176     1  0.0000000  1.2552000  3
    175    173    182    186     1  0.0000000  0.6508444  3
    175    173    182    183     1  0.0000000  0.6508444  3
    175    173    182    184     1  0.0000000  0.6508444  3
    177    176    179    185     1  0.0000000  0.6508444  3
    177    176    179    180     1  0.0000000  0.6508444  3
    177    176    179    181     1  0.0000000  0.6508444  3
    178    176    179    185     1  0.0000000  0.6508444  3
    178    176    179    180     1  0.0000000  0.6508444  3
    178    176    179    181     1  0.0000000  0.6508444  3
    179    185    414    415     1  180.0000771  10.4600000  2
    180    179    185    187     1  0.0000000  3.3472000  1
    180    179    185    187     1  0.0000000  0.0000000  2
    180    179    185    187     1  180.0000771  0.3347200  3
    180    179    185    414     1  180.0000771  0.0000000  2
    181    179    185    187     1  0.0000000  3.3472000  1
    181    179    185    187     1  0.0000000  0.0000000  2
    181    179    185    187     1  180.0000771  0.3347200  3
    181    179    185    414     1  180.0000771  0.0000000  2
    182    186    439    440     1  180.0000771  10.4600000  2
    183    182    186    188     1  0.0000000  3.3472000  1
    183    182    186    188     1  0.0000000  0.0000000  2
    183    182    186    188     1  180.0000771  0.3347200  3
    183    182    186    439     1  180.0000771  0.0000000  2
    184    182    186    188     1  0.0000000  3.3472000  1
    184    182    186    188     1  0.0000000  0.0000000  2
    184    182    186    188     1  180.0000771  0.3347200  3
    184    182    186    439     1  180.0000771  0.0000000  2
    185    414    394    395     1  0.0000000  0.0000000  2
    185    414    394    396     1  0.0000000  0.0000000  2
    186    439    419    420     1  0.0000000  0.0000000  2
    186    439    419    421     1  0.0000000  0.0000000  2
    187    185    414    415     1  0.0000000  8.3680000  1
    187    185    414    415     1  180.0000771  10.4600000  2
    188    186    439    440     1  0.0000000  8.3680000  1
    188    186    439    440     1  180.0000771  10.4600000  2
    191    194    214    215     1  0.0000000  0.0000000  2
    191    197    198    199     1  0.0000000  1.2552000  3
    191    197    198    200     1  0.0000000  1.2552000  3
    191    197    201    202     1  0.0000000  1.2552000  3
    191    197    201    203     1  0.0000000  1.2552000  3
    192    191    194    214     1  0.0000000  0.6508444  3
    192    191    194    195     1  0.0000000  0.6508444  3
    192    191    194    196     1  0.0000000  0.6508444  3
    192    191    197    198     1  0.0000000  1.2552000  3
    192    191    197    201     1  0.0000000  1.2552000  3
    193    191    194    214     1  0.0000000  0.6508444  3
    193    191    194    195     1  0.0000000  0.6508444  3
    193    191    194    196     1  0.0000000  0.6508444  3
    193    191    197    198     1  0.0000000  1.2552000  3
    193    191    197    201     1  0.0000000  1.2552000  3
    195    194    191    197     1  0.0000000  0.6508444  3
    195    194    214    215     1  0.0000000  0.0000000  2
    196    194    191    197     1  0.0000000  0.6508444  3
    196    194    214    215     1  0.0000000  0.0000000  2
    197    198    207    208     1  0.0000000  0.6508444  3
    197    198    207    209     1  0.0000000  0.6508444  3
    197    201    204    205     1  0.0000000  0.6508444  3
    197    201    204    206     1  0.0000000  0.6508444  3
    198    197    201    202     1  0.0000000  1.2552000  3
    198    197    201    203     1  0.0000000  1.2552000  3
    199    198    197    201     1  0.0000000  1.2552000  3
    199    198    207    211     1  0.0000000  0.6508444  3
    199    198    207    208     1  0.0000000  0.6508444  3
    199    198    207    209     1  0.0000000  0.6508444  3
    200    198    197    201     1  0.0000000  1.2552000  3
    200    198    207    211     1  0.0000000  0.6508444  3
    200    198    207    208     1  0.0000000  0.6508444  3
    200    198    207    209     1  0.0000000  0.6508444  3
    202    201    204    210     1  0.0000000  0.6508444  3
    202    201    204    205     1  0.0000000  0.6508444  3
    202    201    204    206     1  0.0000000  0.6508444  3
    203    201    204    210     1  0.0000000  0.6508444  3
    203    201    204    205     1  0.0000000  0.6508444  3
    203    201    204    206     1  0.0000000  0.6508444  3
    204    210    464    465     1  180.0000771  10.4600000  2
    205    204    210    212     1  0.0000000  3.3472000  1
    205    204    210    212     1  0.0000000  0.0000000  2
    205    204    210    212     1  180.0000771  0.3347200  3
    205    204    210    464     1  180.0000771  0.0000000  2
    206    204    210    212     1  0.0000000  3.3472000  1
    206    204    210    212     1  0.0000000  0.0000000  2
    206    204    210    212     1  180.0000771  0.3347200  3
    206    204    210    464     1  180.0000771  0.0000000  2
    207    211    489    490     1  180.0000771  10.4600000  2
    208    207    211    213     1  0.0000000  3.3472000  1
    208    207    211    213     1  0.0000000  0.0000000  2
    208    207    211    213     1  180.0000771  0.3347200  3
    208    207    211    489     1  180.0000771  0.0000000  2
    209    207    211    213     1  0.0000000  3.3472000  1
    209    207    211    213     1  0.0000000  0.0000000  2
    209    207    211    213     1  180.0000771  0.3347200  3
    209    207    211    489     1  180.0000771  0.0000000  2
    210    464    444    445     1  0.0000000  0.0000000  2
    210    464    444    446     1  0.0000000  0.0000000  2
    211    489    469    470     1  0.0000000  0.0000000  2
    211    489    469    471     1  0.0000000  0.0000000  2
    212    210    464    465     1  0.0000000  8.3680000  1
    212    210    464    465     1  180.0000771  10.4600000  2
    213    211    489    490     1  0.0000000  8.3680000  1
    213    211    489    490     1  180.0000771  10.4600000  2
    216    219    239    240     1  0.0000000  0.0000000  2
    216    222    223    224     1  0.0000000  1.2552000  3
    216    222    223    225     1  0.0000000  1.2552000  3
    216    222    226    227     1  0.0000000  1.2552000  3
    216    222    226    228     1  0.0000000  1.2552000  3
    217    216    219    239     1  0.0000000  0.6508444  3
    217    216    219    220     1  0.0000000  0.6508444  3
    217    216    219    221     1  0.0000000  0.6508444  3
    217    216    222    223     1  0.0000000  1.2552000  3
    217    216    222    226     1  0.0000000  1.2552000  3
    218    216    219    239     1  0.0000000  0.6508444  3
    218    216    219    220     1  0.0000000  0.6508444  3
    218    216    219    221     1  0.0000000  0.6508444  3
    218    216    222    223     1  0.0000000  1.2552000  3
    218    216    222    226     1  0.0000000  1.2552000  3
    220    219    216    222     1  0.0000000  0.6508444  3
    220    219    239    240     1  0.0000000  0.0000000  2
    221    219    216    222     1  0.0000000  0.6508444  3
    221    219    239    240     1  0.0000000  0.0000000  2
    222    223    232    233     1  0.0000000  0.6508444  3
    222    223    232    234     1  0.0000000  0.6508444  3
    222    226    229    230     1  0.0000000  0.6508444  3
    222    226    229    231     1  0.0000000  0.6508444  3
    223    222    226    227     1  0.0000000  1.2552000  3
    223    222    226    228     1  0.0000000  1.2552000  3
    224    223    222    226     1  0.0000000  1.2552000  3
    224    223    232    236     1  0.0000000  0.6508444  3
    224    223    232    233     1  0.0000000  0.6508444  3
    224    223    232    234     1  0.0000000  0.6508444  3
    225    223    222    226     1  0.0000000  1.2552000  3
    225    223    232    236     1  0.0000000  0.6508444  3
    225    223    232    233     1  0.0000000  0.6508444  3
    225    223    232    234     1  0.0000000  0.6508444  3
    227    226    229    235     1  0.0000000  0.6508444  3
    227    226    229    230     1  0.0000000  0.6508444  3
    227    226    229    231     1  0.0000000  0.6508444  3
    228    226    229    235     1  0.0000000  0.6508444  3
    228    226    229    230     1  0.0000000  0.6508444  3
    228    226    229    231     1  0.0000000  0.6508444  3
    229    235    514    515     1  180.0000771  10.4600000  2
    230    229    235    237     1  0.0000000  3.3472000  1
    230    229    235    237     1  0.0000000  0.0000000  2
    230    229    235    237     1  180.0000771  0.3347200  3
    230    229    235    514     1  180.0000771  0.0000000  2
    231    229    235    237     1  0.0000000  3.3472000  1
    231    229    235    237     1  0.0000000  0.0000000  2
    231    229    235    237     1  180.0000771  0.3347200  3
    231    229    235    514     1  180.0000771  0.0000000  2
    232    236    539    540     1  180.0000771  10.4600000  2
    233    232    236    238     1  0.0000000  3.3472000  1
    233    232    236    238     1  0.0000000  0.0000000  2
    233    232    236    238     1  180.0000771  0.3347200  3
    233    232    236    539     1  180.0000771  0.0000000  2
    234    232    236    238     1  0.0000000  3.3472000  1
    234    232    236    238     1  0.0000000  0.0000000  2
    234    232    236    238     1  180.0000771  0.3347200  3
    234    232    236    539     1  180.0000771  0.0000000  2
    235    514    494    495     1  0.0000000  0.0000000  2
    235    514    494    496     1  0.0000000  0.0000000  2
    236    539    519    520     1  0.0000000  0.0000000  2
    236    539    519    521     1  0.0000000  0.0000000  2
    237    235    514    515     1  0.0000000  8.3680000  1
    237    235    514    515     1  180.0000771  10.4600000  2
    238    236    539    540     1  0.0000000  8.3680000  1
    238    236    539    540     1  180.0000771  10.4600000  2
    241    244    264    265     1  0.0000000  0.0000000  2
    241    247    248    249     1  0.0000000  1.2552000  3
    241    247    248    250     1  0.0000000  1.2552000  3
    241    247    251    252     1  0.0000000  1.2552000  3
    241    247    251    253     1  0.0000000  1.2552000  3
    242    241    244    264     1  0.0000000  0.6508444  3
    242    241    244    245     1  0.0000000  0.6508444  3
    242    241    244    246     1  0.0000000  0.6508444  3
    242    241    247    248     1  0.0000000  1.2552000  3
    242    241    247    251     1  0.0000000  1.2552000  3
    243    241    244    264     1  0.0000000  0.6508444  3
    243    241    244    245     1  0.0000000  0.6508444  3
    243    241    244    246     1  0.0000000  0.6508444  3
    243    241    247    248     1  0.0000000  1.2552000  3
    243    241    247    251     1  0.0000000  1.2552000  3
    245    244    241    247     1  0.0000000  0.6508444  3
    245    244    264    265     1  0.0000000  0.0000000  2
    246    244    241    247     1  0.0000000  0.6508444  3
    246    244    264    265     1  0.0000000  0.0000000  2
    247    248    257    258     1  0.0000000  0.6508444  3
    247    248    257    259     1  0.0000000  0.6508444  3
    247    251    254    255     1  0.0000000  0.6508444  3
    247    251    254    256     1  0.0000000  0.6508444  3
    248    247    251    252     1  0.0000000  1.2552000  3
    248    247    251    253     1  0.0000000  1.2552000  3
    249    248    247    251     1  0.0000000  1.2552000  3
    249    248    257    261     1  0.0000000  0.6508444  3
    249    248    257    258     1  0.0000000  0.6508444  3
    249    248    257    259     1  0.0000000  0.6508444  3
    250    248    247    251     1  0.0000000  1.2552000  3
    250    248    257    261     1  0.0000000  0.6508444  3
    250    248    257    258     1  0.0000000  0.6508444  3
    250    248    257    259     1  0.0000000  0.6508444  3
    252    251    254    260     1  0.0000000  0.6508444  3
    252    251    254    255     1  0.0000000  0.6508444  3
    252    251    254    256     1  0.0000000  0.6508444  3
    253    251    254    260     1  0.0000000  0.6508444  3
    253    251    254    255     1  0.0000000  0.6508444  3
    253    251    254    256     1  0.0000000  0.6508444  3
    254    260    564    565     1  180.0000771  10.4600000  2
    255    254    260    262     1  0.0000000  3.3472000  1
    255    254    260    262     1  0.0000000  0.0000000  2
    255    254    260    262     1  180.0000771  0.3347200  3
    255    254    260    564     1  180.0000771  0.0000000  2
    256    254    260    262     1  0.0000000  3.3472000  1
    256    254    260    262     1  0.0000000  0.0000000  2
    256    254    260    262     1  180.0000771  0.3347200  3
    256    254    260    564     1  180.0000771  0.0000000  2
    257    261    589    590     1  180.0000771  10.4600000  2
    258    257    261    263     1  0.0000000  3.3472000  1
    258    257    261    263     1  0.0000000  0.0000000  2
    258    257    261    263     1  180.0000771  0.3347200  3
    258    257    261    589     1  180.0000771  0.0000000  2
    259    257    261    263     1  0.0000000  3.3472000  1
    259    257    261    263     1  0.0000000  0.0000000  2
    259    257    261    263     1  180.0000771  0.3347200  3
    259    257    261    589     1  180.0000771  0.0000000  2
    260    564    544    545     1  0.0000000  0.0000000  2
    260    564    544    546     1  0.0000000  0.0000000  2
    261    589    569    570     1  0.0000000  0.0000000  2
    261    589    569    571     1  0.0000000  0.0000000  2
    262    260    564    565     1  0.0000000  8.3680000  1
    262    260    564    565     1  180.0000771  10.4600000  2
    263    261    589    590     1  0.0000000  8.3680000  1
    263    261    589    590     1  180.0000771  10.4600000  2
    266    269    289    290     1  0.0000000  0.0000000  2
    266    272    273    274     1  0.0000000  1.2552000  3
    266    272    273    275     1  0.0000000  1.2552000  3
    266    272    276    277     1  0.0000000  1.2552000  3
    266    272    276    278     1  0.0000000  1.2552000  3
    267    266    269    289     1  0.0000000  0.6508444  3
    267    266    269    270     1  0.0000000  0.6508444  3
    267    266    269    271     1  0.0000000  0.6508444  3
    267    266    272    273     1  0.0000000  1.2552000  3
    267    266    272    276     1  0.0000000  1.2552000  3
    268    266    269    289     1  0.0000000  0.6508444  3
    268    266    269    270     1  0.0000000  0.6508444  3
    268    266    269    271     1  0.0000000  0.6508444  3
    268    266    272    273     1  0.0000000  1.2552000  3
    268    266    272    276     1  0.0000000  1.2552000  3
    270    269    266    272     1  0.0000000  0.6508444  3
    270    269    289    290     1  0.0000000  0.0000000  2
    271    269    266    272     1  0.0000000  0.6508444  3
    271    269    289    290     1  0.0000000  0.0000000  2
    272    273    282    283     1  0.0000000  0.6508444  3
    272    273    282    284     1  0.0000000  0.6508444  3
    272    276    279    280     1  0.0000000  0.6508444  3
    272    276    279    281     1  0.0000000  0.6508444  3
    273    272    276    277     1  0.0000000  1.2552000  3
    273    272    276    278     1  0.0000000  1.2552000  3
    274    273    272    276     1  0.0000000  1.2552000  3
    274    273    282    286     1  0.0000000  0.6508444  3
    274    273    282    283     1  0.0000000  0.6508444  3
    274    273    282    284     1  0.0000000  0.6508444  3
    275    273    272    276     1  0.0000000  1.2552000  3
    275    273    282    286     1  0.0000000  0.6508444  3
    275    273    282    283     1  0.0000000  0.6508444  3
    275    273    282    284     1  0.0000000  0.6508444  3
    277    276    279    285     1  0.0000000  0.6508444  3
    277    276    279    280     1  0.0000000  0.6508444  3
    277    276    279    281     1  0.0000000  0.6508444  3
    278    276    279    285     1  0.0000000  0.6508444  3
    278    276    279    280     1  0.0000000  0.6508444  3
    278    276    279    281     1  0.0000000  0.6508444  3
    279    285    614    615     1  180.0000771  10.4600000  2
    280    279    285    287     1  0.0000000  3.3472000  1
    280    279    285    287     1  0.0000000  0.0000000  2
    280    279    285    287     1  180.0000771  0.3347200  3
    280    279    285    614     1  180.0000771  0.0000000  2
    281    279    285    287     1  0.0000000  3.3472000  1
    281    279    285    287     1  0.0000000  0.0000000  2
    281    279    285    287     1  180.0000771  0.3347200  3
    281    279    285    614     1  180.0000771  0.0000000  2
    282    286    639    640     1  180.0000771  10.4600000  2
    283    282    286    288     1  0.0000000  3.3472000  1
    283    282    286    288     1  0.0000000  0.0000000  2
    283    282    286    288     1  180.0000771  0.3347200  3
    283    282    286    639     1  180.0000771  0.0000000  2
    284    282    286    288     1  0.0000000  3.3472000  1
    284    282    286    288     1  0.0000000  0.0000000  2
    284    282    286    288     1  180.0000771  0.3347200  3
    284    282    286    639     1  180.0000771  0.0000000  2
    285    614    594    595     1  0.0000000  0.0000000  2
    285    614    594    596     1  0.0000000  0.0000000  2
    286    639    619    620     1  0.0000000  0.0000000  2
    286    639    619    621     1  0.0000000  0.0000000  2
    287    285    614    615     1  0.0000000  8.3680000  1
    287    285    614    615     1  180.0000771  10.4600000  2
    288    286    639    640     1  0.0000000  8.3680000  1
    288    286    639    640     1  180.0000771  10.4600000  2
    291    294    314    315     1  0.0000000  0.0000000  2
    291    297    298    299     1  0.0000000  1.2552000  3
    291    297    298    300     1  0.0000000  1.2552000  3
    291    297    301    302     1  0.0000000  1.2552000  3
    291    297    301    303     1  0.0000000  1.2552000  3
    292    291    294    314     1  0.0000000  0.6508444  3
    292    291    294    295     1  0.0000000  0.6508444  3
    292    291    294    296     1  0.0000000  0.6508444  3
    292    291    297    298     1  0.0000000  1.2552000  3
    292    291    297    301     1  0.0000000  1.2552000  3
    293    291    294    314     1  0.0000000  0.6508444  3
    293    291    294    295     1  0.0000000  0.6508444  3
    293    291    294    296     1  0.0000000  0.6508444  3
    293    291    297    298     1  0.0000000  1.2552000  3
    293    291    297    301     1  0.0000000  1.2552000  3
    295    294    291    297     1  0.0000000  0.6508444  3
    295    294    314    315     1  0.0000000  0.0000000  2
    296    294    291    297     1  0.0000000  0.6508444  3
    296    294    314    315     1  0.0000000  0.0000000  2
    297    298    307    308     1  0.0000000  0.6508444  3
    297    298    307    309     1  0.0000000  0.6508444  3
    297    301    304    305     1  0.0000000  0.6508444  3
    297    301    304    306     1  0.0000000  0.6508444  3
    298    297    301    302     1  0.0000000  1.2552000  3
    298    297    301    303     1  0.0000000  1.2552000  3
    299    298    297    301     1  0.0000000  1.2552000  3
    299    298    307    311     1  0.0000000  0.6508444  3
    299    298    307    308     1  0.0000000  0.6508444  3
    299    298    307    309     1  0.0000000  0.6508444  3
    300    298    297    301     1  0.0000000  1.2552000  3
    300    298    307    311     1  0.0000000  0.6508444  3
    300    298    307    308     1  0.0000000  0.6508444  3
    300    298    307    309     1  0.0000000  0.6508444  3
    302    301    304    310     1  0.0000000  0.6508444  3
    302    301    304    305     1  0.0000000  0.6508444  3
    302    301    304    306     1  0.0000000  0.6508444  3
    303    301    304    310     1  0.0000000  0.6508444  3
    303    301    304    305     1  0.0000000  0.6508444  3
    303    301    304    306     1  0.0000000  0.6508444  3
    304    310    664    665     1  180.0000771  10.4600000  2
    305    304    310    312     1  0.0000000  3.3472000  1
    305    304    310    312     1  0.0000000  0.0000000  2
    305    304    310    312     1  180.0000771  0.3347200  3
    305    304    310    664     1  180.0000771  0.0000000  2
    306    304    310    312     1  0.0000000  3.3472000  1
    306    304    310    312     1  0.0000000  0.0000000  2
    306    304    310    312     1  180.0000771  0.3347200  3
    306    304    310    664     1  180.0000771  0.0000000  2
    307    311    689    690     1  180.0000771  10.4600000  2
    308    307    311    313     1  0.0000000  3.3472000  1
    308    307    311    313     1  0.0000000  0.0000000  2
    308    307    311    313     1  180.0000771  0.3347200  3
    308    307    311    689     1  180.0000771  0.0000000  2
    309    307    311    313     1  0.0000000  3.3472000  1
    309    307    311    313     1  0.0000000  0.0000000  2
    309    307    311    313     1  180.0000771  0.3347200  3
    309    307    311    689     1  180.0000771  0.0000000  2
    310    664    644    645     1  0.0000000  0.0000000  2
    310    664    644    646     1  0.0000000  0.0000000  2
    311    689    669    670     1  0.0000000  0.0000000  2
    311    689    669    671     1  0.0000000  0.0000000  2
    312    310    664    665     1  0.0000000  8.3680000  1
    312    310    664    665     1  180.0000771  10.4600000  2
    313    311    689    690     1  0.0000000  8.3680000  1
    313    311    689    690     1  180.0000771  10.4600000  2
    316    319    339    340     1  0.0000000  0.0000000  2
    316    322    323    324     1  0.0000000  1.2552000  3
    316    322    323    325     1  0.0000000  1.2552000  3
    316    322    326    327     1  0.0000000  1.2552000  3
    316    322    326    328     1  0.0000000  1.2552000  3
    317    316    319    339     1  0.0000000  0.6508444  3
    317    316    319    320     1  0.0000000  0.6508444  3
    317    316    319    321     1  0.0000000  0.6508444  3
    317    316    322    323     1  0.0000000  1.2552000  3
    317    316    322    326     1  0.0000000  1.2552000  3
    318    316    319    339     1  0.0000000  0.6508444  3
    318    316    319    320     1  0.0000000  0.6508444  3
    318    316    319    321     1  0.0000000  0.6508444  3
    318    316    322    323     1  0.0000000  1.2552000  3
    318    316    322    326     1  0.0000000  1.2552000  3
    320    319    316    322     1  0.0000000  0.6508444  3
    320    319    339    340     1  0.0000000  0.0000000  2
    321    319    316    322     1  0.0000000  0.6508444  3
    321    319    339    340     1  0.0000000  0.0000000  2
    322    323    332    333     1  0.0000000  0.6508444  3
    322    323    332    334     1  0.0000000  0.6508444  3
    322    326    329    330     1  0.0000000  0.6508444  3
    322    326    329    331     1  0.0000000  0.6508444  3
    323    322    326    327     1  0.0000000  1.2552000  3
    323    322    326    328     1  0.0000000  1.2552000  3
    324    323    322    326     1  0.0000000  1.2552000  3
    324    323    332    336     1  0.0000000  0.6508444  3
    324    323    332    333     1  0.0000000  0.6508444  3
    324    323    332    334     1  0.0000000  0.6508444  3
    325    323    322    326     1  0.0000000  1.2552000  3
    325    323    332    336     1  0.0000000  0.6508444  3
    325    323    332    333     1  0.0000000  0.6508444  3
    325    323    332    334     1  0.0000000  0.6508444  3
    327    326    329    335     1  0.0000000  0.6508444  3
    327    326    329    330     1  0.0000000  0.6508444  3
    327    326    329    331     1  0.0000000  0.6508444  3
    328    326    329    335     1  0.0000000  0.6508444  3
    328    326    329    330     1  0.0000000  0.6508444  3
    328    326    329    331     1  0.0000000  0.6508444  3
    329    335    714    715     1  180.0000771  10.4600000  2
    330    329    335    337     1  0.0000000  3.3472000  1
    330    329    335    337     1  0.0000000  0.0000000  2
    330    329    335    337     1  180.0000771  0.3347200  3
    330    329    335    714     1  180.0000771  0.0000000  2
    331    329    335    337     1  0.0000000  3.3472000  1
    331    329    335    337     1  0.0000000  0.0000000  2
    331    329    335    337     1  180.0000771  0.3347200  3
    331    329    335    714     1  180.0000771  0.0000000  2
    332    336    739    740     1  180.0000771  10.4600000  2
    333    332    336    338     1  0.0000000  3.3472000  1
    333    332    336    338     1  0.0000000  0.0000000  2
    333    332    336    338     1  180.0000771  0.3347200  3
    333    332    336    739     1  180.0000771  0.0000000  2
    334    332    336    338     1  0.0000000  3.3472000  1
    334    332    336    338     1  0.0000000  0.0000000  2
    334    332    336    338     1  180.0000771  0.3347200  3
    334    332    336    739     1  180.0000771  0.0000000  2
    335    714    694    695     1  0.0000000  0.0000000  2
    335    714    694    696     1  0.0000000  0.0000000  2
    336    739    719    720     1  0.0000000  0.0000000  2
    336    739    719    721     1  0.0000000  0.0000000  2
    337    335    714    715     1  0.0000000  8.3680000  1
    337    335    714    715     1  180.0000771  10.4600000  2
    338    336    739    740     1  0.0000000  8.3680000  1
    338    336    739    740     1  180.0000771  10.4600000  2
    341    344    364    365     1  0.0000000  0.0000000  2
    341    347    348    349     1  0.0000000  1.2552000  3
    341    347    348    350     1  0.0000000  1.2552000  3
    341    347    351    352     1  0.0000000  1.2552000  3
    341    347    351    353     1  0.0000000  1.2552000  3
    342    341    344    364     1  0.0000000  0.6508444  3
    342    341    344    345     1  0.0000000  0.6508444  3
    342    341    344    346     1  0.0000000  0.6508444  3
    342    341    347    348     1  0.0000000  1.2552000  3
    342    341    347    351     1  0.0000000  1.2552000  3
    343    341    344    364     1  0.0000000  0.6508444  3
    343    341    344    345     1  0.0000000  0.6508444  3
    343    341    344    346     1  0.0000000  0.6508444  3
    343    341    347    348     1  0.0000000  1.2552000  3
    343    341    347    351     1  0.0000000  1.2552000  3
    345    344    341    347     1  0.0000000  0.6508444  3
    345    344    364    365     1  0.0000000  0.0000000  2
    346    344    341    347     1  0.0000000  0.6508444  3
    346    344    364    365     1  0.0000000  0.0000000  2
    347    348    357    358     1  0.0000000  0.6508444  3
    347    348    357    359     1  0.0000000  0.6508444  3
    347    351    354    355     1  0.0000000  0.6508444  3
    347    351    354    356     1  0.0000000  0.6508444  3
    348    347    351    352     1  0.0000000  1.2552000  3
    348    347    351    353     1  0.0000000  1.2552000  3
    349    348    347    351     1  0.0000000  1.2552000  3
    349    348    357    361     1  0.0000000  0.6508444  3
    349    348    357    358     1  0.0000000  0.6508444  3
    349    348    357    359     1  0.0000000  0.6508444  3
    350    348    347    351     1  0.0000000  1.2552000  3
    350    348    357    361     1  0.0000000  0.6508444  3
    350    348    357    358     1  0.0000000  0.6508444  3
    350    348    357    359     1  0.0000000  0.6508444  3
    352    351    354    360     1  0.0000000  0.6508444  3
    352    351    354    355     1  0.0000000  0.6508444  3
    352    351    354    356     1  0.0000000  0.6508444  3
    353    351    354    360     1  0.0000000  0.6508444  3
    353    351    354    355     1  0.0000000  0.6508444  3
    353    351    354    356     1  0.0000000  0.6508444  3
    354    360    764    765     1  180.0000771  10.4600000  2
    355    354    360    362     1  0.0000000  3.3472000  1
    355    354    360    362     1  0.0000000  0.0000000  2
    355    354    360    362     1  180.0000771  0.3347200  3
    355    354    360    764     1  180.0000771  0.0000000  2
    356    354    360    362     1  0.0000000  3.3472000  1
    356    354    360    362     1  0.0000000  0.0000000  2
    356    354    360    362     1  180.0000771  0.3347200  3
    356    354    360    764     1  180.0000771  0.0000000  2
    357    361    789    790     1  180.0000771  10.4600000  2
    358    357    361    363     1  0.0000000  3.3472000  1
    358    357    361    363     1  0.0000000  0.0000000  2
    358    357    361    363     1  180.0000771  0.3347200  3
    358    357    361    789     1  180.0000771  0.0000000  2
    359    357    361    363     1  0.0000000  3.3472000  1
    359    357    361    363     1  0.0000000  0.0000000  2
    359    357    361    363     1  180.0000771  0.3347200  3
    359    357    361    789     1  180.0000771  0.0000000  2
    360    764    744    745     1  0.0000000  0.0000000  2
    360    764    744    746     1  0.0000000  0.0000000  2
    361    789    769    770     1  0.0000000  0.0000000  2
    361    789    769    771     1  0.0000000  0.0000000  2
    362    360    764    765     1  0.0000000  8.3680000  1
    362    360    764    765     1  180.0000771  10.4600000  2
    363    361    789    790     1  0.0000000  8.3680000  1
    363    361    789    790     1  180.0000771  10.4600000  2
    366    369    389    390     1  0.0000000  0.0000000  2
    366    372    373    374     1  0.0000000  1.2552000  3
    366    372    373    375     1  0.0000000  1.2552000  3
    366    372    376    377     1  0.0000000  1.2552000  3
    366    372    376    378     1  0.0000000  1.2552000  3
    367    366    369    389     1  0.0000000  0.6508444  3
    367    366    369    370     1  0.0000000  0.6508444  3
    367    366    369    371     1  0.0000000  0.6508444  3
    367    366    372    373     1  0.0000000  1.2552000  3
    367    366    372    376     1  0.0000000  1.2552000  3
    368    366    369    389     1  0.0000000  0.6508444  3
    368    366    369    370     1  0.0000000  0.6508444  3
    368    366    369    371     1  0.0000000  0.6508444  3
    368    366    372    373     1  0.0000000  1.2552000  3
    368    366    372    376     1  0.0000000  1.2552000  3
    370    369    366    372     1  0.0000000  0.6508444  3
    370    369    389    390     1  0.0000000  0.0000000  2
    371    369    366    372     1  0.0000000  0.6508444  3
    371    369    389    390     1  0.0000000  0.0000000  2
    372    373    382    383     1  0.0000000  0.6508444  3
    372    373    382    384     1  0.0000000  0.6508444  3
    372    376    379    380     1  0.0000000  0.6508444  3
    372    376    379    381     1  0.0000000  0.6508444  3
    373    372    376    377     1  0.0000000  1.2552000  3
    373    372    376    378     1  0.0000000  1.2552000  3
    374    373    372    376     1  0.0000000  1.2552000  3
    374    373    382    386     1  0.0000000  0.6508444  3
    374    373    382    383     1  0.0000000  0.6508444  3
    374    373    382    384     1  0.0000000  0.6508444  3
    375    373    372    376     1  0.0000000  1.2552000  3
    375    373    382    386     1  0.0000000  0.6508444  3
    375    373    382    383     1  0.0000000  0.6508444  3
    375    373    382    384     1  0.0000000  0.6508444  3
    377    376    379    385     1  0.0000000  0.6508444  3
    377    376    379    380     1  0.0000000  0.6508444  3
    377    376    379    381     1  0.0000000  0.6508444  3
    378    376    379    385     1  0.0000000  0.6508444  3
    378    376    379    380     1  0.0000000  0.6508444  3
    378    376    379    381     1  0.0000000  0.6508444  3
    379    385    814    815     1  180.0000771  10.4600000  2
    380    379    385    387     1  0.0000000  3.3472000  1
    380    379    385    387     1  0.0000000  0.0000000  2
    380    379    385    387     1  180.0000771  0.3347200  3
    380    379    385    814     1  180.0000771  0.0000000  2
    381    379    385    387     1  0.0000000  3.3472000  1
    381    379    385    387     1  0.0000000  0.0000000  2
    381    379    385    387     1  180.0000771  0.3347200  3
    381    379    385    814     1  180.0000771  0.0000000  2
    382    386    839    840     1  180.0000771  10.4600000  2
    383    382    386    388     1  0.0000000  3.3472000  1
    383    382    386    388     1  0.0000000  0.0000000  2
    383    382    386    388     1  180.0000771  0.3347200  3
    383    382    386    839     1  180.0000771  0.0000000  2
    384    382    386    388     1  0.0000000  3.3472000  1
    384    382    386    388     1  0.0000000  0.0000000  2
    384    382    386    388     1  180.0000771  0.3347200  3
    384    382    386    839     1  180.0000771  0.0000000  2
    385    814    794    795     1  0.0000000  0.0000000  2
    385    814    794    796     1  0.0000000  0.0000000  2
    386    839    819    820     1  0.0000000  0.0000000  2
    386    839    819    821     1  0.0000000  0.0000000  2
    387    385    814    815     1  0.0000000  8.3680000  1
    387    385    814    815     1  180.0000771  10.4600000  2
    388    386    839    840     1  0.0000000  8.3680000  1
    388    386    839    840     1  180.0000771  10.4600000  2
    391    394    414    415     1  0.0000000  0.0000000  2
    391    397    398    399     1  0.0000000  1.2552000  3
    391    397    398    400     1  0.0000000  1.2552000  3
    391    397    401    402     1  0.0000000  1.2552000  3
    391    397    401    403     1  0.0000000  1.2552000  3
    392    391    394    414     1  0.0000000  0.6508444  3
    392    391    394    395     1  0.0000000  0.6508444  3
    392    391    394    396     1  0.0000000  0.6508444  3
    392    391    397    398     1  0.0000000  1.2552000  3
    392    391    397    401     1  0.0000000  1.2552000  3
    393    391    394    414     1  0.0000000  0.6508444  3
    393    391    394    395     1  0.0000000  0.6508444  3
    393    391    394    396     1  0.0000000  0.6508444  3
    393    391    397    398     1  0.0000000  1.2552000  3
    393    391    397    401     1  0.0000000  1.2552000  3
    395    394    391    397     1  0.0000000  0.6508444  3
    395    394    414    415     1  0.0000000  0.0000000  2
    396    394    391    397     1  0.0000000  0.6508444  3
    396    394    414    415     1  0.0000000  0.0000000  2
    397    398    407    408     1  0.0000000  0.6508444  3
    397    398    407    409     1  0.0000000  0.6508444  3
    397    401    404    405     1  0.0000000  0.6508444  3
    397    401    404    406     1  0.0000000  0.6508444  3
    398    397    401    402     1  0.0000000  1.2552000  3
    398    397    401    403     1  0.0000000  1.2552000  3
    399    398    397    401     1  0.0000000  1.2552000  3
    399    398    407    411     1  0.0000000  0.6508444  3
    399    398    407    408     1  0.0000000  0.6508444  3
    399    398    407    409     1  0.0000000  0.6508444  3
    400    398    397    401     1  0.0000000  1.2552000  3
    400    398    407    411     1  0.0000000  0.6508444  3
    400    398    407    408     1  0.0000000  0.6508444  3
    400    398    407    409     1  0.0000000  0.6508444  3
    402    401    404    410     1  0.0000000  0.6508444  3
    402    401    404    405     1  0.0000000  0.6508444  3
    402    401    404    406     1  0.0000000  0.6508444  3
    403    401    404    410     1  0.0000000  0.6508444  3
    403    401    404    405     1  0.0000000  0.6508444  3
    403    401    404    406     1  0.0000000  0.6508444  3
    404    410    864    865     1  180.0000771  10.4600000  2
    405    404    410    412     1  0.0000000  3.3472000  1
    405    404    410    412     1  0.0000000  0.0000000  2
    405    404    410    412     1  180.0000771  0.3347200  3
    405    404    410    864     1  180.0000771  0.0000000  2
    406    404    410    412     1  0.0000000  3.3472000  1
    406    404    410    412     1  0.0000000  0.0000000  2
    406    404    410    412     1  180.0000771  0.3347200  3
    406    404    410    864     1  180.0000771  0.0000000  2
    407    411    889    890     1  180.0000771  10.4600000  2
    408    407    411    413     1  0.0000000  3.3472000  1
    408    407    411    413     1  0.0000000  0.0000000  2
    408    407    411    413     1  180.0000771  0.3347200  3
    408    407    411    889     1  180.0000771  0.0000000  2
    409    407    411    413     1  0.0000000  3.3472000  1
    409    407    411    413     1  0.0000000  0.0000000  2
    409    407    411    413     1  180.0000771  0.3347200  3
    409    407    411    889     1  180.0000771  0.0000000  2
    410    864    844    845     1  0.0000000  0.0000000  2
    410    864    844    846     1  0.0000000  0.0000000  2
    411    889    869    870     1  0.0000000  0.0000000  2
    411    889    869    871     1  0.0000000  0.0000000  2
    412    410    864    865     1  0.0000000  8.3680000  1
    412    410    864    865     1  180.0000771  10.4600000  2
    413    411    889    890     1  0.0000000  8.3680000  1
    413    411    889    890     1  180.0000771  10.4600000  2
    416    419    439    440     1  0.0000000  0.0000000  2
    416    422    423    424     1  0.0000000  1.2552000  3
    416    422    423    425     1  0.0000000  1.2552000  3
    416    422    426    427     1  0.0000000  1.2552000  3
    416    422    426    428     1  0.0000000  1.2552000  3
    417    416    419    439     1  0.0000000  0.6508444  3
    417    416    419    420     1  0.0000000  0.6508444  3
    417    416    419    421     1  0.0000000  0.6508444  3
    417    416    422    423     1  0.0000000  1.2552000  3
    417    416    422    426     1  0.0000000  1.2552000  3
    418    416    419    439     1  0.0000000  0.6508444  3
    418    416    419    420     1  0.0000000  0.6508444  3
    418    416    419    421     1  0.0000000  0.6508444  3
    418    416    422    423     1  0.0000000  1.2552000  3
    418    416    422    426     1  0.0000000  1.2552000  3
    420    419    416    422     1  0.0000000  0.6508444  3
    420    419    439    440     1  0.0000000  0.0000000  2
    421    419    416    422     1  0.0000000  0.6508444  3
    421    419    439    440     1  0.0000000  0.0000000  2
    422    423    432    433     1  0.0000000  0.6508444  3
    422    423    432    434     1  0.0000000  0.6508444  3
    422    426    429    430     1  0.0000000  0.6508444  3
    422    426    429    431     1  0.0000000  0.6508444  3
    423    422    426    427     1  0.0000000  1.2552000  3
    423    422    426    428     1  0.0000000  1.2552000  3
    424    423    422    426     1  0.0000000  1.2552000  3
    424    423    432    436     1  0.0000000  0.6508444  3
    424    423    432    433     1  0.0000000  0.6508444  3
    424    423    432    434     1  0.0000000  0.6508444  3
    425    423    422    426     1  0.0000000  1.2552000  3
    425    423    432    436     1  0.0000000  0.6508444  3
    425    423    432    433     1  0.0000000  0.6508444  3
    425    423    432    434     1  0.0000000  0.6508444  3
    427    426    429    435     1  0.0000000  0.6508444  3
    427    426    429    430     1  0.0000000  0.6508444  3
    427    426    429    431     1  0.0000000  0.6508444  3
    428    426    429    435     1  0.0000000  0.6508444  3
    428    426    429    430     1  0.0000000  0.6508444  3
    428    426    429    431     1  0.0000000  0.6508444  3
    429    435    914    915     1  180.0000771  10.4600000  2
    430    429    435    437     1  0.0000000  3.3472000  1
    430    429    435    437     1  0.0000000  0.0000000  2
    430    429    435    437     1  180.0000771  0.3347200  3
    430    429    435    914     1  180.0000771  0.0000000  2
    431    429    435    437     1  0.0000000  3.3472000  1
    431    429    435    437     1  0.0000000  0.0000000  2
    431    429    435    437     1  180.0000771  0.3347200  3
    431    429    435    914     1  180.0000771  0.0000000  2
    432    436    939    940     1  180.0000771  10.4600000  2
    433    432    436    438     1  0.0000000  3.3472000  1
    433    432    436    438     1  0.0000000  0.0000000  2
    433    432    436    438     1  180.0000771  0.3347200  3
    433    432    436    939     1  180.0000771  0.0000000  2
    434    432    436    438     1  0.0000000  3.3472000  1
    434    432    436    438     1  0.0000000  0.0000000  2
    434    432    436    438     1  180.0000771  0.3347200  3
    434    432    436    939     1  180.0000771  0.0000000  2
    435    914    894    895     1  0.0000000  0.0000000  2
    435    914    894    896     1  0.0000000  0.0000000  2
    436    939    919    920     1  0.0000000  0.0000000  2
    436    939    919    921     1  0.0000000  0.0000000  2
    437    435    914    915     1  0.0000000  8.3680000  1
    437    435    914    915     1  180.0000771  10.4600000  2
    438    436    939    940     1  0.0000000  8.3680000  1
    438    436    939    940     1  180.0000771  10.4600000  2
    441    444    464    465     1  0.0000000  0.0000000  2
    441    447    448    449     1  0.0000000  1.2552000  3
    441    447    448    450     1  0.0000000  1.2552000  3
    441    447    451    452     1  0.0000000  1.2552000  3
    441    447    451    453     1  0.0000000  1.2552000  3
    442    441    444    464     1  0.0000000  0.6508444  3
    442    441    444    445     1  0.0000000  0.6508444  3
    442    441    444    446     1  0.0000000  0.6508444  3
    442    441    447    448     1  0.0000000  1.2552000  3
    442    441    447    451     1  0.0000000  1.2552000  3
    443    441    444    464     1  0.0000000  0.6508444  3
    443    441    444    445     1  0.0000000  0.6508444  3
    443    441    444    446     1  0.0000000  0.6508444  3
    443    441    447    448     1  0.0000000  1.2552000  3
    443    441    447    451     1  0.0000000  1.2552000  3
    445    444    441    447     1  0.0000000  0.6508444  3
    445    444    464    465     1  0.0000000  0.0000000  2
    446    444    441    447     1  0.0000000  0.6508444  3
    446    444    464    465     1  0.0000000  0.0000000  2
    447    448    457    458     1  0.0000000  0.6508444  3
    447    448    457    459     1  0.0000000  0.6508444  3
    447    451    454    455     1  0.0000000  0.6508444  3
    447    451    454    456     1  0.0000000  0.6508444  3
    448    447    451    452     1  0.0000000  1.2552000  3
    448    447    451    453     1  0.0000000  1.2552000  3
    449    448    447    451     1  0.0000000  1.2552000  3
    449    448    457    461     1  0.0000000  0.6508444  3
    449    448    457    458     1  0.0000000  0.6508444  3
    449    448    457    459     1  0.0000000  0.6508444  3
    450    448    447    451     1  0.0000000  1.2552000  3
    450    448    457    461     1  0.0000000  0.6508444  3
    450    448    457    458     1  0.0000000  0.6508444  3
    450    448    457    459     1  0.0000000  0.6508444  3
    452    451    454    460     1  0.0000000  0.6508444  3
    452    451    454    455     1  0.0000000  0.6508444  3
    452    451    454    456     1  0.0000000  0.6508444  3
    453    451    454    460     1  0.0000000  0.6508444  3
    453    451    454    455     1  0.0000000  0.6508444  3
    453    451    454    456     1  0.0000000  0.6508444  3
    454    460    964    965     1  180.0000771  10.4600000  2
    455    454    460    462     1  0.0000000  3.3472000  1
    455    454    460    462     1  0.0000000  0.0000000  2
    455    454    460    462     1  180.0000771  0.3347200  3
    455    454    460    964     1  180.0000771  0.0000000  2
    456    454    460    462     1  0.0000000  3.3472000  1
    456    454    460    462     1  0.0000000  0.0000000  2
    456    454    460    462     1  180.0000771  0.3347200  3
    456    454    460    964     1  180.0000771  0.0000000  2
    457    461    989    990     1  180.0000771  10.4600000  2
    458    457    461    463     1  0.0000000  3.3472000  1
    458    457    461    463     1  0.0000000  0.0000000  2
    458    457    461    463     1  180.0000771  0.3347200  3
    458    457    461    989     1  180.0000771  0.0000000  2
    459    457    461    463     1  0.0000000  3.3472000  1
    459    457    461    463     1  0.0000000  0.0000000  2
    459    457    461    463     1  180.0000771  0.3347200  3
    459    457    461    989     1  180.0000771  0.0000000  2
    460    964    944    945     1  0.0000000  0.0000000  2
    460    964    944    946     1  0.0000000  0.0000000  2
    461    989    969    970     1  0.0000000  0.0000000  2
    461    989    969    971     1  0.0000000  0.0000000  2
    462    460    964    965     1  0.0000000  8.3680000  1
    462    460    964    965     1  180.0000771  10.4600000  2
    463    461    989    990     1  0.0000000  8.3680000  1
    463    461    989    990     1  180.0000771  10.4600000  2
    466    469    489    490     1  0.0000000  0.0000000  2
    466    472    473    474     1  0.0000000  1.2552000  3
    466    472    473    475     1  0.0000000  1.2552000  3
    466    472    476    477     1  0.0000000  1.2552000  3
    466    472    476    478     1  0.0000000  1.2552000  3
    467    466    469    489     1  0.0000000  0.6508444  3
    467    466    469    470     1  0.0000000  0.6508444  3
    467    466    469    471     1  0.0000000  0.6508444  3
    467    466    472    473     1  0.0000000  1.2552000  3
    467    466    472    476     1  0.0000000  1.2552000  3
    468    466    469    489     1  0.0000000  0.6508444  3
    468    466    469    470     1  0.0000000  0.6508444  3
    468    466    469    471     1  0.0000000  0.6508444  3
    468    466    472    473     1  0.0000000  1.2552000  3
    468    466    472    476     1  0.0000000  1.2552000  3
    470    469    466    472     1  0.0000000  0.6508444  3
    470    469    489    490     1  0.0000000  0.0000000  2
    471    469    466    472     1  0.0000000  0.6508444  3
    471    469    489    490     1  0.0000000  0.0000000  2
    472    473    482    483     1  0.0000000  0.6508444  3
    472    473    482    484     1  0.0000000  0.6508444  3
    472    476    479    480     1  0.0000000  0.6508444  3
    472    476    479    481     1  0.0000000  0.6508444  3
    473    472    476    477     1  0.0000000  1.2552000  3
    473    472    476    478     1  0.0000000  1.2552000  3
    474    473    472    476     1  0.0000000  1.2552000  3
    474    473    482    486     1  0.0000000  0.6508444  3
    474    473    482    483     1  0.0000000  0.6508444  3
    474    473    482    484     1  0.0000000  0.6508444  3
    475    473    472    476     1  0.0000000  1.2552000  3
    475    473    482    486     1  0.0000000  0.6508444  3
    475    473    482    483     1  0.0000000  0.6508444  3
    475    473    482    484     1  0.0000000  0.6508444  3
    477    476    479    485     1  0.0000000  0.6508444  3
    477    476    479    480     1  0.0000000  0.6508444  3
    477    476    479    481     1  0.0000000  0.6508444  3
    478    476    479    485     1  0.0000000  0.6508444  3
    478    476    479    480     1  0.0000000  0.6508444  3
    478    476    479    481     1  0.0000000  0.6508444  3
    479    485   1014   1015     1  180.0000771  10.4600000  2
    480    479    485    487     1  0.0000000  3.3472000  1
    480    479    485    487     1  0.0000000  0.0000000  2
    480    479    485    487     1  180.0000771  0.3347200  3
    480    479    485   1014     1  180.0000771  0.0000000  2
    481    479    485    487     1  0.0000000  3.3472000  1
    481    479    485    487     1  0.0000000  0.0000000  2
    481    479    485    487     1  180.0000771  0.3347200  3
    481    479    485   1014     1  180.0000771  0.0000000  2
    482    486   1039   1040     1  180.0000771  10.4600000  2
    483    482    486    488     1  0.0000000  3.3472000  1
    483    482    486    488     1  0.0000000  0.0000000  2
    483    482    486    488     1  180.0000771  0.3347200  3
    483    482    486   1039     1  180.0000771  0.0000000  2
    484    482    486    488     1  0.0000000  3.3472000  1
    484    482    486    488     1  0.0000000  0.0000000  2
    484    482    486    488     1  180.0000771  0.3347200  3
    484    482    486   1039     1  180.0000771  0.0000000  2
    485   1014    994    995     1  0.0000000  0.0000000  2
    485   1014    994    996     1  0.0000000  0.0000000  2
    486   1039   1019   1020     1  0.0000000  0.0000000  2
    486   1039   1019   1021     1  0.0000000  0.0000000  2
    487    485   1014   1015     1  0.0000000  8.3680000  1
    487    485   1014   1015     1  180.0000771  10.4600000  2
    488    486   1039   1040     1  0.0000000  8.3680000  1
    488    486   1039   1040     1  180.0000771  10.4600000  2
    491    494    514    515     1  0.0000000  0.0000000  2
    491    497    498    499     1  0.0000000  1.2552000  3
    491    497    498    500     1  0.0000000  1.2552000  3
    491    497    501    502     1  0.0000000  1.2552000  3
    491    497    501    503     1  0.0000000  1.2552000  3
    492    491    494    514     1  0.0000000  0.6508444  3
    492    491    494    495     1  0.0000000  0.6508444  3
    492    491    494    496     1  0.0000000  0.6508444  3
    492    491    497    498     1  0.0000000  1.2552000  3
    492    491    497    501     1  0.0000000  1.2552000  3
    493    491    494    514     1  0.0000000  0.6508444  3
    493    491    494    495     1  0.0000000  0.6508444  3
    493    491    494    496     1  0.0000000  0.6508444  3
    493    491    497    498     1  0.0000000  1.2552000  3
    493    491    497    501     1  0.0000000  1.2552000  3
    495    494    491    497     1  0.0000000  0.6508444  3
    495    494    514    515     1  0.0000000  0.0000000  2
    496    494    491    497     1  0.0000000  0.6508444  3
    496    494    514    515     1  0.0000000  0.0000000  2
    497    498    507    508     1  0.0000000  0.6508444  3
    497    498    507    509     1  0.0000000  0.6508444  3
    497    501    504    505     1  0.0000000  0.6508444  3
    497    501    504    506     1  0.0000000  0.6508444  3
    498    497    501    502     1  0.0000000  1.2552000  3
    498    497    501    503     1  0.0000000  1.2552000  3
    499    498    497    501     1  0.0000000  1.2552000  3
    499    498    507    511     1  0.0000000  0.6508444  3
    499    498    507    508     1  0.0000000  0.6508444  3
    499    498    507    509     1  0.0000000  0.6508444  3
    500    498    497    501     1  0.0000000  1.2552000  3
    500    498    507    511     1  0.0000000  0.6508444  3
    500    498    507    508     1  0.0000000  0.6508444  3
    500    498    507    509     1  0.0000000  0.6508444  3
    502    501    504    510     1  0.0000000  0.6508444  3
    502    501    504    505     1  0.0000000  0.6508444  3
    502    501    504    506     1  0.0000000  0.6508444  3
    503    501    504    510     1  0.0000000  0.6508444  3
    503    501    504    505     1  0.0000000  0.6508444  3
    503    501    504    506     1  0.0000000  0.6508444  3
    504    510   1064   1065     1  180.0000771  10.4600000  2
    505    504    510    512     1  0.0000000  3.3472000  1
    505    504    510    512     1  0.0000000  0.0000000  2
    505    504    510    512     1  180.0000771  0.3347200  3
    505    504    510   1064     1  180.0000771  0.0000000  2
    506    504    510    512     1  0.0000000  3.3472000  1
    506    504    510    512     1  0.0000000  0.0000000  2
    506    504    510    512     1  180.0000771  0.3347200  3
    506    504    510   1064     1  180.0000771  0.0000000  2
    507    511   1089   1090     1  180.0000771  10.4600000  2
    508    507    511    513     1  0.0000000  3.3472000  1
    508    507    511    513     1  0.0000000  0.0000000  2
    508    507    511    513     1  180.0000771  0.3347200  3
    508    507    511   1089     1  180.0000771  0.0000000  2
    509    507    511    513     1  0.0000000  3.3472000  1
    509    507    511    513     1  0.0000000  0.0000000  2
    509    507    511    513     1  180.0000771  0.3347200  3
    509    507    511   1089     1  180.0000771  0.0000000  2
    510   1064   1044   1045     1  0.0000000  0.0000000  2
    510   1064   1044   1046     1  0.0000000  0.0000000  2
    511   1089   1069   1070     1  0.0000000  0.0000000  2
    511   1089   1069   1071     1  0.0000000  0.0000000  2
    512    510   1064   1065     1  0.0000000  8.3680000  1
    512    510   1064   1065     1  180.0000771  10.4600000  2
    513    511   1089   1090     1  0.0000000  8.3680000  1
    513    511   1089   1090     1  180.0000771  10.4600000  2
    516    519    539    540     1  0.0000000  0.0000000  2
    516    522    523    524     1  0.0000000  1.2552000  3
    516    522    523    525     1  0.0000000  1.2552000  3
    516    522    526    527     1  0.0000000  1.2552000  3
    516    522    526    528     1  0.0000000  1.2552000  3
    517    516    519    539     1  0.0000000  0.6508444  3
    517    516    519    520     1  0.0000000  0.6508444  3
    517    516    519    521     1  0.0000000  0.6508444  3
    517    516    522    523     1  0.0000000  1.2552000  3
    517    516    522    526     1  0.0000000  1.2552000  3
    518    516    519    539     1  0.0000000  0.6508444  3
    518    516    519    520     1  0.0000000  0.6508444  3
    518    516    519    521     1  0.0000000  0.6508444  3
    518    516    522    523     1  0.0000000  1.2552000  3
    518    516    522    526     1  0.0000000  1.2552000  3
    520    519    516    522     1  0.0000000  0.6508444  3
    520    519    539    540     1  0.0000000  0.0000000  2
    521    519    516    522     1  0.0000000  0.6508444  3
    521    519    539    540     1  0.0000000  0.0000000  2
    522    523    532    533     1  0.0000000  0.6508444  3
    522    523    532    534     1  0.0000000  0.6508444  3
    522    526    529    530     1  0.0000000  0.6508444  3
    522    526    529    531     1  0.0000000  0.6508444  3
    523    522    526    527     1  0.0000000  1.2552000  3
    523    522    526    528     1  0.0000000  1.2552000  3
    524    523    522    526     1  0.0000000  1.2552000  3
    524    523    532    536     1  0.0000000  0.6508444  3
    524    523    532    533     1  0.0000000  0.6508444  3
    524    523    532    534     1  0.0000000  0.6508444  3
    525    523    522    526     1  0.0000000  1.2552000  3
    525    523    532    536     1  0.0000000  0.6508444  3
    525    523    532    533     1  0.0000000  0.6508444  3
    525    523    532    534     1  0.0000000  0.6508444  3
    527    526    529    535     1  0.0000000  0.6508444  3
    527    526    529    530     1  0.0000000  0.6508444  3
    527    526    529    531     1  0.0000000  0.6508444  3
    528    526    529    535     1  0.0000000  0.6508444  3
    528    526    529    530     1  0.0000000  0.6508444  3
    528    526    529    531     1  0.0000000  0.6508444  3
    529    535   1114   1115     1  180.0000771  10.4600000  2
    530    529    535    537     1  0.0000000  3.3472000  1
    530    529    535    537     1  0.0000000  0.0000000  2
    530    529    535    537     1  180.0000771  0.3347200  3
    530    529    535   1114     1  180.0000771  0.0000000  2
    531    529    535    537     1  0.0000000  3.3472000  1
    531    529    535    537     1  0.0000000  0.0000000  2
    531    529    535    537     1  180.0000771  0.3347200  3
    531    529    535   1114     1  180.0000771  0.0000000  2
    532    536   1139   1140     1  180.0000771  10.4600000  2
    533    532    536    538     1  0.0000000  3.3472000  1
    533    532    536    538     1  0.0000000  0.0000000  2
    533    532    536    538     1  180.0000771  0.3347200  3
    533    532    536   1139     1  180.0000771  0.0000000  2
    534    532    536    538     1  0.0000000  3.3472000  1
    534    532    536    538     1  0.0000000  0.0000000  2
    534    532    536    538     1  180.0000771  0.3347200  3
    534    532    536   1139     1  180.0000771  0.0000000  2
    535   1114   1094   1095     1  0.0000000  0.0000000  2
    535   1114   1094   1096     1  0.0000000  0.0000000  2
    536   1139   1119   1120     1  0.0000000  0.0000000  2
    536   1139   1119   1121     1  0.0000000  0.0000000  2
    537    535   1114   1115     1  0.0000000  8.3680000  1
    537    535   1114   1115     1  180.0000771  10.4600000  2
    538    536   1139   1140     1  0.0000000  8.3680000  1
    538    536   1139   1140     1  180.0000771  10.4600000  2
    541    544    564    565     1  0.0000000  0.0000000  2
    541    547    548    549     1  0.0000000  1.2552000  3
    541    547    548    550     1  0.0000000  1.2552000  3
    541    547    551    552     1  0.0000000  1.2552000  3
    541    547    551    553     1  0.0000000  1.2552000  3
    542    541    544    564     1  0.0000000  0.6508444  3
    542    541    544    545     1  0.0000000  0.6508444  3
    542    541    544    546     1  0.0000000  0.6508444  3
    542    541    547    548     1  0.0000000  1.2552000  3
    542    541    547    551     1  0.0000000  1.2552000  3
    543    541    544    564     1  0.0000000  0.6508444  3
    543    541    544    545     1  0.0000000  0.6508444  3
    543    541    544    546     1  0.0000000  0.6508444  3
    543    541    547    548     1  0.0000000  1.2552000  3
    543    541    547    551     1  0.0000000  1.2552000  3
    545    544    541    547     1  0.0000000  0.6508444  3
    545    544    564    565     1  0.0000000  0.0000000  2
    546    544    541    547     1  0.0000000  0.6508444  3
    546    544    564    565     1  0.0000000  0.0000000  2
    547    548    557    558     1  0.0000000  0.6508444  3
    547    548    557    559     1  0.0000000  0.6508444  3
    547    551    554    555     1  0.0000000  0.6508444  3
    547    551    554    556     1  0.0000000  0.6508444  3
    548    547    551    552     1  0.0000000  1.2552000  3
    548    547    551    553     1  0.0000000  1.2552000  3
    549    548    547    551     1  0.0000000  1.2552000  3
    549    548    557    561     1  0.0000000  0.6508444  3
    549    548    557    558     1  0.0000000  0.6508444  3
    549    548    557    559     1  0.0000000  0.6508444  3
    550    548    547    551     1  0.0000000  1.2552000  3
    550    548    557    561     1  0.0000000  0.6508444  3
    550    548    557    558     1  0.0000000  0.6508444  3
    550    548    557    559     1  0.0000000  0.6508444  3
    552    551    554    560     1  0.0000000  0.6508444  3
    552    551    554    555     1  0.0000000  0.6508444  3
    552    551    554    556     1  0.0000000  0.6508444  3
    553    551    554    560     1  0.0000000  0.6508444  3
    553    551    554    555     1  0.0000000  0.6508444  3
    553    551    554    556     1  0.0000000  0.6508444  3
    554    560   1164   1165     1  180.0000771  10.4600000  2
    555    554    560    562     1  0.0000000  3.3472000  1
    555    554    560    562     1  0.0000000  0.0000000  2
    555    554    560    562     1  180.0000771  0.3347200  3
    555    554    560   1164     1  180.0000771  0.0000000  2
    556    554    560    562     1  0.0000000  3.3472000  1
    556    554    560    562     1  0.0000000  0.0000000  2
    556    554    560    562     1  180.0000771  0.3347200  3
    556    554    560   1164     1  180.0000771  0.0000000  2
    557    561   1189   1190     1  180.0000771  10.4600000  2
    558    557    561    563     1  0.0000000  3.3472000  1
    558    557    561    563     1  0.0000000  0.0000000  2
    558    557    561    563     1  180.0000771  0.3347200  3
    558    557    561   1189     1  180.0000771  0.0000000  2
    559    557    561    563     1  0.0000000  3.3472000  1
    559    557    561    563     1  0.0000000  0.0000000  2
    559    557    561    563     1  180.0000771  0.3347200  3
    559    557    561   1189     1  180.0000771  0.0000000  2
    560   1164   1144   1145     1  0.0000000  0.0000000  2
    560   1164   1144   1146     1  0.0000000  0.0000000  2
    561   1189   1169   1170     1  0.0000000  0.0000000  2
    561   1189   1169   1171     1  0.0000000  0.0000000  2
    562    560   1164   1165     1  0.0000000  8.3680000  1
    562    560   1164   1165     1  180.0000771  10.4600000  2
    563    561   1189   1190     1  0.0000000  8.3680000  1
    563    561   1189   1190     1  180.0000771  10.4600000  2
    566    569    589    590     1  0.0000000  0.0000000  2
    566    572    573    574     1  0.0000000  1.2552000  3
    566    572    573    575     1  0.0000000  1.2552000  3
    566    572    576    577     1  0.0000000  1.2552000  3
    566    572    576    578     1  0.0000000  1.2552000  3
    567    566    569    589     1  0.0000000  0.6508444  3
    567    566    569    570     1  0.0000000  0.6508444  3
    567    566    569    571     1  0.0000000  0.6508444  3
    567    566    572    573     1  0.0000000  1.2552000  3
    567    566    572    576     1  0.0000000  1.2552000  3
    568    566    569    589     1  0.0000000  0.6508444  3
    568    566    569    570     1  0.0000000  0.6508444  3
    568    566    569    571     1  0.0000000  0.6508444  3
    568    566    572    573     1  0.0000000  1.2552000  3
    568    566    572    576     1  0.0000000  1.2552000  3
    570    569    566    572     1  0.0000000  0.6508444  3
    570    569    589    590     1  0.0000000  0.0000000  2
    571    569    566    572     1  0.0000000  0.6508444  3
    571    569    589    590     1  0.0000000  0.0000000  2
    572    573    582    583     1  0.0000000  0.6508444  3
    572    573    582    584     1  0.0000000  0.6508444  3
    572    576    579    580     1  0.0000000  0.6508444  3
    572    576    579    581     1  0.0000000  0.6508444  3
    573    572    576    577     1  0.0000000  1.2552000  3
    573    572    576    578     1  0.0000000  1.2552000  3
    574    573    572    576     1  0.0000000  1.2552000  3
    574    573    582    586     1  0.0000000  0.6508444  3
    574    573    582    583     1  0.0000000  0.6508444  3
    574    573    582    584     1  0.0000000  0.6508444  3
    575    573    572    576     1  0.0000000  1.2552000  3
    575    573    582    586     1  0.0000000  0.6508444  3
    575    573    582    583     1  0.0000000  0.6508444  3
    575    573    582    584     1  0.0000000  0.6508444  3
    577    576    579    585     1  0.0000000  0.6508444  3
    577    576    579    580     1  0.0000000  0.6508444  3
    577    576    579    581     1  0.0000000  0.6508444  3
    578    576    579    585     1  0.0000000  0.6508444  3
    578    576    579    580     1  0.0000000  0.6508444  3
    578    576    579    581     1  0.0000000  0.6508444  3
    579    585   1214   1215     1  180.0000771  10.4600000  2
    580    579    585    587     1  0.0000000  3.3472000  1
    580    579    585    587     1  0.0000000  0.0000000  2
    580    579    585    587     1  180.0000771  0.3347200  3
    580    579    585   1214     1  180.0000771  0.0000000  2
    581    579    585    587     1  0.0000000  3.3472000  1
    581    579    585    587     1  0.0000000  0.0000000  2
    581    579    585    587     1  180.0000771  0.3347200  3
    581    579    585   1214     1  180.0000771  0.0000000  2
    582    586   1239   1240     1  180.0000771  10.4600000  2
    583    582    586    588     1  0.0000000  3.3472000  1
    583    582    586    588     1  0.0000000  0.0000000  2
    583    582    586    588     1  180.0000771  0.3347200  3
    583    582    586   1239     1  180.0000771  0.0000000  2
    584    582    586    588     1  0.0000000  3.3472000  1
    584    582    586    588     1  0.0000000  0.0000000  2
    584    582    586    588     1  180.0000771  0.3347200  3
    584    582    586   1239     1  180.0000771  0.0000000  2
    585   1214   1194   1195     1  0.0000000  0.0000000  2
    585   1214   1194   1196     1  0.0000000  0.0000000  2
    586   1239   1219   1220     1  0.0000000  0.0000000  2
    586   1239   1219   1221     1  0.0000000  0.0000000  2
    587    585   1214   1215     1  0.0000000  8.3680000  1
    587    585   1214   1215     1  180.0000771  10.4600000  2
    588    586   1239   1240     1  0.0000000  8.3680000  1
    588    586   1239   1240     1  180.0000771  10.4600000  2
    591    594    614    615     1  0.0000000  0.0000000  2
    591    597    598    599     1  0.0000000  1.2552000  3
    591    597    598    600     1  0.0000000  1.2552000  3
    591    597    601    602     1  0.0000000  1.2552000  3
    591    597    601    603     1  0.0000000  1.2552000  3
    592    591    594    614     1  0.0000000  0.6508444  3
    592    591    594    595     1  0.0000000  0.6508444  3
    592    591    594    596     1  0.0000000  0.6508444  3
    592    591    597    598     1  0.0000000  1.2552000  3
    592    591    597    601     1  0.0000000  1.2552000  3
    593    591    594    614     1  0.0000000  0.6508444  3
    593    591    594    595     1  0.0000000  0.6508444  3
    593    591    594    596     1  0.0000000  0.6508444  3
    593    591    597    598     1  0.0000000  1.2552000  3
    593    591    597    601     1  0.0000000  1.2552000  3
    595    594    591    597     1  0.0000000  0.6508444  3
    595    594    614    615     1  0.0000000  0.0000000  2
    596    594    591    597     1  0.0000000  0.6508444  3
    596    594    614    615     1  0.0000000  0.0000000  2
    597    598    607    608     1  0.0000000  0.6508444  3
    597    598    607    609     1  0.0000000  0.6508444  3
    597    601    604    605     1  0.0000000  0.6508444  3
    597    601    604    606     1  0.0000000  0.6508444  3
    598    597    601    602     1  0.0000000  1.2552000  3
    598    597    601    603     1  0.0000000  1.2552000  3
    599    598    597    601     1  0.0000000  1.2552000  3
    599    598    607    611     1  0.0000000  0.6508444  3
    599    598    607    608     1  0.0000000  0.6508444  3
    599    598    607    609     1  0.0000000  0.6508444  3
    600    598    597    601     1  0.0000000  1.2552000  3
    600    598    607    611     1  0.0000000  0.6508444  3
    600    598    607    608     1  0.0000000  0.6508444  3
    600    598    607    609     1  0.0000000  0.6508444  3
    602    601    604    610     1  0.0000000  0.6508444  3
    602    601    604    605     1  0.0000000  0.6508444  3
    602    601    604    606     1  0.0000000  0.6508444  3
    603    601    604    610     1  0.0000000  0.6508444  3
    603    601    604    605     1  0.0000000  0.6508444  3
    603    601    604    606     1  0.0000000  0.6508444  3
    604    610   1264   1265     1  180.0000771  10.4600000  2
    605    604    610    612     1  0.0000000  3.3472000  1
    605    604    610    612     1  0.0000000  0.0000000  2
    605    604    610    612     1  180.0000771  0.3347200  3
    605    604    610   1264     1  180.0000771  0.0000000  2
    606    604    610    612     1  0.0000000  3.3472000  1
    606    604    610    612     1  0.0000000  0.0000000  2
    606    604    610    612     1  180.0000771  0.3347200  3
    606    604    610   1264     1  180.0000771  0.0000000  2
    607    611   1289   1290     1  180.0000771  10.4600000  2
    608    607    611    613     1  0.0000000  3.3472000  1
    608    607    611    613     1  0.0000000  0.0000000  2
    608    607    611    613     1  180.0000771  0.3347200  3
    608    607    611   1289     1  180.0000771  0.0000000  2
    609    607    611    613     1  0.0000000  3.3472000  1
    609    607    611    613     1  0.0000000  0.0000000  2
    609    607    611    613     1  180.0000771  0.3347200  3
    609    607    611   1289     1  180.0000771  0.0000000  2
    610   1264   1244   1245     1  0.0000000  0.0000000  2
    610   1264   1244   1246     1  0.0000000  0.0000000  2
    611   1289   1269   1270     1  0.0000000  0.0000000  2
    611   1289   1269   1271     1  0.0000000  0.0000000  2
    612    610   1264   1265     1  0.0000000  8.3680000  1
    612    610   1264   1265     1  180.0000771  10.4600000  2
    613    611   1289   1290     1  0.0000000  8.3680000  1
    613    611   1289   1290     1  180.0000771  10.4600000  2
    616    619    639    640     1  0.0000000  0.0000000  2
    616    622    623    624     1  0.0000000  1.2552000  3
    616    622    623    625     1  0.0000000  1.2552000  3
    616    622    626    627     1  0.0000000  1.2552000  3
    616    622    626    628     1  0.0000000  1.2552000  3
    617    616    619    639     1  0.0000000  0.6508444  3
    617    616    619    620     1  0.0000000  0.6508444  3
    617    616    619    621     1  0.0000000  0.6508444  3
    617    616    622    623     1  0.0000000  1.2552000  3
    617    616    622    626     1  0.0000000  1.2552000  3
    618    616    619    639     1  0.0000000  0.6508444  3
    618    616    619    620     1  0.0000000  0.6508444  3
    618    616    619    621     1  0.0000000  0.6508444  3
    618    616    622    623     1  0.0000000  1.2552000  3
    618    616    622    626     1  0.0000000  1.2552000  3
    620    619    616    622     1  0.0000000  0.6508444  3
    620    619    639    640     1  0.0000000  0.0000000  2
    621    619    616    622     1  0.0000000  0.6508444  3
    621    619    639    640     1  0.0000000  0.0000000  2
    622    623    632    633     1  0.0000000  0.6508444  3
    622    623    632    634     1  0.0000000  0.6508444  3
    622    626    629    630     1  0.0000000  0.6508444  3
    622    626    629    631     1  0.0000000  0.6508444  3
    623    622    626    627     1  0.0000000  1.2552000  3
    623    622    626    628     1  0.0000000  1.2552000  3
    624    623    622    626     1  0.0000000  1.2552000  3
    624    623    632    636     1  0.0000000  0.6508444  3
    624    623    632    633     1  0.0000000  0.6508444  3
    624    623    632    634     1  0.0000000  0.6508444  3
    625    623    622    626     1  0.0000000  1.2552000  3
    625    623    632    636     1  0.0000000  0.6508444  3
    625    623    632    633     1  0.0000000  0.6508444  3
    625    623    632    634     1  0.0000000  0.6508444  3
    627    626    629    635     1  0.0000000  0.6508444  3
    627    626    629    630     1  0.0000000  0.6508444  3
    627    626    629    631     1  0.0000000  0.6508444  3
    628    626    629    635     1  0.0000000  0.6508444  3
    628    626    629    630     1  0.0000000  0.6508444  3
    628    626    629    631     1  0.0000000  0.6508444  3
    629    635   1314   1315     1  180.0000771  10.4600000  2
    630    629    635    637     1  0.0000000  3.3472000  1
    630    629    635    637     1  0.0000000  0.0000000  2
    630    629    635    637     1  180.0000771  0.3347200  3
    630    629    635   1314     1  180.0000771  0.0000000  2
    631    629    635    637     1  0.0000000  3.3472000  1
    631    629    635    637     1  0.0000000  0.0000000  2
    631    629    635    637     1  180.0000771  0.3347200  3
    631    629    635   1314     1  180.0000771  0.0000000  2
    632    636   1339   1340     1  180.0000771  10.4600000  2
    633    632    636    638     1  0.0000000  3.3472000  1
    633    632    636    638     1  0.0000000  0.0000000  2
    633    632    636    638     1  180.0000771  0.3347200  3
    633    632    636   1339     1  180.0000771  0.0000000  2
    634    632    636    638     1  0.0000000  3.3472000  1
    634    632    636    638     1  0.0000000  0.0000000  2
    634    632    636    638     1  180.0000771  0.3347200  3
    634    632    636   1339     1  180.0000771  0.0000000  2
    635   1314   1294   1295     1  0.0000000  0.0000000  2
    635   1314   1294   1296     1  0.0000000  0.0000000  2
    636   1339   1319   1320     1  0.0000000  0.0000000  2
    636   1339   1319   1321     1  0.0000000  0.0000000  2
    637    635   1314   1315     1  0.0000000  8.3680000  1
    637    635   1314   1315     1  180.0000771  10.4600000  2
    638    636   1339   1340     1  0.0000000  8.3680000  1
    638    636   1339   1340     1  180.0000771  10.4600000  2
    641    644    664    665     1  0.0000000  0.0000000  2
    641    647    648    649     1  0.0000000  1.2552000  3
    641    647    648    650     1  0.0000000  1.2552000  3
    641    647    651    652     1  0.0000000  1.2552000  3
    641    647    651    653     1  0.0000000  1.2552000  3
    642    641    644    664     1  0.0000000  0.6508444  3
    642    641    644    645     1  0.0000000  0.6508444  3
    642    641    644    646     1  0.0000000  0.6508444  3
    642    641    647    648     1  0.0000000  1.2552000  3
    642    641    647    651     1  0.0000000  1.2552000  3
    643    641    644    664     1  0.0000000  0.6508444  3
    643    641    644    645     1  0.0000000  0.6508444  3
    643    641    644    646     1  0.0000000  0.6508444  3
    643    641    647    648     1  0.0000000  1.2552000  3
    643    641    647    651     1  0.0000000  1.2552000  3
    645    644    641    647     1  0.0000000  0.6508444  3
    645    644    664    665     1  0.0000000  0.0000000  2
    646    644    641    647     1  0.0000000  0.6508444  3
    646    644    664    665     1  0.0000000  0.0000000  2
    647    648    657    658     1  0.0000000  0.6508444  3
    647    648    657    659     1  0.0000000  0.6508444  3
    647    651    654    655     1  0.0000000  0.6508444  3
    647    651    654    656     1  0.0000000  0.6508444  3
    648    647    651    652     1  0.0000000  1.2552000  3
    648    647    651    653     1  0.0000000  1.2552000  3
    649    648    647    651     1  0.0000000  1.2552000  3
    649    648    657    661     1  0.0000000  0.6508444  3
    649    648    657    658     1  0.0000000  0.6508444  3
    649    648    657    659     1  0.0000000  0.6508444  3
    650    648    647    651     1  0.0000000  1.2552000  3
    650    648    657    661     1  0.0000000  0.6508444  3
    650    648    657    658     1  0.0000000  0.6508444  3
    650    648    657    659     1  0.0000000  0.6508444  3
    652    651    654    660     1  0.0000000  0.6508444  3
    652    651    654    655     1  0.0000000  0.6508444  3
    652    651    654    656     1  0.0000000  0.6508444  3
    653    651    654    660     1  0.0000000  0.6508444  3
    653    651    654    655     1  0.0000000  0.6508444  3
    653    651    654    656     1  0.0000000  0.6508444  3
    654    660   1364   1365     1  180.0000771  10.4600000  2
    655    654    660    662     1  0.0000000  3.3472000  1
    655    654    660    662     1  0.0000000  0.0000000  2
    655    654    660    662     1  180.0000771  0.3347200  3
    655    654    660   1364     1  180.0000771  0.0000000  2
    656    654    660    662     1  0.0000000  3.3472000  1
    656    654    660    662     1  0.0000000  0.0000000  2
    656    654    660    662     1  180.0000771  0.3347200  3
    656    654    660   1364     1  180.0000771  0.0000000  2
    657    661   1389   1390     1  180.0000771  10.4600000  2
    658    657    661    663     1  0.0000000  3.3472000  1
    658    657    661    663     1  0.0000000  0.0000000  2
    658    657    661    663     1  180.0000771  0.3347200  3
    658    657    661   1389     1  180.0000771  0.0000000  2
    659    657    661    663     1  0.0000000  3.3472000  1
    659    657    661    663     1  0.0000000  0.0000000  2
    659    657    661    663     1  180.0000771  0.3347200  3
    659    657    661   1389     1  180.0000771  0.0000000  2
    660   1364   1344   1345     1  0.0000000  0.0000000  2
    660   1364   1344   1346     1  0.0000000  0.0000000  2
    661   1389   1369   1370     1  0.0000000  0.0000000  2
    661   1389   1369   1371     1  0.0000000  0.0000000  2
    662    660   1364   1365     1  0.0000000  8.3680000  1
    662    660   1364   1365     1  180.0000771  10.4600000  2
    663    661   1389   1390     1  0.0000000  8.3680000  1
    663    661   1389   1390     1  180.0000771  10.4600000  2
    666    669    689    690     1  0.0000000  0.0000000  2
    666    672    673    674     1  0.0000000  1.2552000  3
    666    672    673    675     1  0.0000000  1.2552000  3
    666    672    676    677     1  0.0000000  1.2552000  3
    666    672    676    678     1  0.0000000  1.2552000  3
    667    666    669    689     1  0.0000000  0.6508444  3
    667    666    669    670     1  0.0000000  0.6508444  3
    667    666    669    671     1  0.0000000  0.6508444  3
    667    666    672    673     1  0.0000000  1.2552000  3
    667    666    672    676     1  0.0000000  1.2552000  3
    668    666    669    689     1  0.0000000  0.6508444  3
    668    666    669    670     1  0.0000000  0.6508444  3
    668    666    669    671     1  0.0000000  0.6508444  3
    668    666    672    673     1  0.0000000  1.2552000  3
    668    666    672    676     1  0.0000000  1.2552000  3
    670    669    666    672     1  0.0000000  0.6508444  3
    670    669    689    690     1  0.0000000  0.0000000  2
    671    669    666    672     1  0.0000000  0.6508444  3
    671    669    689    690     1  0.0000000  0.0000000  2
    672    673    682    683     1  0.0000000  0.6508444  3
    672    673    682    684     1  0.0000000  0.6508444  3
    672    676    679    680     1  0.0000000  0.6508444  3
    672    676    679    681     1  0.0000000  0.6508444  3
    673    672    676    677     1  0.0000000  1.2552000  3
    673    672    676    678     1  0.0000000  1.2552000  3
    674    673    672    676     1  0.0000000  1.2552000  3
    674    673    682    686     1  0.0000000  0.6508444  3
    674    673    682    683     1  0.0000000  0.6508444  3
    674    673    682    684     1  0.0000000  0.6508444  3
    675    673    672    676     1  0.0000000  1.2552000  3
    675    673    682    686     1  0.0000000  0.6508444  3
    675    673    682    683     1  0.0000000  0.6508444  3
    675    673    682    684     1  0.0000000  0.6508444  3
    677    676    679    685     1  0.0000000  0.6508444  3
    677    676    679    680     1  0.0000000  0.6508444  3
    677    676    679    681     1  0.0000000  0.6508444  3
    678    676    679    685     1  0.0000000  0.6508444  3
    678    676    679    680     1  0.0000000  0.6508444  3
    678    676    679    681     1  0.0000000  0.6508444  3
    679    685   1414   1415     1  180.0000771  10.4600000  2
    680    679    685    687     1  0.0000000  3.3472000  1
    680    679    685    687     1  0.0000000  0.0000000  2
    680    679    685    687     1  180.0000771  0.3347200  3
    680    679    685   1414     1  180.0000771  0.0000000  2
    681    679    685    687     1  0.0000000  3.3472000  1
    681    679    685    687     1  0.0000000  0.0000000  2
    681    679    685    687     1  180.0000771  0.3347200  3
    681    679    685   1414     1  180.0000771  0.0000000  2
    682    686   1439   1440     1  180.0000771  10.4600000  2
    683    682    686    688     1  0.0000000  3.3472000  1
    683    682    686    688     1  0.0000000  0.0000000  2
    683    682    686    688     1  180.0000771  0.3347200  3
    683    682    686   1439     1  180.0000771  0.0000000  2
    684    682    686    688     1  0.0000000  3.3472000  1
    684    682    686    688     1  0.0000000  0.0000000  2
    684    682    686    688     1  180.0000771  0.3347200  3
    684    682    686   1439     1  180.0000771  0.0000000  2
    685   1414   1394   1395     1  0.0000000  0.0000000  2
    685   1414   1394   1396     1  0.0000000  0.0000000  2
    686   1439   1419   1420     1  0.0000000  0.0000000  2
    686   1439   1419   1421     1  0.0000000  0.0000000  2
    687    685   1414   1415     1  0.0000000  8.3680000  1
    687    685   1414   1415     1  180.0000771  10.4600000  2
    688    686   1439   1440     1  0.0000000  8.3680000  1
    688    686   1439   1440     1  180.0000771  10.4600000  2
    691    694    714    715     1  0.0000000  0.0000000  2
    691    697    698    699     1  0.0000000  1.2552000  3
    691    697    698    700     1  0.0000000  1.2552000  3
    691    697    701    702     1  0.0000000  1.2552000  3
    691    697    701    703     1  0.0000000  1.2552000  3
    692    691    694    714     1  0.0000000  0.6508444  3
    692    691    694    695     1  0.0000000  0.6508444  3
    692    691    694    696     1  0.0000000  0.6508444  3
    692    691    697    698     1  0.0000000  1.2552000  3
    692    691    697    701     1  0.0000000  1.2552000  3
    693    691    694    714     1  0.0000000  0.6508444  3
    693    691    694    695     1  0.0000000  0.6508444  3
    693    691    694    696     1  0.0000000  0.6508444  3
    693    691    697    698     1  0.0000000  1.2552000  3
    693    691    697    701     1  0.0000000  1.2552000  3
    695    694    691    697     1  0.0000000  0.6508444  3
    695    694    714    715     1  0.0000000  0.0000000  2
    696    694    691    697     1  0.0000000  0.6508444  3
    696    694    714    715     1  0.0000000  0.0000000  2
    697    698    707    708     1  0.0000000  0.6508444  3
    697    698    707    709     1  0.0000000  0.6508444  3
    697    701    704    705     1  0.0000000  0.6508444  3
    697    701    704    706     1  0.0000000  0.6508444  3
    698    697    701    702     1  0.0000000  1.2552000  3
    698    697    701    703     1  0.0000000  1.2552000  3
    699    698    697    701     1  0.0000000  1.2552000  3
    699    698    707    711     1  0.0000000  0.6508444  3
    699    698    707    708     1  0.0000000  0.6508444  3
    699    698    707    709     1  0.0000000  0.6508444  3
    700    698    697    701     1  0.0000000  1.2552000  3
    700    698    707    711     1  0.0000000  0.6508444  3
    700    698    707    708     1  0.0000000  0.6508444  3
    700    698    707    709     1  0.0000000  0.6508444  3
    702    701    704    710     1  0.0000000  0.6508444  3
    702    701    704    705     1  0.0000000  0.6508444  3
    702    701    704    706     1  0.0000000  0.6508444  3
    703    701    704    710     1  0.0000000  0.6508444  3
    703    701    704    705     1  0.0000000  0.6508444  3
    703    701    704    706     1  0.0000000  0.6508444  3
    704    710   1464   1465     1  180.0000771  10.4600000  2
    705    704    710    712     1  0.0000000  3.3472000  1
    705    704    710    712     1  0.0000000  0.0000000  2
    705    704    710    712     1  180.0000771  0.3347200  3
    705    704    710   1464     1  180.0000771  0.0000000  2
    706    704    710    712     1  0.0000000  3.3472000  1
    706    704    710    712     1  0.0000000  0.0000000  2
    706    704    710    712     1  180.0000771  0.3347200  3
    706    704    710   1464     1  180.0000771  0.0000000  2
    707    711   1489   1490     1  180.0000771  10.4600000  2
    708    707    711    713     1  0.0000000  3.3472000  1
    708    707    711    713     1  0.0000000  0.0000000  2
    708    707    711    713     1  180.0000771  0.3347200  3
    708    707    711   1489     1  180.0000771  0.0000000  2
    709    707    711    713     1  0.0000000  3.3472000  1
    709    707    711    713     1  0.0000000  0.0000000  2
    709    707    711    713     1  180.0000771  0.3347200  3
    709    707    711   1489     1  180.0000771  0.0000000  2
    710   1464   1444   1445     1  0.0000000  0.0000000  2
    710   1464   1444   1446     1  0.0000000  0.0000000  2
    711   1489   1469   1470     1  0.0000000  0.0000000  2
    711   1489   1469   1471     1  0.0000000  0.0000000  2
    712    710   1464   1465     1  0.0000000  8.3680000  1
    712    710   1464   1465     1  180.0000771  10.4600000  2
    713    711   1489   1490     1  0.0000000  8.3680000  1
    713    711   1489   1490     1  180.0000771  10.4600000  2
    716    719    739    740     1  0.0000000  0.0000000  2
    716    722    723    724     1  0.0000000  1.2552000  3
    716    722    723    725     1  0.0000000  1.2552000  3
    716    722    726    727     1  0.0000000  1.2552000  3
    716    722    726    728     1  0.0000000  1.2552000  3
    717    716    719    739     1  0.0000000  0.6508444  3
    717    716    719    720     1  0.0000000  0.6508444  3
    717    716    719    721     1  0.0000000  0.6508444  3
    717    716    722    723     1  0.0000000  1.2552000  3
    717    716    722    726     1  0.0000000  1.2552000  3
    718    716    719    739     1  0.0000000  0.6508444  3
    718    716    719    720     1  0.0000000  0.6508444  3
    718    716    719    721     1  0.0000000  0.6508444  3
    718    716    722    723     1  0.0000000  1.2552000  3
    718    716    722    726     1  0.0000000  1.2552000  3
    720    719    716    722     1  0.0000000  0.6508444  3
    720    719    739    740     1  0.0000000  0.0000000  2
    721    719    716    722     1  0.0000000  0.6508444  3
    721    719    739    740     1  0.0000000  0.0000000  2
    722    723    732    733     1  0.0000000  0.6508444  3
    722    723    732    734     1  0.0000000  0.6508444  3
    722    726    729    730     1  0.0000000  0.6508444  3
    722    726    729    731     1  0.0000000  0.6508444  3
    723    722    726    727     1  0.0000000  1.2552000  3
    723    722    726    728     1  0.0000000  1.2552000  3
    724    723    722    726     1  0.0000000  1.2552000  3
    724    723    732    736     1  0.0000000  0.6508444  3
    724    723    732    733     1  0.0000000  0.6508444  3
    724    723    732    734     1  0.0000000  0.6508444  3
    725    723    722    726     1  0.0000000  1.2552000  3
    725    723    732    736     1  0.0000000  0.6508444  3
    725    723    732    733     1  0.0000000  0.6508444  3
    725    723    732    734     1  0.0000000  0.6508444  3
    727    726    729    735     1  0.0000000  0.6508444  3
    727    726    729    730     1  0.0000000  0.6508444  3
    727    726    729    731     1  0.0000000  0.6508444  3
    728    726    729    735     1  0.0000000  0.6508444  3
    728    726    729    730     1  0.0000000  0.6508444  3
    728    726    729    731     1  0.0000000  0.6508444  3
    729    735   1514   1515     1  180.0000771  10.4600000  2
    730    729    735    737     1  0.0000000  3.3472000  1
    730    729    735    737     1  0.0000000  0.0000000  2
    730    729    735    737     1  180.0000771  0.3347200  3
    730    729    735   1514     1  180.0000771  0.0000000  2
    731    729    735    737     1  0.0000000  3.3472000  1
    731    729    735    737     1  0.0000000  0.0000000  2
    731    729    735    737     1  180.0000771  0.3347200  3
    731    729    735   1514     1  180.0000771  0.0000000  2
    732    736   1539   1540     1  180.0000771  10.4600000  2
    733    732    736    738     1  0.0000000  3.3472000  1
    733    732    736    738     1  0.0000000  0.0000000  2
    733    732    736    738     1  180.0000771  0.3347200  3
    733    732    736   1539     1  180.0000771  0.0000000  2
    734    732    736    738     1  0.0000000  3.3472000  1
    734    732    736    738     1  0.0000000  0.0000000  2
    734    732    736    738     1  180.0000771  0.3347200  3
    734    732    736   1539     1  180.0000771  0.0000000  2
    735   1514   1494   1495     1  0.0000000  0.0000000  2
    735   1514   1494   1496     1  0.0000000  0.0000000  2
    736   1539   1519   1520     1  0.0000000  0.0000000  2
    736   1539   1519   1521     1  0.0000000  0.0000000  2
    737    735   1514   1515     1  0.0000000  8.3680000  1
    737    735   1514   1515     1  180.0000771  10.4600000  2
    738    736   1539   1540     1  0.0000000  8.3680000  1
    738    736   1539   1540     1  180.0000771  10.4600000  2
    741    744    764    765     1  0.0000000  0.0000000  2
    741    747    748    749     1  0.0000000  1.2552000  3
    741    747    748    750     1  0.0000000  1.2552000  3
    741    747    751    752     1  0.0000000  1.2552000  3
    741    747    751    753     1  0.0000000  1.2552000  3
    742    741    744    764     1  0.0000000  0.6508444  3
    742    741    744    745     1  0.0000000  0.6508444  3
    742    741    744    746     1  0.0000000  0.6508444  3
    742    741    747    748     1  0.0000000  1.2552000  3
    742    741    747    751     1  0.0000000  1.2552000  3
    743    741    744    764     1  0.0000000  0.6508444  3
    743    741    744    745     1  0.0000000  0.6508444  3
    743    741    744    746     1  0.0000000  0.6508444  3
    743    741    747    748     1  0.0000000  1.2552000  3
    743    741    747    751     1  0.0000000  1.2552000  3
    745    744    741    747     1  0.0000000  0.6508444  3
    745    744    764    765     1  0.0000000  0.0000000  2
    746    744    741    747     1  0.0000000  0.6508444  3
    746    744    764    765     1  0.0000000  0.0000000  2
    747    748    757    758     1  0.0000000  0.6508444  3
    747    748    757    759     1  0.0000000  0.6508444  3
    747    751    754    755     1  0.0000000  0.6508444  3
    747    751    754    756     1  0.0000000  0.6508444  3
    748    747    751    752     1  0.0000000  1.2552000  3
    748    747    751    753     1  0.0000000  1.2552000  3
    749    748    747    751     1  0.0000000  1.2552000  3
    749    748    757    761     1  0.0000000  0.6508444  3
    749    748    757    758     1  0.0000000  0.6508444  3
    749    748    757    759     1  0.0000000  0.6508444  3
    750    748    747    751     1  0.0000000  1.2552000  3
    750    748    757    761     1  0.0000000  0.6508444  3
    750    748    757    758     1  0.0000000  0.6508444  3
    750    748    757    759     1  0.0000000  0.6508444  3
    752    751    754    760     1  0.0000000  0.6508444  3
    752    751    754    755     1  0.0000000  0.6508444  3
    752    751    754    756     1  0.0000000  0.6508444  3
    753    751    754    760     1  0.0000000  0.6508444  3
    753    751    754    755     1  0.0000000  0.6508444  3
    753    751    754    756     1  0.0000000  0.6508444  3
    754    760   1564   1565     1  180.0000771  10.4600000  2
    755    754    760    762     1  0.0000000  3.3472000  1
    755    754    760    762     1  0.0000000  0.0000000  2
    755    754    760    762     1  180.0000771  0.3347200  3
    755    754    760   1564     1  180.0000771  0.0000000  2
    756    754    760    762     1  0.0000000  3.3472000  1
    756    754    760    762     1  0.0000000  0.0000000  2
    756    754    760    762     1  180.0000771  0.3347200  3
    756    754    760   1564     1  180.0000771  0.0000000  2
    757    761   1589   1590     1  180.0000771  10.4600000  2
    758    757    761    763     1  0.0000000  3.3472000  1
    758    757    761    763     1  0.0000000  0.0000000  2
    758    757    761    763     1  180.0000771  0.3347200  3
    758    757    761   1589     1  180.0000771  0.0000000  2
    759    757    761    763     1  0.0000000  3.3472000  1
    759    757    761    763     1  0.0000000  0.0000000  2
    759    757    761    763     1  180.0000771  0.3347200  3
    759    757    761   1589     1  180.0000771  0.0000000  2
    760   1564   1544   1545     1  0.0000000  0.0000000  2
    760   1564   1544   1546     1  0.0000000  0.0000000  2
    761   1589   1569   1570     1  0.0000000  0.0000000  2
    761   1589   1569   1571     1  0.0000000  0.0000000  2
    762    760   1564   1565     1  0.0000000  8.3680000  1
    762    760   1564   1565     1  180.0000771  10.4600000  2
    763    761   1589   1590     1  0.0000000  8.3680000  1
    763    761   1589   1590     1  180.0000771  10.4600000  2
    766    769    789    790     1  0.0000000  0.0000000  2
    766    772    773    774     1  0.0000000  1.2552000  3
    766    772    773    775     1  0.0000000  1.2552000  3
    766    772    776    777     1  0.0000000  1.2552000  3
    766    772    776    778     1  0.0000000  1.2552000  3
    767    766    769    789     1  0.0000000  0.6508444  3
    767    766    769    770     1  0.0000000  0.6508444  3
    767    766    769    771     1  0.0000000  0.6508444  3
    767    766    772    773     1  0.0000000  1.2552000  3
    767    766    772    776     1  0.0000000  1.2552000  3
    768    766    769    789     1  0.0000000  0.6508444  3
    768    766    769    770     1  0.0000000  0.6508444  3
    768    766    769    771     1  0.0000000  0.6508444  3
    768    766    772    773     1  0.0000000  1.2552000  3
    768    766    772    776     1  0.0000000  1.2552000  3
    770    769    766    772     1  0.0000000  0.6508444  3
    770    769    789    790     1  0.0000000  0.0000000  2
    771    769    766    772     1  0.0000000  0.6508444  3
    771    769    789    790     1  0.0000000  0.0000000  2
    772    773    782    783     1  0.0000000  0.6508444  3
    772    773    782    784     1  0.0000000  0.6508444  3
    772    776    779    780     1  0.0000000  0.6508444  3
    772    776    779    781     1  0.0000000  0.6508444  3
    773    772    776    777     1  0.0000000  1.2552000  3
    773    772    776    778     1  0.0000000  1.2552000  3
    774    773    772    776     1  0.0000000  1.2552000  3
    774    773    782    786     1  0.0000000  0.6508444  3
    774    773    782    783     1  0.0000000  0.6508444  3
    774    773    782    784     1  0.0000000  0.6508444  3
    775    773    772    776     1  0.0000000  1.2552000  3
    775    773    782    786     1  0.0000000  0.6508444  3
    775    773    782    783     1  0.0000000  0.6508444  3
    775    773    782    784     1  0.0000000  0.6508444  3
    777    776    779    785     1  0.0000000  0.6508444  3
    777    776    779    780     1  0.0000000  0.6508444  3
    777    776    779    781     1  0.0000000  0.6508444  3
    778    776    779    785     1  0.0000000  0.6508444  3
    778    776    779    780     1  0.0000000  0.6508444  3
    778    776    779    781     1  0.0000000  0.6508444  3
    779    785   1614   1615     1  180.0000771  10.4600000  2
    780    779    785    787     1  0.0000000  3.3472000  1
    780    779    785    787     1  0.0000000  0.0000000  2
    780    779    785    787     1  180.0000771  0.3347200  3
    780    779    785   1614     1  180.0000771  0.0000000  2
    781    779    785    787     1  0.0000000  3.3472000  1
    781    779    785    787     1  0.0000000  0.0000000  2
    781    779    785    787     1  180.0000771  0.3347200  3
    781    779    785   1614     1  180.0000771  0.0000000  2
    782    786   1639   1640     1  180.0000771  10.4600000  2
    783    782    786    788     1  0.0000000  3.3472000  1
    783    782    786    788     1  0.0000000  0.0000000  2
    783    782    786    788     1  180.0000771  0.3347200  3
    783    782    786   1639     1  180.0000771  0.0000000  2
    784    782    786    788     1  0.0000000  3.3472000  1
    784    782    786    788     1  0.0000000  0.0000000  2
    784    782    786    788     1  180.0000771  0.3347200  3
    784    782    786   1639     1  180.0000771  0.0000000  2
    785   1614   1594   1595     1  0.0000000  0.0000000  2
    785   1614   1594   1596     1  0.0000000  0.0000000  2
    786   1639   1619   1620     1  0.0000000  0.0000000  2
    786   1639   1619   1621     1  0.0000000  0.0000000  2
    787    785   1614   1615     1  0.0000000  8.3680000  1
    787    785   1614   1615     1  180.0000771  10.4600000  2
    788    786   1639   1640     1  0.0000000  8.3680000  1
    788    786   1639   1640     1  180.0000771  10.4600000  2
    791    794    814    815     1  0.0000000  0.0000000  2
    791    797    798    799     1  0.0000000  1.2552000  3
    791    797    798    800     1  0.0000000  1.2552000  3
    791    797    801    802     1  0.0000000  1.2552000  3
    791    797    801    803     1  0.0000000  1.2552000  3
    792    791    794    814     1  0.0000000  0.6508444  3
    792    791    794    795     1  0.0000000  0.6508444  3
    792    791    794    796     1  0.0000000  0.6508444  3
    792    791    797    798     1  0.0000000  1.2552000  3
    792    791    797    801     1  0.0000000  1.2552000  3
    793    791    794    814     1  0.0000000  0.6508444  3
    793    791    794    795     1  0.0000000  0.6508444  3
    793    791    794    796     1  0.0000000  0.6508444  3
    793    791    797    798     1  0.0000000  1.2552000  3
    793    791    797    801     1  0.0000000  1.2552000  3
    795    794    791    797     1  0.0000000  0.6508444  3
    795    794    814    815     1  0.0000000  0.0000000  2
    796    794    791    797     1  0.0000000  0.6508444  3
    796    794    814    815     1  0.0000000  0.0000000  2
    797    798    807    808     1  0.0000000  0.6508444  3
    797    798    807    809     1  0.0000000  0.6508444  3
    797    801    804    805     1  0.0000000  0.6508444  3
    797    801    804    806     1  0.0000000  0.6508444  3
    798    797    801    802     1  0.0000000  1.2552000  3
    798    797    801    803     1  0.0000000  1.2552000  3
    799    798    797    801     1  0.0000000  1.2552000  3
    799    798    807    811     1  0.0000000  0.6508444  3
    799    798    807    808     1  0.0000000  0.6508444  3
    799    798    807    809     1  0.0000000  0.6508444  3
    800    798    797    801     1  0.0000000  1.2552000  3
    800    798    807    811     1  0.0000000  0.6508444  3
    800    798    807    808     1  0.0000000  0.6508444  3
    800    798    807    809     1  0.0000000  0.6508444  3
    802    801    804    810     1  0.0000000  0.6508444  3
    802    801    804    805     1  0.0000000  0.6508444  3
    802    801    804    806     1  0.0000000  0.6508444  3
    803    801    804    810     1  0.0000000  0.6508444  3
    803    801    804    805     1  0.0000000  0.6508444  3
    803    801    804    806     1  0.0000000  0.6508444  3
    804    810   1664   1665     1  180.0000771  10.4600000  2
    805    804    810    812     1  0.0000000  3.3472000  1
    805    804    810    812     1  0.0000000  0.0000000  2
    805    804    810    812     1  180.0000771  0.3347200  3
    805    804    810   1664     1  180.0000771  0.0000000  2
    806    804    810    812     1  0.0000000  3.3472000  1
    806    804    810    812     1  0.0000000  0.0000000  2
    806    804    810    812     1  180.0000771  0.3347200  3
    806    804    810   1664     1  180.0000771  0.0000000  2
    807    811   1689   1690     1  180.0000771  10.4600000  2
    808    807    811    813     1  0.0000000  3.3472000  1
    808    807    811    813     1  0.0000000  0.0000000  2
    808    807    811    813     1  180.0000771  0.3347200  3
    808    807    811   1689     1  180.0000771  0.0000000  2
    809    807    811    813     1  0.0000000  3.3472000  1
    809    807    811    813     1  0.0000000  0.0000000  2
    809    807    811    813     1  180.0000771  0.3347200  3
    809    807    811   1689     1  180.0000771  0.0000000  2
    810   1664   1644   1645     1  0.0000000  0.0000000  2
    810   1664   1644   1646     1  0.0000000  0.0000000  2
    811   1689   1669   1670     1  0.0000000  0.0000000  2
    811   1689   1669   1671     1  0.0000000  0.0000000  2
    812    810   1664   1665     1  0.0000000  8.3680000  1
    812    810   1664   1665     1  180.0000771  10.4600000  2
    813    811   1689   1690     1  0.0000000  8.3680000  1
    813    811   1689   1690     1  180.0000771  10.4600000  2
    816    819    839    840     1  0.0000000  0.0000000  2
    816    822    823    824     1  0.0000000  1.2552000  3
    816    822    823    825     1  0.0000000  1.2552000  3
    816    822    826    827     1  0.0000000  1.2552000  3
    816    822    826    828     1  0.0000000  1.2552000  3
    817    816    819    839     1  0.0000000  0.6508444  3
    817    816    819    820     1  0.0000000  0.6508444  3
    817    816    819    821     1  0.0000000  0.6508444  3
    817    816    822    823     1  0.0000000  1.2552000  3
    817    816    822    826     1  0.0000000  1.2552000  3
    818    816    819    839     1  0.0000000  0.6508444  3
    818    816    819    820     1  0.0000000  0.6508444  3
    818    816    819    821     1  0.0000000  0.6508444  3
    818    816    822    823     1  0.0000000  1.2552000  3
    818    816    822    826     1  0.0000000  1.2552000  3
    820    819    816    822     1  0.0000000  0.6508444  3
    820    819    839    840     1  0.0000000  0.0000000  2
    821    819    816    822     1  0.0000000  0.6508444  3
    821    819    839    840     1  0.0000000  0.0000000  2
    822    823    832    833     1  0.0000000  0.6508444  3
    822    823    832    834     1  0.0000000  0.6508444  3
    822    826    829    830     1  0.0000000  0.6508444  3
    822    826    829    831     1  0.0000000  0.6508444  3
    823    822    826    827     1  0.0000000  1.2552000  3
    823    822    826    828     1  0.0000000  1.2552000  3
    824    823    822    826     1  0.0000000  1.2552000  3
    824    823    832    836     1  0.0000000  0.6508444  3
    824    823    832    833     1  0.0000000  0.6508444  3
    824    823    832    834     1  0.0000000  0.6508444  3
    825    823    822    826     1  0.0000000  1.2552000  3
    825    823    832    836     1  0.0000000  0.6508444  3
    825    823    832    833     1  0.0000000  0.6508444  3
    825    823    832    834     1  0.0000000  0.6508444  3
    827    826    829    835     1  0.0000000  0.6508444  3
    827    826    829    830     1  0.0000000  0.6508444  3
    827    826    829    831     1  0.0000000  0.6508444  3
    828    826    829    835     1  0.0000000  0.6508444  3
    828    826    829    830     1  0.0000000  0.6508444  3
    828    826    829    831     1  0.0000000  0.6508444  3
    829    835   1714   1715     1  180.0000771  10.4600000  2
    830    829    835    837     1  0.0000000  3.3472000  1
    830    829    835    837     1  0.0000000  0.0000000  2
    830    829    835    837     1  180.0000771  0.3347200  3
    830    829    835   1714     1  180.0000771  0.0000000  2
    831    829    835    837     1  0.0000000  3.3472000  1
    831    829    835    837     1  0.0000000  0.0000000  2
    831    829    835    837     1  180.0000771  0.3347200  3
    831    829    835   1714     1  180.0000771  0.0000000  2
    832    836   1739   1740     1  180.0000771  10.4600000  2
    833    832    836    838     1  0.0000000  3.3472000  1
    833    832    836    838     1  0.0000000  0.0000000  2
    833    832    836    838     1  180.0000771  0.3347200  3
    833    832    836   1739     1  180.0000771  0.0000000  2
    834    832    836    838     1  0.0000000  3.3472000  1
    834    832    836    838     1  0.0000000  0.0000000  2
    834    832    836    838     1  180.0000771  0.3347200  3
    834    832    836   1739     1  180.0000771  0.0000000  2
    835   1714   1694   1695     1  0.0000000  0.0000000  2
    835   1714   1694   1696     1  0.0000000  0.0000000  2
    836   1739   1719   1720     1  0.0000000  0.0000000  2
    836   1739   1719   1721     1  0.0000000  0.0000000  2
    837    835   1714   1715     1  0.0000000  8.3680000  1
    837    835   1714   1715     1  180.0000771  10.4600000  2
    838    836   1739   1740     1  0.0000000  8.3680000  1
    838    836   1739   1740     1  180.0000771  10.4600000  2
    841    844    864    865     1  0.0000000  0.0000000  2
    841    847    848    849     1  0.0000000  1.2552000  3
    841    847    848    850     1  0.0000000  1.2552000  3
    841    847    851    852     1  0.0000000  1.2552000  3
    841    847    851    853     1  0.0000000  1.2552000  3
    842    841    844    864     1  0.0000000  0.6508444  3
    842    841    844    845     1  0.0000000  0.6508444  3
    842    841    844    846     1  0.0000000  0.6508444  3
    842    841    847    848     1  0.0000000  1.2552000  3
    842    841    847    851     1  0.0000000  1.2552000  3
    843    841    844    864     1  0.0000000  0.6508444  3
    843    841    844    845     1  0.0000000  0.6508444  3
    843    841    844    846     1  0.0000000  0.6508444  3
    843    841    847    848     1  0.0000000  1.2552000  3
    843    841    847    851     1  0.0000000  1.2552000  3
    845    844    841    847     1  0.0000000  0.6508444  3
    845    844    864    865     1  0.0000000  0.0000000  2
    846    844    841    847     1  0.0000000  0.6508444  3
    846    844    864    865     1  0.0000000  0.0000000  2
    847    848    857    858     1  0.0000000  0.6508444  3
    847    848    857    859     1  0.0000000  0.6508444  3
    847    851    854    855     1  0.0000000  0.6508444  3
    847    851    854    856     1  0.0000000  0.6508444  3
    848    847    851    852     1  0.0000000  1.2552000  3
    848    847    851    853     1  0.0000000  1.2552000  3
    849    848    847    851     1  0.0000000  1.2552000  3
    849    848    857    861     1  0.0000000  0.6508444  3
    849    848    857    858     1  0.0000000  0.6508444  3
    849    848    857    859     1  0.0000000  0.6508444  3
    850    848    847    851     1  0.0000000  1.2552000  3
    850    848    857    861     1  0.0000000  0.6508444  3
    850    848    857    858     1  0.0000000  0.6508444  3
    850    848    857    859     1  0.0000000  0.6508444  3
    852    851    854    860     1  0.0000000  0.6508444  3
    852    851    854    855     1  0.0000000  0.6508444  3
    852    851    854    856     1  0.0000000  0.6508444  3
    853    851    854    860     1  0.0000000  0.6508444  3
    853    851    854    855     1  0.0000000  0.6508444  3
    853    851    854    856     1  0.0000000  0.6508444  3
    854    860   1764   1765     1  180.0000771  10.4600000  2
    855    854    860    862     1  0.0000000  3.3472000  1
    855    854    860    862     1  0.0000000  0.0000000  2
    855    854    860    862     1  180.0000771  0.3347200  3
    855    854    860   1764     1  180.0000771  0.0000000  2
    856    854    860    862     1  0.0000000  3.3472000  1
    856    854    860    862     1  0.0000000  0.0000000  2
    856    854    860    862     1  180.0000771  0.3347200  3
    856    854    860   1764     1  180.0000771  0.0000000  2
    857    861   1789   1790     1  180.0000771  10.4600000  2
    858    857    861    863     1  0.0000000  3.3472000  1
    858    857    861    863     1  0.0000000  0.0000000  2
    858    857    861    863     1  180.0000771  0.3347200  3
    858    857    861   1789     1  180.0000771  0.0000000  2
    859    857    861    863     1  0.0000000  3.3472000  1
    859    857    861    863     1  0.0000000  0.0000000  2
    859    857    861    863     1  180.0000771  0.3347200  3
    859    857    861   1789     1  180.0000771  0.0000000  2
    860   1764   1744   1745     1  0.0000000  0.0000000  2
    860   1764   1744   1746     1  0.0000000  0.0000000  2
    861   1789   1769   1770     1  0.0000000  0.0000000  2
    861   1789   1769   1771     1  0.0000000  0.0000000  2
    862    860   1764   1765     1  0.0000000  8.3680000  1
    862    860   1764   1765     1  180.0000771  10.4600000  2
    863    861   1789   1790     1  0.0000000  8.3680000  1
    863    861   1789   1790     1  180.0000771  10.4600000  2
    866    869    889    890     1  0.0000000  0.0000000  2
    866    872    873    874     1  0.0000000  1.2552000  3
    866    872    873    875     1  0.0000000  1.2552000  3
    866    872    876    877     1  0.0000000  1.2552000  3
    866    872    876    878     1  0.0000000  1.2552000  3
    867    866    869    889     1  0.0000000  0.6508444  3
    867    866    869    870     1  0.0000000  0.6508444  3
    867    866    869    871     1  0.0000000  0.6508444  3
    867    866    872    873     1  0.0000000  1.2552000  3
    867    866    872    876     1  0.0000000  1.2552000  3
    868    866    869    889     1  0.0000000  0.6508444  3
    868    866    869    870     1  0.0000000  0.6508444  3
    868    866    869    871     1  0.0000000  0.6508444  3
    868    866    872    873     1  0.0000000  1.2552000  3
    868    866    872    876     1  0.0000000  1.2552000  3
    870    869    866    872     1  0.0000000  0.6508444  3
    870    869    889    890     1  0.0000000  0.0000000  2
    871    869    866    872     1  0.0000000  0.6508444  3
    871    869    889    890     1  0.0000000  0.0000000  2
    872    873    882    883     1  0.0000000  0.6508444  3
    872    873    882    884     1  0.0000000  0.6508444  3
    872    876    879    880     1  0.0000000  0.6508444  3
    872    876    879    881     1  0.0000000  0.6508444  3
    873    872    876    877     1  0.0000000  1.2552000  3
    873    872    876    878     1  0.0000000  1.2552000  3
    874    873    872    876     1  0.0000000  1.2552000  3
    874    873    882    886     1  0.0000000  0.6508444  3
    874    873    882    883     1  0.0000000  0.6508444  3
    874    873    882    884     1  0.0000000  0.6508444  3
    875    873    872    876     1  0.0000000  1.2552000  3
    875    873    882    886     1  0.0000000  0.6508444  3
    875    873    882    883     1  0.0000000  0.6508444  3
    875    873    882    884     1  0.0000000  0.6508444  3
    877    876    879    885     1  0.0000000  0.6508444  3
    877    876    879    880     1  0.0000000  0.6508444  3
    877    876    879    881     1  0.0000000  0.6508444  3
    878    876    879    885     1  0.0000000  0.6508444  3
    878    876    879    880     1  0.0000000  0.6508444  3
    878    876    879    881     1  0.0000000  0.6508444  3
    879    885   1814   1815     1  180.0000771  10.4600000  2
    880    879    885    887     1  0.0000000  3.3472000  1
    880    879    885    887     1  0.0000000  0.0000000  2
    880    879    885    887     1  180.0000771  0.3347200  3
    880    879    885   1814     1  180.0000771  0.0000000  2
    881    879    885    887     1  0.0000000  3.3472000  1
    881    879    885    887     1  0.0000000  0.0000000  2
    881    879    885    887     1  180.0000771  0.3347200  3
    881    879    885   1814     1  180.0000771  0.0000000  2
    882    886   1839   1840     1  180.0000771  10.4600000  2
    883    882    886    888     1  0.0000000  3.3472000  1
    883    882    886    888     1  0.0000000  0.0000000  2
    883    882    886    888     1  180.0000771  0.3347200  3
    883    882    886   1839     1  180.0000771  0.0000000  2
    884    882    886    888     1  0.0000000  3.3472000  1
    884    882    886    888     1  0.0000000  0.0000000  2
    884    882    886    888     1  180.0000771  0.3347200  3
    884    882    886   1839     1  180.0000771  0.0000000  2
    885   1814   1794   1795     1  0.0000000  0.0000000  2
    885   1814   1794   1796     1  0.0000000  0.0000000  2
    886   1839   1819   1820     1  0.0000000  0.0000000  2
    886   1839   1819   1821     1  0.0000000  0.0000000  2
    887    885   1814   1815     1  0.0000000  8.3680000  1
    887    885   1814   1815     1  180.0000771  10.4600000  2
    888    886   1839   1840     1  0.0000000  8.3680000  1
    888    886   1839   1840     1  180.0000771  10.4600000  2
    891    894    914    915     1  0.0000000  0.0000000  2
    891    897    898    899     1  0.0000000  1.2552000  3
    891    897    898    900     1  0.0000000  1.2552000  3
    891    897    901    902     1  0.0000000  1.2552000  3
    891    897    901    903     1  0.0000000  1.2552000  3
    892    891    894    914     1  0.0000000  0.6508444  3
    892    891    894    895     1  0.0000000  0.6508444  3
    892    891    894    896     1  0.0000000  0.6508444  3
    892    891    897    898     1  0.0000000  1.2552000  3
    892    891    897    901     1  0.0000000  1.2552000  3
    893    891    894    914     1  0.0000000  0.6508444  3
    893    891    894    895     1  0.0000000  0.6508444  3
    893    891    894    896     1  0.0000000  0.6508444  3
    893    891    897    898     1  0.0000000  1.2552000  3
    893    891    897    901     1  0.0000000  1.2552000  3
    895    894    891    897     1  0.0000000  0.6508444  3
    895    894    914    915     1  0.0000000  0.0000000  2
    896    894    891    897     1  0.0000000  0.6508444  3
    896    894    914    915     1  0.0000000  0.0000000  2
    897    898    907    908     1  0.0000000  0.6508444  3
    897    898    907    909     1  0.0000000  0.6508444  3
    897    901    904    905     1  0.0000000  0.6508444  3
    897    901    904    906     1  0.0000000  0.6508444  3
    898    897    901    902     1  0.0000000  1.2552000  3
    898    897    901    903     1  0.0000000  1.2552000  3
    899    898    897    901     1  0.0000000  1.2552000  3
    899    898    907    911     1  0.0000000  0.6508444  3
    899    898    907    908     1  0.0000000  0.6508444  3
    899    898    907    909     1  0.0000000  0.6508444  3
    900    898    897    901     1  0.0000000  1.2552000  3
    900    898    907    911     1  0.0000000  0.6508444  3
    900    898    907    908     1  0.0000000  0.6508444  3
    900    898    907    909     1  0.0000000  0.6508444  3
    902    901    904    910     1  0.0000000  0.6508444  3
    902    901    904    905     1  0.0000000  0.6508444  3
    902    901    904    906     1  0.0000000  0.6508444  3
    903    901    904    910     1  0.0000000  0.6508444  3
    903    901    904    905     1  0.0000000  0.6508444  3
    903    901    904    906     1  0.0000000  0.6508444  3
    904    910   1864   1865     1  180.0000771  10.4600000  2
    905    904    910    912     1  0.0000000  3.3472000  1
    905    904    910    912     1  0.0000000  0.0000000  2
    905    904    910    912     1  180.0000771  0.3347200  3
    905    904    910   1864     1  180.0000771  0.0000000  2
    906    904    910    912     1  0.0000000  3.3472000  1
    906    904    910    912     1  0.0000000  0.0000000  2
    906    904    910    912     1  180.0000771  0.3347200  3
    906    904    910   1864     1  180.0000771  0.0000000  2
    907    911   1889   1890     1  180.0000771  10.4600000  2
    908    907    911    913     1  0.0000000  3.3472000  1
    908    907    911    913     1  0.0000000  0.0000000  2
    908    907    911    913     1  180.0000771  0.3347200  3
    908    907    911   1889     1  180.0000771  0.0000000  2
    909    907    911    913     1  0.0000000  3.3472000  1
    909    907    911    913     1  0.0000000  0.0000000  2
    909    907    911    913     1  180.0000771  0.3347200  3
    909    907    911   1889     1  180.0000771  0.0000000  2
    910   1864   1844   1845     1  0.0000000  0.0000000  2
    910   1864   1844   1846     1  0.0000000  0.0000000  2
    911   1889   1869   1870     1  0.0000000  0.0000000  2
    911   1889   1869   1871     1  0.0000000  0.0000000  2
    912    910   1864   1865     1  0.0000000  8.3680000  1
    912    910   1864   1865     1  180.0000771  10.4600000  2
    913    911   1889   1890     1  0.0000000  8.3680000  1
    913    911   1889   1890     1  180.0000771  10.4600000  2
    916    919    939    940     1  0.0000000  0.0000000  2
    916    922    923    924     1  0.0000000  1.2552000  3
    916    922    923    925     1  0.0000000  1.2552000  3
    916    922    926    927     1  0.0000000  1.2552000  3
    916    922    926    928     1  0.0000000  1.2552000  3
    917    916    919    939     1  0.0000000  0.6508444  3
    917    916    919    920     1  0.0000000  0.6508444  3
    917    916    919    921     1  0.0000000  0.6508444  3
    917    916    922    923     1  0.0000000  1.2552000  3
    917    916    922    926     1  0.0000000  1.2552000  3
    918    916    919    939     1  0.0000000  0.6508444  3
    918    916    919    920     1  0.0000000  0.6508444  3
    918    916    919    921     1  0.0000000  0.6508444  3
    918    916    922    923     1  0.0000000  1.2552000  3
    918    916    922    926     1  0.0000000  1.2552000  3
    920    919    916    922     1  0.0000000  0.6508444  3
    920    919    939    940     1  0.0000000  0.0000000  2
    921    919    916    922     1  0.0000000  0.6508444  3
    921    919    939    940     1  0.0000000  0.0000000  2
    922    923    932    933     1  0.0000000  0.6508444  3
    922    923    932    934     1  0.0000000  0.6508444  3
    922    926    929    930     1  0.0000000  0.6508444  3
    922    926    929    931     1  0.0000000  0.6508444  3
    923    922    926    927     1  0.0000000  1.2552000  3
    923    922    926    928     1  0.0000000  1.2552000  3
    924    923    922    926     1  0.0000000  1.2552000  3
    924    923    932    936     1  0.0000000  0.6508444  3
    924    923    932    933     1  0.0000000  0.6508444  3
    924    923    932    934     1  0.0000000  0.6508444  3
    925    923    922    926     1  0.0000000  1.2552000  3
    925    923    932    936     1  0.0000000  0.6508444  3
    925    923    932    933     1  0.0000000  0.6508444  3
    925    923    932    934     1  0.0000000  0.6508444  3
    927    926    929    935     1  0.0000000  0.6508444  3
    927    926    929    930     1  0.0000000  0.6508444  3
    927    926    929    931     1  0.0000000  0.6508444  3
    928    926    929    935     1  0.0000000  0.6508444  3
    928    926    929    930     1  0.0000000  0.6508444  3
    928    926    929    931     1  0.0000000  0.6508444  3
    929    935   1914   1915     1  180.0000771  10.4600000  2
    930    929    935    937     1  0.0000000  3.3472000  1
    930    929    935    937     1  0.0000000  0.0000000  2
    930    929    935    937     1  180.0000771  0.3347200  3
    930    929    935   1914     1  180.0000771  0.0000000  2
    931    929    935    937     1  0.0000000  3.3472000  1
    931    929    935    937     1  0.0000000  0.0000000  2
    931    929    935    937     1  180.0000771  0.3347200  3
    931    929    935   1914     1  180.0000771  0.0000000  2
    932    936   1939   1940     1  180.0000771  10.4600000  2
    933    932    936    938     1  0.0000000  3.3472000  1
    933    932    936    938     1  0.0000000  0.0000000  2
    933    932    936    938     1  180.0000771  0.3347200  3
    933    932    936   1939     1  180.0000771  0.0000000  2
    934    932    936    938     1  0.0000000  3.3472000  1
    934    932    936    938     1  0.0000000  0.0000000  2
    934    932    936    938     1  180.0000771  0.3347200  3
    934    932    936   1939     1  180.0000771  0.0000000  2
    935   1914   1894   1895     1  0.0000000  0.0000000  2
    935   1914   1894   1896     1  0.0000000  0.0000000  2
    936   1939   1919   1920     1  0.0000000  0.0000000  2
    936   1939   1919   1921     1  0.0000000  0.0000000  2
    937    935   1914   1915     1  0.0000000  8.3680000  1
    937    935   1914   1915     1  180.0000771  10.4600000  2
    938    936   1939   1940     1  0.0000000  8.3680000  1
    938    936   1939   1940     1  180.0000771  10.4600000  2
    941    944    964    965     1  0.0000000  0.0000000  2
    941    947    948    949     1  0.0000000  1.2552000  3
    941    947    948    950     1  0.0000000  1.2552000  3
    941    947    951    952     1  0.0000000  1.2552000  3
    941    947    951    953     1  0.0000000  1.2552000  3
    942    941    944    964     1  0.0000000  0.6508444  3
    942    941    944    945     1  0.0000000  0.6508444  3
    942    941    944    946     1  0.0000000  0.6508444  3
    942    941    947    948     1  0.0000000  1.2552000  3
    942    941    947    951     1  0.0000000  1.2552000  3
    943    941    944    964     1  0.0000000  0.6508444  3
    943    941    944    945     1  0.0000000  0.6508444  3
    943    941    944    946     1  0.0000000  0.6508444  3
    943    941    947    948     1  0.0000000  1.2552000  3
    943    941    947    951     1  0.0000000  1.2552000  3
    945    944    941    947     1  0.0000000  0.6508444  3
    945    944    964    965     1  0.0000000  0.0000000  2
    946    944    941    947     1  0.0000000  0.6508444  3
    946    944    964    965     1  0.0000000  0.0000000  2
    947    948    957    958     1  0.0000000  0.6508444  3
    947    948    957    959     1  0.0000000  0.6508444  3
    947    951    954    955     1  0.0000000  0.6508444  3
    947    951    954    956     1  0.0000000  0.6508444  3
    948    947    951    952     1  0.0000000  1.2552000  3
    948    947    951    953     1  0.0000000  1.2552000  3
    949    948    947    951     1  0.0000000  1.2552000  3
    949    948    957    961     1  0.0000000  0.6508444  3
    949    948    957    958     1  0.0000000  0.6508444  3
    949    948    957    959     1  0.0000000  0.6508444  3
    950    948    947    951     1  0.0000000  1.2552000  3
    950    948    957    961     1  0.0000000  0.6508444  3
    950    948    957    958     1  0.0000000  0.6508444  3
    950    948    957    959     1  0.0000000  0.6508444  3
    952    951    954    960     1  0.0000000  0.6508444  3
    952    951    954    955     1  0.0000000  0.6508444  3
    952    951    954    956     1  0.0000000  0.6508444  3
    953    951    954    960     1  0.0000000  0.6508444  3
    953    951    954    955     1  0.0000000  0.6508444  3
    953    951    954    956     1  0.0000000  0.6508444  3
    954    960   1964   1965     1  180.0000771  10.4600000  2
    955    954    960    962     1  0.0000000  3.3472000  1
    955    954    960    962     1  0.0000000  0.0000000  2
    955    954    960    962     1  180.0000771  0.3347200  3
    955    954    960   1964     1  180.0000771  0.0000000  2
    956    954    960    962     1  0.0000000  3.3472000  1
    956    954    960    962     1  0.0000000  0.0000000  2
    956    954    960    962     1  180.0000771  0.3347200  3
    956    954    960   1964     1  180.0000771  0.0000000  2
    957    961   1989   1990     1  180.0000771  10.4600000  2
    958    957    961    963     1  0.0000000  3.3472000  1
    958    957    961    963     1  0.0000000  0.0000000  2
    958    957    961    963     1  180.0000771  0.3347200  3
    958    957    961   1989     1  180.0000771  0.0000000  2
    959    957    961    963     1  0.0000000  3.3472000  1
    959    957    961    963     1  0.0000000  0.0000000  2
    959    957    961    963     1  180.0000771  0.3347200  3
    959    957    961   1989     1  180.0000771  0.0000000  2
    960   1964   1944   1945     1  0.0000000  0.0000000  2
    960   1964   1944   1946     1  0.0000000  0.0000000  2
    961   1989   1969   1970     1  0.0000000  0.0000000  2
    961   1989   1969   1971     1  0.0000000  0.0000000  2
    962    960   1964   1965     1  0.0000000  8.3680000  1
    962    960   1964   1965     1  180.0000771  10.4600000  2
    963    961   1989   1990     1  0.0000000  8.3680000  1
    963    961   1989   1990     1  180.0000771  10.4600000  2
    966    969    989    990     1  0.0000000  0.0000000  2
    966    972    973    974     1  0.0000000  1.2552000  3
    966    972    973    975     1  0.0000000  1.2552000  3
    966    972    976    977     1  0.0000000  1.2552000  3
    966    972    976    978     1  0.0000000  1.2552000  3
    967    966    969    989     1  0.0000000  0.6508444  3
    967    966    969    970     1  0.0000000  0.6508444  3
    967    966    969    971     1  0.0000000  0.6508444  3
    967    966    972    973     1  0.0000000  1.2552000  3
    967    966    972    976     1  0.0000000  1.2552000  3
    968    966    969    989     1  0.0000000  0.6508444  3
    968    966    969    970     1  0.0000000  0.6508444  3
    968    966    969    971     1  0.0000000  0.6508444  3
    968    966    972    973     1  0.0000000  1.2552000  3
    968    966    972    976     1  0.0000000  1.2552000  3
    970    969    966    972     1  0.0000000  0.6508444  3
    970    969    989    990     1  0.0000000  0.0000000  2
    971    969    966    972     1  0.0000000  0.6508444  3
    971    969    989    990     1  0.0000000  0.0000000  2
    972    973    982    983     1  0.0000000  0.6508444  3
    972    973    982    984     1  0.0000000  0.6508444  3
    972    976    979    980     1  0.0000000  0.6508444  3
    972    976    979    981     1  0.0000000  0.6508444  3
    973    972    976    977     1  0.0000000  1.2552000  3
    973    972    976    978     1  0.0000000  1.2552000  3
    974    973    972    976     1  0.0000000  1.2552000  3
    974    973    982    986     1  0.0000000  0.6508444  3
    974    973    982    983     1  0.0000000  0.6508444  3
    974    973    982    984     1  0.0000000  0.6508444  3
    975    973    972    976     1  0.0000000  1.2552000  3
    975    973    982    986     1  0.0000000  0.6508444  3
    975    973    982    983     1  0.0000000  0.6508444  3
    975    973    982    984     1  0.0000000  0.6508444  3
    977    976    979    985     1  0.0000000  0.6508444  3
    977    976    979    980     1  0.0000000  0.6508444  3
    977    976    979    981     1  0.0000000  0.6508444  3
    978    976    979    985     1  0.0000000  0.6508444  3
    978    976    979    980     1  0.0000000  0.6508444  3
    978    976    979    981     1  0.0000000  0.6508444  3
    979    985   2014   2015     1  180.0000771  10.4600000  2
    980    979    985    987     1  0.0000000  3.3472000  1
    980    979    985    987     1  0.0000000  0.0000000  2
    980    979    985    987     1  180.0000771  0.3347200  3
    980    979    985   2014     1  180.0000771  0.0000000  2
    981    979    985    987     1  0.0000000  3.3472000  1
    981    979    985    987     1  0.0000000  0.0000000  2
    981    979    985    987     1  180.0000771  0.3347200  3
    981    979    985   2014     1  180.0000771  0.0000000  2
    982    986   2039   2040     1  180.0000771  10.4600000  2
    983    982    986    988     1  0.0000000  3.3472000  1
    983    982    986    988     1  0.0000000  0.0000000  2
    983    982    986    988     1  180.0000771  0.3347200  3
    983    982    986   2039     1  180.0000771  0.0000000  2
    984    982    986    988     1  0.0000000  3.3472000  1
    984    982    986    988     1  0.0000000  0.0000000  2
    984    982    986    988     1  180.0000771  0.3347200  3
    984    982    986   2039     1  180.0000771  0.0000000  2
    985   2014   1994   1995     1  0.0000000  0.0000000  2
    985   2014   1994   1996     1  0.0000000  0.0000000  2
    986   2039   2019   2020     1  0.0000000  0.0000000  2
    986   2039   2019   2021     1  0.0000000  0.0000000  2
    987    985   2014   2015     1  0.0000000  8.3680000  1
    987    985   2014   2015     1  180.0000771  10.4600000  2
    988    986   2039   2040     1  0.0000000  8.3680000  1
    988    986   2039   2040     1  180.0000771  10.4600000  2
    991    994   1014   1015     1  0.0000000  0.0000000  2
    991    997    998    999     1  0.0000000  1.2552000  3
    991    997    998   1000     1  0.0000000  1.2552000  3
    991    997   1001   1002     1  0.0000000  1.2552000  3
    991    997   1001   1003     1  0.0000000  1.2552000  3
    992    991    994   1014     1  0.0000000  0.6508444  3
    992    991    994    995     1  0.0000000  0.6508444  3
    992    991    994    996     1  0.0000000  0.6508444  3
    992    991    997    998     1  0.0000000  1.2552000  3
    992    991    997   1001     1  0.0000000  1.2552000  3
    993    991    994   1014     1  0.0000000  0.6508444  3
    993    991    994    995     1  0.0000000  0.6508444  3
    993    991    994    996     1  0.0000000  0.6508444  3
    993    991    997    998     1  0.0000000  1.2552000  3
    993    991    997   1001     1  0.0000000  1.2552000  3
    995    994    991    997     1  0.0000000  0.6508444  3
    995    994   1014   1015     1  0.0000000  0.0000000  2
    996    994    991    997     1  0.0000000  0.6508444  3
    996    994   1014   1015     1  0.0000000  0.0000000  2
    997    998   1007   1008     1  0.0000000  0.6508444  3
    997    998   1007   1009     1  0.0000000  0.6508444  3
    997   1001   1004   1005     1  0.0000000  0.6508444  3
    997   1001   1004   1006     1  0.0000000  0.6508444  3
    998    997   1001   1002     1  0.0000000  1.2552000  3
    998    997   1001   1003     1  0.0000000  1.2552000  3
    999    998    997   1001     1  0.0000000  1.2552000  3
    999    998   1007   1011     1  0.0000000  0.6508444  3
    999    998   1007   1008     1  0.0000000  0.6508444  3
    999    998   1007   1009     1  0.0000000  0.6508444  3
   1000    998    997   1001     1  0.0000000  1.2552000  3
   1000    998   1007   1011     1  0.0000000  0.6508444  3
   1000    998   1007   1008     1  0.0000000  0.6508444  3
   1000    998   1007   1009     1  0.0000000  0.6508444  3
   1002   1001   1004   1010     1  0.0000000  0.6508444  3
   1002   1001   1004   1005     1  0.0000000  0.6508444  3
   1002   1001   1004   1006     1  0.0000000  0.6508444  3
   1003   1001   1004   1010     1  0.0000000  0.6508444  3
   1003   1001   1004   1005     1  0.0000000  0.6508444  3
   1003   1001   1004   1006     1  0.0000000  0.6508444  3
   1004   1010   2064   2065     1  180.0000771  10.4600000  2
   1005   1004   1010   1012     1  0.0000000  3.3472000  1
   1005   1004   1010   1012     1  0.0000000  0.0000000  2
   1005   1004   1010   1012     1  180.0000771  0.3347200  3
   1005   1004   1010   2064     1  180.0000771  0.0000000  2
   1006   1004   1010   1012     1  0.0000000  3.3472000  1
   1006   1004   1010   1012     1  0.0000000  0.0000000  2
   1006   1004   1010   1012     1  180.0000771  0.3347200  3
   1006   1004   1010   2064     1  180.0000771  0.0000000  2
   1007   1011   2089   2090     1  180.0000771  10.4600000  2
   1008   1007   1011   1013     1  0.0000000  3.3472000  1
   1008   1007   1011   1013     1  0.0000000  0.0000000  2
   1008   1007   1011   1013     1  180.0000771  0.3347200  3
   1008   1007   1011   2089     1  180.0000771  0.0000000  2
   1009   1007   1011   1013     1  0.0000000  3.3472000  1
   1009   1007   1011   1013     1  0.0000000  0.0000000  2
   1009   1007   1011   1013     1  180.0000771  0.3347200  3
   1009   1007   1011   2089     1  180.0000771  0.0000000  2
   1010   2064   2044   2045     1  0.0000000  0.0000000  2
   1010   2064   2044   2046     1  0.0000000  0.0000000  2
   1011   2089   2069   2070     1  0.0000000  0.0000000  2
   1011   2089   2069   2071     1  0.0000000  0.0000000  2
   1012   1010   2064   2065     1  0.0000000  8.3680000  1
   1012   1010   2064   2065     1  180.0000771  10.4600000  2
   1013   1011   2089   2090     1  0.0000000  8.3680000  1
   1013   1011   2089   2090     1  180.0000771  10.4600000  2
   1016   1019   1039   1040     1  0.0000000  0.0000000  2
   1016   1022   1023   1024     1  0.0000000  1.2552000  3
   1016   1022   1023   1025     1  0.0000000  1.2552000  3
   1016   1022   1026   1027     1  0.0000000  1.2552000  3
   1016   1022   1026   1028     1  0.0000000  1.2552000  3
   1017   1016   1019   1039     1  0.0000000  0.6508444  3
   1017   1016   1019   1020     1  0.0000000  0.6508444  3
   1017   1016   1019   1021     1  0.0000000  0.6508444  3
   1017   1016   1022   1023     1  0.0000000  1.2552000  3
   1017   1016   1022   1026     1  0.0000000  1.2552000  3
   1018   1016   1019   1039     1  0.0000000  0.6508444  3
   1018   1016   1019   1020     1  0.0000000  0.6508444  3
   1018   1016   1019   1021     1  0.0000000  0.6508444  3
   1018   1016   1022   1023     1  0.0000000  1.2552000  3
   1018   1016   1022   1026     1  0.0000000  1.2552000  3
   1020   1019   1016   1022     1  0.0000000  0.6508444  3
   1020   1019   1039   1040     1  0.0000000  0.0000000  2
   1021   1019   1016   1022     1  0.0000000  0.6508444  3
   1021   1019   1039   1040     1  0.0000000  0.0000000  2
   1022   1023   1032   1033     1  0.0000000  0.6508444  3
   1022   1023   1032   1034     1  0.0000000  0.6508444  3
   1022   1026   1029   1030     1  0.0000000  0.6508444  3
   1022   1026   1029   1031     1  0.0000000  0.6508444  3
   1023   1022   1026   1027     1  0.0000000  1.2552000  3
   1023   1022   1026   1028     1  0.0000000  1.2552000  3
   1024   1023   1022   1026     1  0.0000000  1.2552000  3
   1024   1023   1032   1036     1  0.0000000  0.6508444  3
   1024   1023   1032   1033     1  0.0000000  0.6508444  3
   1024   1023   1032   1034     1  0.0000000  0.6508444  3
   1025   1023   1022   1026     1  0.0000000  1.2552000  3
   1025   1023   1032   1036     1  0.0000000  0.6508444  3
   1025   1023   1032   1033     1  0.0000000  0.6508444  3
   1025   1023   1032   1034     1  0.0000000  0.6508444  3
   1027   1026   1029   1035     1  0.0000000  0.6508444  3
   1027   1026   1029   1030     1  0.0000000  0.6508444  3
   1027   1026   1029   1031     1  0.0000000  0.6508444  3
   1028   1026   1029   1035     1  0.0000000  0.6508444  3
   1028   1026   1029   1030     1  0.0000000  0.6508444  3
   1028   1026   1029   1031     1  0.0000000  0.6508444  3
   1029   1035   2114   2115     1  180.0000771  10.4600000  2
   1030   1029   1035   1037     1  0.0000000  3.3472000  1
   1030   1029   1035   1037     1  0.0000000  0.0000000  2
   1030   1029   1035   1037     1  180.0000771  0.3347200  3
   1030   1029   1035   2114     1  180.0000771  0.0000000  2
   1031   1029   1035   1037     1  0.0000000  3.3472000  1
   1031   1029   1035   1037     1  0.0000000  0.0000000  2
   1031   1029   1035   1037     1  180.0000771  0.3347200  3
   1031   1029   1035   2114     1  180.0000771  0.0000000  2
   1032   1036   2139   2140     1  180.0000771  10.4600000  2
   1033   1032   1036   1038     1  0.0000000  3.3472000  1
   1033   1032   1036   1038     1  0.0000000  0.0000000  2
   1033   1032   1036   1038     1  180.0000771  0.3347200  3
   1033   1032   1036   2139     1  180.0000771  0.0000000  2
   1034   1032   1036   1038     1  0.0000000  3.3472000  1
   1034   1032   1036   1038     1  0.0000000  0.0000000  2
   1034   1032   1036   1038     1  180.0000771  0.3347200  3
   1034   1032   1036   2139     1  180.0000771  0.0000000  2
   1035   2114   2094   2095     1  0.0000000  0.0000000  2
   1035   2114   2094   2096     1  0.0000000  0.0000000  2
   1036   2139   2119   2120     1  0.0000000  0.0000000  2
   1036   2139   2119   2121     1  0.0000000  0.0000000  2
   1037   1035   2114   2115     1  0.0000000  8.3680000  1
   1037   1035   2114   2115     1  180.0000771  10.4600000  2
   1038   1036   2139   2140     1  0.0000000  8.3680000  1
   1038   1036   2139   2140     1  180.0000771  10.4600000  2
   1041   1044   1064   1065     1  0.0000000  0.0000000  2
   1041   1047   1048   1049     1  0.0000000  1.2552000  3
   1041   1047   1048   1050     1  0.0000000  1.2552000  3
   1041   1047   1051   1052     1  0.0000000  1.2552000  3
   1041   1047   1051   1053     1  0.0000000  1.2552000  3
   1042   1041   1044   1064     1  0.0000000  0.6508444  3
   1042   1041   1044   1045     1  0.0000000  0.6508444  3
   1042   1041   1044   1046     1  0.0000000  0.6508444  3
   1042   1041   1047   1048     1  0.0000000  1.2552000  3
   1042   1041   1047   1051     1  0.0000000  1.2552000  3
   1043   1041   1044   1064     1  0.0000000  0.6508444  3
   1043   1041   1044   1045     1  0.0000000  0.6508444  3
   1043   1041   1044   1046     1  0.0000000  0.6508444  3
   1043   1041   1047   1048     1  0.0000000  1.2552000  3
   1043   1041   1047   1051     1  0.0000000  1.2552000  3
   1045   1044   1041   1047     1  0.0000000  0.6508444  3
   1045   1044   1064   1065     1  0.0000000  0.0000000  2
   1046   1044   1041   1047     1  0.0000000  0.6508444  3
   1046   1044   1064   1065     1  0.0000000  0.0000000  2
   1047   1048   1057   1058     1  0.0000000  0.6508444  3
   1047   1048   1057   1059     1  0.0000000  0.6508444  3
   1047   1051   1054   1055     1  0.0000000  0.6508444  3
   1047   1051   1054   1056     1  0.0000000  0.6508444  3
   1048   1047   1051   1052     1  0.0000000  1.2552000  3
   1048   1047   1051   1053     1  0.0000000  1.2552000  3
   1049   1048   1047   1051     1  0.0000000  1.2552000  3
   1049   1048   1057   1061     1  0.0000000  0.6508444  3
   1049   1048   1057   1058     1  0.0000000  0.6508444  3
   1049   1048   1057   1059     1  0.0000000  0.6508444  3
   1050   1048   1047   1051     1  0.0000000  1.2552000  3
   1050   1048   1057   1061     1  0.0000000  0.6508444  3
   1050   1048   1057   1058     1  0.0000000  0.6508444  3
   1050   1048   1057   1059     1  0.0000000  0.6508444  3
   1052   1051   1054   1060     1  0.0000000  0.6508444  3
   1052   1051   1054   1055     1  0.0000000  0.6508444  3
   1052   1051   1054   1056     1  0.0000000  0.6508444  3
   1053   1051   1054   1060     1  0.0000000  0.6508444  3
   1053   1051   1054   1055     1  0.0000000  0.6508444  3
   1053   1051   1054   1056     1  0.0000000  0.6508444  3
   1054   1060   2164   2165     1  180.0000771  10.4600000  2
   1055   1054   1060   1062     1  0.0000000  3.3472000  1
   1055   1054   1060   1062     1  0.0000000  0.0000000  2
   1055   1054   1060   1062     1  180.0000771  0.3347200  3
   1055   1054   1060   2164     1  180.0000771  0.0000000  2
   1056   1054   1060   1062     1  0.0000000  3.3472000  1
   1056   1054   1060   1062     1  0.0000000  0.0000000  2
   1056   1054   1060   1062     1  180.0000771  0.3347200  3
   1056   1054   1060   2164     1  180.0000771  0.0000000  2
   1057   1061   2189   2190     1  180.0000771  10.4600000  2
   1058   1057   1061   1063     1  0.0000000  3.3472000  1
   1058   1057   1061   1063     1  0.0000000  0.0000000  2
   1058   1057   1061   1063     1  180.0000771  0.3347200  3
   1058   1057   1061   2189     1  180.0000771  0.0000000  2
   1059   1057   1061   1063     1  0.0000000  3.3472000  1
   1059   1057   1061   1063     1  0.0000000  0.0000000  2
   1059   1057   1061   1063     1  180.0000771  0.3347200  3
   1059   1057   1061   2189     1  180.0000771  0.0000000  2
   1060   2164   2144   2145     1  0.0000000  0.0000000  2
   1060   2164   2144   2146     1  0.0000000  0.0000000  2
   1061   2189   2169   2170     1  0.0000000  0.0000000  2
   1061   2189   2169   2171     1  0.0000000  0.0000000  2
   1062   1060   2164   2165     1  0.0000000  8.3680000  1
   1062   1060   2164   2165     1  180.0000771  10.4600000  2
   1063   1061   2189   2190     1  0.0000000  8.3680000  1
   1063   1061   2189   2190     1  180.0000771  10.4600000  2
   1066   1069   1089   1090     1  0.0000000  0.0000000  2
   1066   1072   1073   1074     1  0.0000000  1.2552000  3
   1066   1072   1073   1075     1  0.0000000  1.2552000  3
   1066   1072   1076   1077     1  0.0000000  1.2552000  3
   1066   1072   1076   1078     1  0.0000000  1.2552000  3
   1067   1066   1069   1089     1  0.0000000  0.6508444  3
   1067   1066   1069   1070     1  0.0000000  0.6508444  3
   1067   1066   1069   1071     1  0.0000000  0.6508444  3
   1067   1066   1072   1073     1  0.0000000  1.2552000  3
   1067   1066   1072   1076     1  0.0000000  1.2552000  3
   1068   1066   1069   1089     1  0.0000000  0.6508444  3
   1068   1066   1069   1070     1  0.0000000  0.6508444  3
   1068   1066   1069   1071     1  0.0000000  0.6508444  3
   1068   1066   1072   1073     1  0.0000000  1.2552000  3
   1068   1066   1072   1076     1  0.0000000  1.2552000  3
   1070   1069   1066   1072     1  0.0000000  0.6508444  3
   1070   1069   1089   1090     1  0.0000000  0.0000000  2
   1071   1069   1066   1072     1  0.0000000  0.6508444  3
   1071   1069   1089   1090     1  0.0000000  0.0000000  2
   1072   1073   1082   1083     1  0.0000000  0.6508444  3
   1072   1073   1082   1084     1  0.0000000  0.6508444  3
   1072   1076   1079   1080     1  0.0000000  0.6508444  3
   1072   1076   1079   1081     1  0.0000000  0.6508444  3
   1073   1072   1076   1077     1  0.0000000  1.2552000  3
   1073   1072   1076   1078     1  0.0000000  1.2552000  3
   1074   1073   1072   1076     1  0.0000000  1.2552000  3
   1074   1073   1082   1086     1  0.0000000  0.6508444  3
   1074   1073   1082   1083     1  0.0000000  0.6508444  3
   1074   1073   1082   1084     1  0.0000000  0.6508444  3
   1075   1073   1072   1076     1  0.0000000  1.2552000  3
   1075   1073   1082   1086     1  0.0000000  0.6508444  3
   1075   1073   1082   1083     1  0.0000000  0.6508444  3
   1075   1073   1082   1084     1  0.0000000  0.6508444  3
   1077   1076   1079   1085     1  0.0000000  0.6508444  3
   1077   1076   1079   1080     1  0.0000000  0.6508444  3
   1077   1076   1079   1081     1  0.0000000  0.6508444  3
   1078   1076   1079   1085     1  0.0000000  0.6508444  3
   1078   1076   1079   1080     1  0.0000000  0.6508444  3
   1078   1076   1079   1081     1  0.0000000  0.6508444  3
   1079   1085   2214   2215     1  180.0000771  10.4600000  2
   1080   1079   1085   1087     1  0.0000000  3.3472000  1
   1080   1079   1085   1087     1  0.0000000  0.0000000  2
   1080   1079   1085   1087     1  180.0000771  0.3347200  3
   1080   1079   1085   2214     1  180.0000771  0.0000000  2
   1081   1079   1085   1087     1  0.0000000  3.3472000  1
   1081   1079   1085   1087     1  0.0000000  0.0000000  2
   1081   1079   1085   1087     1  180.0000771  0.3347200  3
   1081   1079   1085   2214     1  180.0000771  0.0000000  2
   1082   1086   2239   2240     1  180.0000771  10.4600000  2
   1083   1082   1086   1088     1  0.0000000  3.3472000  1
   1083   1082   1086   1088     1  0.0000000  0.0000000  2
   1083   1082   1086   1088     1  180.0000771  0.3347200  3
   1083   1082   1086   2239     1  180.0000771  0.0000000  2
   1084   1082   1086   1088     1  0.0000000  3.3472000  1
   1084   1082   1086   1088     1  0.0000000  0.0000000  2
   1084   1082   1086   1088     1  180.0000771  0.3347200  3
   1084   1082   1086   2239     1  180.0000771  0.0000000  2
   1085   2214   2194   2195     1  0.0000000  0.0000000  2
   1085   2214   2194   2196     1  0.0000000  0.0000000  2
   1086   2239   2219   2220     1  0.0000000  0.0000000  2
   1086   2239   2219   2221     1  0.0000000  0.0000000  2
   1087   1085   2214   2215     1  0.0000000  8.3680000  1
   1087   1085   2214   2215     1  180.0000771  10.4600000  2
   1088   1086   2239   2240     1  0.0000000  8.3680000  1
   1088   1086   2239   2240     1  180.0000771  10.4600000  2
   1091   1094   1114   1115     1  0.0000000  0.0000000  2
   1091   1097   1098   1099     1  0.0000000  1.2552000  3
   1091   1097   1098   1100     1  0.0000000  1.2552000  3
   1091   1097   1101   1102     1  0.0000000  1.2552000  3
   1091   1097   1101   1103     1  0.0000000  1.2552000  3
   1092   1091   1094   1114     1  0.0000000  0.6508444  3
   1092   1091   1094   1095     1  0.0000000  0.6508444  3
   1092   1091   1094   1096     1  0.0000000  0.6508444  3
   1092   1091   1097   1098     1  0.0000000  1.2552000  3
   1092   1091   1097   1101     1  0.0000000  1.2552000  3
   1093   1091   1094   1114     1  0.0000000  0.6508444  3
   1093   1091   1094   1095     1  0.0000000  0.6508444  3
   1093   1091   1094   1096     1  0.0000000  0.6508444  3
   1093   1091   1097   1098     1  0.0000000  1.2552000  3
   1093   1091   1097   1101     1  0.0000000  1.2552000  3
   1095   1094   1091   1097     1  0.0000000  0.6508444  3
   1095   1094   1114   1115     1  0.0000000  0.0000000  2
   1096   1094   1091   1097     1  0.0000000  0.6508444  3
   1096   1094   1114   1115     1  0.0000000  0.0000000  2
   1097   1098   1107   1108     1  0.0000000  0.6508444  3
   1097   1098   1107   1109     1  0.0000000  0.6508444  3
   1097   1101   1104   1105     1  0.0000000  0.6508444  3
   1097   1101   1104   1106     1  0.0000000  0.6508444  3
   1098   1097   1101   1102     1  0.0000000  1.2552000  3
   1098   1097   1101   1103     1  0.0000000  1.2552000  3
   1099   1098   1097   1101     1  0.0000000  1.2552000  3
   1099   1098   1107   1111     1  0.0000000  0.6508444  3
   1099   1098   1107   1108     1  0.0000000  0.6508444  3
   1099   1098   1107   1109     1  0.0000000  0.6508444  3
   1100   1098   1097   1101     1  0.0000000  1.2552000  3
   1100   1098   1107   1111     1  0.0000000  0.6508444  3
   1100   1098   1107   1108     1  0.0000000  0.6508444  3
   1100   1098   1107   1109     1  0.0000000  0.6508444  3
   1102   1101   1104   1110     1  0.0000000  0.6508444  3
   1102   1101   1104   1105     1  0.0000000  0.6508444  3
   1102   1101   1104   1106     1  0.0000000  0.6508444  3
   1103   1101   1104   1110     1  0.0000000  0.6508444  3
   1103   1101   1104   1105     1  0.0000000  0.6508444  3
   1103   1101   1104   1106     1  0.0000000  0.6508444  3
   1104   1110   2264   2265     1  180.0000771  10.4600000  2
   1105   1104   1110   1112     1  0.0000000  3.3472000  1
   1105   1104   1110   1112     1  0.0000000  0.0000000  2
   1105   1104   1110   1112     1  180.0000771  0.3347200  3
   1105   1104   1110   2264     1  180.0000771  0.0000000  2
   1106   1104   1110   1112     1  0.0000000  3.3472000  1
   1106   1104   1110   1112     1  0.0000000  0.0000000  2
   1106   1104   1110   1112     1  180.0000771  0.3347200  3
   1106   1104   1110   2264     1  180.0000771  0.0000000  2
   1107   1111   2289   2290     1  180.0000771  10.4600000  2
   1108   1107   1111   1113     1  0.0000000  3.3472000  1
   1108   1107   1111   1113     1  0.0000000  0.0000000  2
   1108   1107   1111   1113     1  180.0000771  0.3347200  3
   1108   1107   1111   2289     1  180.0000771  0.0000000  2
   1109   1107   1111   1113     1  0.0000000  3.3472000  1
   1109   1107   1111   1113     1  0.0000000  0.0000000  2
   1109   1107   1111   1113     1  180.0000771  0.3347200  3
   1109   1107   1111   2289     1  180.0000771  0.0000000  2
   1110   2264   2244   2245     1  0.0000000  0.0000000  2
   1110   2264   2244   2246     1  0.0000000  0.0000000  2
   1111   2289   2269   2270     1  0.0000000  0.0000000  2
   1111   2289   2269   2271     1  0.0000000  0.0000000  2
   1112   1110   2264   2265     1  0.0000000  8.3680000  1
   1112   1110   2264   2265     1  180.0000771  10.4600000  2
   1113   1111   2289   2290     1  0.0000000  8.3680000  1
   1113   1111   2289   2290     1  180.0000771  10.4600000  2
   1116   1119   1139   1140     1  0.0000000  0.0000000  2
   1116   1122   1123   1124     1  0.0000000  1.2552000  3
   1116   1122   1123   1125     1  0.0000000  1.2552000  3
   1116   1122   1126   1127     1  0.0000000  1.2552000  3
   1116   1122   1126   1128     1  0.0000000  1.2552000  3
   1117   1116   1119   1139     1  0.0000000  0.6508444  3
   1117   1116   1119   1120     1  0.0000000  0.6508444  3
   1117   1116   1119   1121     1  0.0000000  0.6508444  3
   1117   1116   1122   1123     1  0.0000000  1.2552000  3
   1117   1116   1122   1126     1  0.0000000  1.2552000  3
   1118   1116   1119   1139     1  0.0000000  0.6508444  3
   1118   1116   1119   1120     1  0.0000000  0.6508444  3
   1118   1116   1119   1121     1  0.0000000  0.6508444  3
   1118   1116   1122   1123     1  0.0000000  1.2552000  3
   1118   1116   1122   1126     1  0.0000000  1.2552000  3
   1120   1119   1116   1122     1  0.0000000  0.6508444  3
   1120   1119   1139   1140     1  0.0000000  0.0000000  2
   1121   1119   1116   1122     1  0.0000000  0.6508444  3
   1121   1119   1139   1140     1  0.0000000  0.0000000  2
   1122   1123   1132   1133     1  0.0000000  0.6508444  3
   1122   1123   1132   1134     1  0.0000000  0.6508444  3
   1122   1126   1129   1130     1  0.0000000  0.6508444  3
   1122   1126   1129   1131     1  0.0000000  0.6508444  3
   1123   1122   1126   1127     1  0.0000000  1.2552000  3
   1123   1122   1126   1128     1  0.0000000  1.2552000  3
   1124   1123   1122   1126     1  0.0000000  1.2552000  3
   1124   1123   1132   1136     1  0.0000000  0.6508444  3
   1124   1123   1132   1133     1  0.0000000  0.6508444  3
   1124   1123   1132   1134     1  0.0000000  0.6508444  3
   1125   1123   1122   1126     1  0.0000000  1.2552000  3
   1125   1123   1132   1136     1  0.0000000  0.6508444  3
   1125   1123   1132   1133     1  0.0000000  0.6508444  3
   1125   1123   1132   1134     1  0.0000000  0.6508444  3
   1127   1126   1129   1135     1  0.0000000  0.6508444  3
   1127   1126   1129   1130     1  0.0000000  0.6508444  3
   1127   1126   1129   1131     1  0.0000000  0.6508444  3
   1128   1126   1129   1135     1  0.0000000  0.6508444  3
   1128   1126   1129   1130     1  0.0000000  0.6508444  3
   1128   1126   1129   1131     1  0.0000000  0.6508444  3
   1129   1135   2314   2315     1  180.0000771  10.4600000  2
   1130   1129   1135   1137     1  0.0000000  3.3472000  1
   1130   1129   1135   1137     1  0.0000000  0.0000000  2
   1130   1129   1135   1137     1  180.0000771  0.3347200  3
   1130   1129   1135   2314     1  180.0000771  0.0000000  2
   1131   1129   1135   1137     1  0.0000000  3.3472000  1
   1131   1129   1135   1137     1  0.0000000  0.0000000  2
   1131   1129   1135   1137     1  180.0000771  0.3347200  3
   1131   1129   1135   2314     1  180.0000771  0.0000000  2
   1132   1136   2339   2340     1  180.0000771  10.4600000  2
   1133   1132   1136   1138     1  0.0000000  3.3472000  1
   1133   1132   1136   1138     1  0.0000000  0.0000000  2
   1133   1132   1136   1138     1  180.0000771  0.3347200  3
   1133   1132   1136   2339     1  180.0000771  0.0000000  2
   1134   1132   1136   1138     1  0.0000000  3.3472000  1
   1134   1132   1136   1138     1  0.0000000  0.0000000  2
   1134   1132   1136   1138     1  180.0000771  0.3347200  3
   1134   1132   1136   2339     1  180.0000771  0.0000000  2
   1135   2314   2294   2295     1  0.0000000  0.0000000  2
   1135   2314   2294   2296     1  0.0000000  0.0000000  2
   1136   2339   2319   2320     1  0.0000000  0.0000000  2
   1136   2339   2319   2321     1  0.0000000  0.0000000  2
   1137   1135   2314   2315     1  0.0000000  8.3680000  1
   1137   1135   2314   2315     1  180.0000771  10.4600000  2
   1138   1136   2339   2340     1  0.0000000  8.3680000  1
   1138   1136   2339   2340     1  180.0000771  10.4600000  2
   1141   1144   1164   1165     1  0.0000000  0.0000000  2
   1141   1147   1148   1149     1  0.0000000  1.2552000  3
   1141   1147   1148   1150     1  0.0000000  1.2552000  3
   1141   1147   1151   1152     1  0.0000000  1.2552000  3
   1141   1147   1151   1153     1  0.0000000  1.2552000  3
   1142   1141   1144   1164     1  0.0000000  0.6508444  3
   1142   1141   1144   1145     1  0.0000000  0.6508444  3
   1142   1141   1144   1146     1  0.0000000  0.6508444  3
   1142   1141   1147   1148     1  0.0000000  1.2552000  3
   1142   1141   1147   1151     1  0.0000000  1.2552000  3
   1143   1141   1144   1164     1  0.0000000  0.6508444  3
   1143   1141   1144   1145     1  0.0000000  0.6508444  3
   1143   1141   1144   1146     1  0.0000000  0.6508444  3
   1143   1141   1147   1148     1  0.0000000  1.2552000  3
   1143   1141   1147   1151     1  0.0000000  1.2552000  3
   1145   1144   1141   1147     1  0.0000000  0.6508444  3
   1145   1144   1164   1165     1  0.0000000  0.0000000  2
   1146   1144   1141   1147     1  0.0000000  0.6508444  3
   1146   1144   1164   1165     1  0.0000000  0.0000000  2
   1147   1148   1157   1158     1  0.0000000  0.6508444  3
   1147   1148   1157   1159     1  0.0000000  0.6508444  3
   1147   1151   1154   1155     1  0.0000000  0.6508444  3
   1147   1151   1154   1156     1  0.0000000  0.6508444  3
   1148   1147   1151   1152     1  0.0000000  1.2552000  3
   1148   1147   1151   1153     1  0.0000000  1.2552000  3
   1149   1148   1147   1151     1  0.0000000  1.2552000  3
   1149   1148   1157   1161     1  0.0000000  0.6508444  3
   1149   1148   1157   1158     1  0.0000000  0.6508444  3
   1149   1148   1157   1159     1  0.0000000  0.6508444  3
   1150   1148   1147   1151     1  0.0000000  1.2552000  3
   1150   1148   1157   1161     1  0.0000000  0.6508444  3
   1150   1148   1157   1158     1  0.0000000  0.6508444  3
   1150   1148   1157   1159     1  0.0000000  0.6508444  3
   1152   1151   1154   1160     1  0.0000000  0.6508444  3
   1152   1151   1154   1155     1  0.0000000  0.6508444  3
   1152   1151   1154   1156     1  0.0000000  0.6508444  3
   1153   1151   1154   1160     1  0.0000000  0.6508444  3
   1153   1151   1154   1155     1  0.0000000  0.6508444  3
   1153   1151   1154   1156     1  0.0000000  0.6508444  3
   1154   1160   2364   2365     1  180.0000771  10.4600000  2
   1155   1154   1160   1162     1  0.0000000  3.3472000  1
   1155   1154   1160   1162     1  0.0000000  0.0000000  2
   1155   1154   1160   1162     1  180.0000771  0.3347200  3
   1155   1154   1160   2364     1  180.0000771  0.0000000  2
   1156   1154   1160   1162     1  0.0000000  3.3472000  1
   1156   1154   1160   1162     1  0.0000000  0.0000000  2
   1156   1154   1160   1162     1  180.0000771  0.3347200  3
   1156   1154   1160   2364     1  180.0000771  0.0000000  2
   1157   1161   2389   2390     1  180.0000771  10.4600000  2
   1158   1157   1161   1163     1  0.0000000  3.3472000  1
   1158   1157   1161   1163     1  0.0000000  0.0000000  2
   1158   1157   1161   1163     1  180.0000771  0.3347200  3
   1158   1157   1161   2389     1  180.0000771  0.0000000  2
   1159   1157   1161   1163     1  0.0000000  3.3472000  1
   1159   1157   1161   1163     1  0.0000000  0.0000000  2
   1159   1157   1161   1163     1  180.0000771  0.3347200  3
   1159   1157   1161   2389     1  180.0000771  0.0000000  2
   1160   2364   2344   2345     1  0.0000000  0.0000000  2
   1160   2364   2344   2346     1  0.0000000  0.0000000  2
   1161   2389   2369   2370     1  0.0000000  0.0000000  2
   1161   2389   2369   2371     1  0.0000000  0.0000000  2
   1162   1160   2364   2365     1  0.0000000  8.3680000  1
   1162   1160   2364   2365     1  180.0000771  10.4600000  2
   1163   1161   2389   2390     1  0.0000000  8.3680000  1
   1163   1161   2389   2390     1  180.0000771  10.4600000  2
   1166   1169   1189   1190     1  0.0000000  0.0000000  2
   1166   1172   1173   1174     1  0.0000000  1.2552000  3
   1166   1172   1173   1175     1  0.0000000  1.2552000  3
   1166   1172   1176   1177     1  0.0000000  1.2552000  3
   1166   1172   1176   1178     1  0.0000000  1.2552000  3
   1167   1166   1169   1189     1  0.0000000  0.6508444  3
   1167   1166   1169   1170     1  0.0000000  0.6508444  3
   1167   1166   1169   1171     1  0.0000000  0.6508444  3
   1167   1166   1172   1173     1  0.0000000  1.2552000  3
   1167   1166   1172   1176     1  0.0000000  1.2552000  3
   1168   1166   1169   1189     1  0.0000000  0.6508444  3
   1168   1166   1169   1170     1  0.0000000  0.6508444  3
   1168   1166   1169   1171     1  0.0000000  0.6508444  3
   1168   1166   1172   1173     1  0.0000000  1.2552000  3
   1168   1166   1172   1176     1  0.0000000  1.2552000  3
   1170   1169   1166   1172     1  0.0000000  0.6508444  3
   1170   1169   1189   1190     1  0.0000000  0.0000000  2
   1171   1169   1166   1172     1  0.0000000  0.6508444  3
   1171   1169   1189   1190     1  0.0000000  0.0000000  2
   1172   1173   1182   1183     1  0.0000000  0.6508444  3
   1172   1173   1182   1184     1  0.0000000  0.6508444  3
   1172   1176   1179   1180     1  0.0000000  0.6508444  3
   1172   1176   1179   1181     1  0.0000000  0.6508444  3
   1173   1172   1176   1177     1  0.0000000  1.2552000  3
   1173   1172   1176   1178     1  0.0000000  1.2552000  3
   1174   1173   1172   1176     1  0.0000000  1.2552000  3
   1174   1173   1182   1186     1  0.0000000  0.6508444  3
   1174   1173   1182   1183     1  0.0000000  0.6508444  3
   1174   1173   1182   1184     1  0.0000000  0.6508444  3
   1175   1173   1172   1176     1  0.0000000  1.2552000  3
   1175   1173   1182   1186     1  0.0000000  0.6508444  3
   1175   1173   1182   1183     1  0.0000000  0.6508444  3
   1175   1173   1182   1184     1  0.0000000  0.6508444  3
   1177   1176   1179   1185     1  0.0000000  0.6508444  3
   1177   1176   1179   1180     1  0.0000000  0.6508444  3
   1177   1176   1179   1181     1  0.0000000  0.6508444  3
   1178   1176   1179   1185     1  0.0000000  0.6508444  3
   1178   1176   1179   1180     1  0.0000000  0.6508444  3
   1178   1176   1179   1181     1  0.0000000  0.6508444  3
   1179   1185   2414   2415     1  180.0000771  10.4600000  2
   1180   1179   1185   1187     1  0.0000000  3.3472000  1
   1180   1179   1185   1187     1  0.0000000  0.0000000  2
   1180   1179   1185   1187     1  180.0000771  0.3347200  3
   1180   1179   1185   2414     1  180.0000771  0.0000000  2
   1181   1179   1185   1187     1  0.0000000  3.3472000  1
   1181   1179   1185   1187     1  0.0000000  0.0000000  2
   1181   1179   1185   1187     1  180.0000771  0.3347200  3
   1181   1179   1185   2414     1  180.0000771  0.0000000  2
   1182   1186   2439   2440     1  180.0000771  10.4600000  2
   1183   1182   1186   1188     1  0.0000000  3.3472000  1
   1183   1182   1186   1188     1  0.0000000  0.0000000  2
   1183   1182   1186   1188     1  180.0000771  0.3347200  3
   1183   1182   1186   2439     1  180.0000771  0.0000000  2
   1184   1182   1186   1188     1  0.0000000  3.3472000  1
   1184   1182   1186   1188     1  0.0000000  0.0000000  2
   1184   1182   1186   1188     1  180.0000771  0.3347200  3
   1184   1182   1186   2439     1  180.0000771  0.0000000  2
   1185   2414   2394   2395     1  0.0000000  0.0000000  2
   1185   2414   2394   2396     1  0.0000000  0.0000000  2
   1186   2439   2419   2420     1  0.0000000  0.0000000  2
   1186   2439   2419   2421     1  0.0000000  0.0000000  2
   1187   1185   2414   2415     1  0.0000000  8.3680000  1
   1187   1185   2414   2415     1  180.0000771  10.4600000  2
   1188   1186   2439   2440     1  0.0000000  8.3680000  1
   1188   1186   2439   2440     1  180.0000771  10.4600000  2
   1191   1194   1214   1215     1  0.0000000  0.0000000  2
   1191   1197   1198   1199     1  0.0000000  1.2552000  3
   1191   1197   1198   1200     1  0.0000000  1.2552000  3
   1191   1197   1201   1202     1  0.0000000  1.2552000  3
   1191   1197   1201   1203     1  0.0000000  1.2552000  3
   1192   1191   1194   1214     1  0.0000000  0.6508444  3
   1192   1191   1194   1195     1  0.0000000  0.6508444  3
   1192   1191   1194   1196     1  0.0000000  0.6508444  3
   1192   1191   1197   1198     1  0.0000000  1.2552000  3
   1192   1191   1197   1201     1  0.0000000  1.2552000  3
   1193   1191   1194   1214     1  0.0000000  0.6508444  3
   1193   1191   1194   1195     1  0.0000000  0.6508444  3
   1193   1191   1194   1196     1  0.0000000  0.6508444  3
   1193   1191   1197   1198     1  0.0000000  1.2552000  3
   1193   1191   1197   1201     1  0.0000000  1.2552000  3
   1195   1194   1191   1197     1  0.0000000  0.6508444  3
   1195   1194   1214   1215     1  0.0000000  0.0000000  2
   1196   1194   1191   1197     1  0.0000000  0.6508444  3
   1196   1194   1214   1215     1  0.0000000  0.0000000  2
   1197   1198   1207   1208     1  0.0000000  0.6508444  3
   1197   1198   1207   1209     1  0.0000000  0.6508444  3
   1197   1201   1204   1205     1  0.0000000  0.6508444  3
   1197   1201   1204   1206     1  0.0000000  0.6508444  3
   1198   1197   1201   1202     1  0.0000000  1.2552000  3
   1198   1197   1201   1203     1  0.0000000  1.2552000  3
   1199   1198   1197   1201     1  0.0000000  1.2552000  3
   1199   1198   1207   1211     1  0.0000000  0.6508444  3
   1199   1198   1207   1208     1  0.0000000  0.6508444  3
   1199   1198   1207   1209     1  0.0000000  0.6508444  3
   1200   1198   1197   1201     1  0.0000000  1.2552000  3
   1200   1198   1207   1211     1  0.0000000  0.6508444  3
   1200   1198   1207   1208     1  0.0000000  0.6508444  3
   1200   1198   1207   1209     1  0.0000000  0.6508444  3
   1202   1201   1204   1210     1  0.0000000  0.6508444  3
   1202   1201   1204   1205     1  0.0000000  0.6508444  3
   1202   1201   1204   1206     1  0.0000000  0.6508444  3
   1203   1201   1204   1210     1  0.0000000  0.6508444  3
   1203   1201   1204   1205     1  0.0000000  0.6508444  3
   1203   1201   1204   1206     1  0.0000000  0.6508444  3
   1204   1210   2464   2465     1  180.0000771  10.4600000  2
   1205   1204   1210   1212     1  0.0000000  3.3472000  1
   1205   1204   1210   1212     1  0.0000000  0.0000000  2
   1205   1204   1210   1212     1  180.0000771  0.3347200  3
   1205   1204   1210   2464     1  180.0000771  0.0000000  2
   1206   1204   1210   1212     1  0.0000000  3.3472000  1
   1206   1204   1210   1212     1  0.0000000  0.0000000  2
   1206   1204   1210   1212     1  180.0000771  0.3347200  3
   1206   1204   1210   2464     1  180.0000771  0.0000000  2
   1207   1211   2489   2490     1  180.0000771  10.4600000  2
   1208   1207   1211   1213     1  0.0000000  3.3472000  1
   1208   1207   1211   1213     1  0.0000000  0.0000000  2
   1208   1207   1211   1213     1  180.0000771  0.3347200  3
   1208   1207   1211   2489     1  180.0000771  0.0000000  2
   1209   1207   1211   1213     1  0.0000000  3.3472000  1
   1209   1207   1211   1213     1  0.0000000  0.0000000  2
   1209   1207   1211   1213     1  180.0000771  0.3347200  3
   1209   1207   1211   2489     1  180.0000771  0.0000000  2
   1210   2464   2444   2445     1  0.0000000  0.0000000  2
   1210   2464   2444   2446     1  0.0000000  0.0000000  2
   1211   2489   2469   2470     1  0.0000000  0.0000000  2
   1211   2489   2469   2471     1  0.0000000  0.0000000  2
   1212   1210   2464   2465     1  0.0000000  8.3680000  1
   1212   1210   2464   2465     1  180.0000771  10.4600000  2
   1213   1211   2489   2490     1  0.0000000  8.3680000  1
   1213   1211   2489   2490     1  180.0000771  10.4600000  2
   1216   1219   1239   1240     1  0.0000000  0.0000000  2
   1216   1222   1223   1224     1  0.0000000  1.2552000  3
   1216   1222   1223   1225     1  0.0000000  1.2552000  3
   1216   1222   1226   1227     1  0.0000000  1.2552000  3
   1216   1222   1226   1228     1  0.0000000  1.2552000  3
   1217   1216   1219   1239     1  0.0000000  0.6508444  3
   1217   1216   1219   1220     1  0.0000000  0.6508444  3
   1217   1216   1219   1221     1  0.0000000  0.6508444  3
   1217   1216   1222   1223     1  0.0000000  1.2552000  3
   1217   1216   1222   1226     1  0.0000000  1.2552000  3
   1218   1216   1219   1239     1  0.0000000  0.6508444  3
   1218   1216   1219   1220     1  0.0000000  0.6508444  3
   1218   1216   1219   1221     1  0.0000000  0.6508444  3
   1218   1216   1222   1223     1  0.0000000  1.2552000  3
   1218   1216   1222   1226     1  0.0000000  1.2552000  3
   1220   1219   1216   1222     1  0.0000000  0.6508444  3
   1220   1219   1239   1240     1  0.0000000  0.0000000  2
   1221   1219   1216   1222     1  0.0000000  0.6508444  3
   1221   1219   1239   1240     1  0.0000000  0.0000000  2
   1222   1223   1232   1233     1  0.0000000  0.6508444  3
   1222   1223   1232   1234     1  0.0000000  0.6508444  3
   1222   1226   1229   1230     1  0.0000000  0.6508444  3
   1222   1226   1229   1231     1  0.0000000  0.6508444  3
   1223   1222   1226   1227     1  0.0000000  1.2552000  3
   1223   1222   1226   1228     1  0.0000000  1.2552000  3
   1224   1223   1222   1226     1  0.0000000  1.2552000  3
   1224   1223   1232   1236     1  0.0000000  0.6508444  3
   1224   1223   1232   1233     1  0.0000000  0.6508444  3
   1224   1223   1232   1234     1  0.0000000  0.6508444  3
   1225   1223   1222   1226     1  0.0000000  1.2552000  3
   1225   1223   1232   1236     1  0.0000000  0.6508444  3
   1225   1223   1232   1233     1  0.0000000  0.6508444  3
   1225   1223   1232   1234     1  0.0000000  0.6508444  3
   1227   1226   1229   1235     1  0.0000000  0.6508444  3
   1227   1226   1229   1230     1  0.0000000  0.6508444  3
   1227   1226   1229   1231     1  0.0000000  0.6508444  3
   1228   1226   1229   1235     1  0.0000000  0.6508444  3
   1228   1226   1229   1230     1  0.0000000  0.6508444  3
   1228   1226   1229   1231     1  0.0000000  0.6508444  3
   1229   1235   2514   2515     1  180.0000771  10.4600000  2
   1230   1229   1235   1237     1  0.0000000  3.3472000  1
   1230   1229   1235   1237     1  0.0000000  0.0000000  2
   1230   1229   1235   1237     1  180.0000771  0.3347200  3
   1230   1229   1235   2514     1  180.0000771  0.0000000  2
   1231   1229   1235   1237     1  0.0000000  3.3472000  1
   1231   1229   1235   1237     1  0.0000000  0.0000000  2
   1231   1229   1235   1237     1  180.0000771  0.3347200  3
   1231   1229   1235   2514     1  180.0000771  0.0000000  2
   1232   1236   2539   2540     1  180.0000771  10.4600000  2
   1233   1232   1236   1238     1  0.0000000  3.3472000  1
   1233   1232   1236   1238     1  0.0000000  0.0000000  2
   1233   1232   1236   1238     1  180.0000771  0.3347200  3
   1233   1232   1236   2539     1  180.0000771  0.0000000  2
   1234   1232   1236   1238     1  0.0000000  3.3472000  1
   1234   1232   1236   1238     1  0.0000000  0.0000000  2
   1234   1232   1236   1238     1  180.0000771  0.3347200  3
   1234   1232   1236   2539     1  180.0000771  0.0000000  2
   1235   2514   2494   2495     1  0.0000000  0.0000000  2
   1235   2514   2494   2496     1  0.0000000  0.0000000  2
   1236   2539   2519   2520     1  0.0000000  0.0000000  2
   1236   2539   2519   2521     1  0.0000000  0.0000000  2
   1237   1235   2514   2515     1  0.0000000  8.3680000  1
   1237   1235   2514   2515     1  180.0000771  10.4600000  2
   1238   1236   2539   2540     1  0.0000000  8.3680000  1
   1238   1236   2539   2540     1  180.0000771  10.4600000  2
   1241   1244   1264   1265     1  0.0000000  0.0000000  2
   1241   1247   1248   1249     1  0.0000000  1.2552000  3
   1241   1247   1248   1250     1  0.0000000  1.2552000  3
   1241   1247   1251   1252     1  0.0000000  1.2552000  3
   1241   1247   1251   1253     1  0.0000000  1.2552000  3
   1242   1241   1244   1264     1  0.0000000  0.6508444  3
   1242   1241   1244   1245     1  0.0000000  0.6508444  3
   1242   1241   1244   1246     1  0.0000000  0.6508444  3
   1242   1241   1247   1248     1  0.0000000  1.2552000  3
   1242   1241   1247   1251     1  0.0000000  1.2552000  3
   1243   1241   1244   1264     1  0.0000000  0.6508444  3
   1243   1241   1244   1245     1  0.0000000  0.6508444  3
   1243   1241   1244   1246     1  0.0000000  0.6508444  3
   1243   1241   1247   1248     1  0.0000000  1.2552000  3
   1243   1241   1247   1251     1  0.0000000  1.2552000  3
   1245   1244   1241   1247     1  0.0000000  0.6508444  3
   1245   1244   1264   1265     1  0.0000000  0.0000000  2
   1246   1244   1241   1247     1  0.0000000  0.6508444  3
   1246   1244   1264   1265     1  0.0000000  0.0000000  2
   1247   1248   1257   1258     1  0.0000000  0.6508444  3
   1247   1248   1257   1259     1  0.0000000  0.6508444  3
   1247   1251   1254   1255     1  0.0000000  0.6508444  3
   1247   1251   1254   1256     1  0.0000000  0.6508444  3
   1248   1247   1251   1252     1  0.0000000  1.2552000  3
   1248   1247   1251   1253     1  0.0000000  1.2552000  3
   1249   1248   1247   1251     1  0.0000000  1.2552000  3
   1249   1248   1257   1261     1  0.0000000  0.6508444  3
   1249   1248   1257   1258     1  0.0000000  0.6508444  3
   1249   1248   1257   1259     1  0.0000000  0.6508444  3
   1250   1248   1247   1251     1  0.0000000  1.2552000  3
   1250   1248   1257   1261     1  0.0000000  0.6508444  3
   1250   1248   1257   1258     1  0.0000000  0.6508444  3
   1250   1248   1257   1259     1  0.0000000  0.6508444  3
   1252   1251   1254   1260     1  0.0000000  0.6508444  3
   1252   1251   1254   1255     1  0.0000000  0.6508444  3
   1252   1251   1254   1256     1  0.0000000  0.6508444  3
   1253   1251   1254   1260     1  0.0000000  0.6508444  3
   1253   1251   1254   1255     1  0.0000000  0.6508444  3
   1253   1251   1254   1256     1  0.0000000  0.6508444  3
   1254   1260   2564   2565     1  180.0000771  10.4600000  2
   1255   1254   1260   1262     1  0.0000000  3.3472000  1
   1255   1254   1260   1262     1  0.0000000  0.0000000  2
   1255   1254   1260   1262     1  180.0000771  0.3347200  3
   1255   1254   1260   2564     1  180.0000771  0.0000000  2
   1256   1254   1260   1262     1  0.0000000  3.3472000  1
   1256   1254   1260   1262     1  0.0000000  0.0000000  2
   1256   1254   1260   1262     1  180.0000771  0.3347200  3
   1256   1254   1260   2564     1  180.0000771  0.0000000  2
   1257   1261   2589   2590     1  180.0000771  10.4600000  2
   1258   1257   1261   1263     1  0.0000000  3.3472000  1
   1258   1257   1261   1263     1  0.0000000  0.0000000  2
   1258   1257   1261   1263     1  180.0000771  0.3347200  3
   1258   1257   1261   2589     1  180.0000771  0.0000000  2
   1259   1257   1261   1263     1  0.0000000  3.3472000  1
   1259   1257   1261   1263     1  0.0000000  0.0000000  2
   1259   1257   1261   1263     1  180.0000771  0.3347200  3
   1259   1257   1261   2589     1  180.0000771  0.0000000  2
   1260   2564   2544   2545     1  0.0000000  0.0000000  2
   1260   2564   2544   2546     1  0.0000000  0.0000000  2
   1261   2589   2569   2570     1  0.0000000  0.0000000  2
   1261   2589   2569   2571     1  0.0000000  0.0000000  2
   1262   1260   2564   2565     1  0.0000000  8.3680000  1
   1262   1260   2564   2565     1  180.0000771  10.4600000  2
   1263   1261   2589   2590     1  0.0000000  8.3680000  1
   1263   1261   2589   2590     1  180.0000771  10.4600000  2
   1266   1269   1289   1290     1  0.0000000  0.0000000  2
   1266   1272   1273   1274     1  0.0000000  1.2552000  3
   1266   1272   1273   1275     1  0.0000000  1.2552000  3
   1266   1272   1276   1277     1  0.0000000  1.2552000  3
   1266   1272   1276   1278     1  0.0000000  1.2552000  3
   1267   1266   1269   1289     1  0.0000000  0.6508444  3
   1267   1266   1269   1270     1  0.0000000  0.6508444  3
   1267   1266   1269   1271     1  0.0000000  0.6508444  3
   1267   1266   1272   1273     1  0.0000000  1.2552000  3
   1267   1266   1272   1276     1  0.0000000  1.2552000  3
   1268   1266   1269   1289     1  0.0000000  0.6508444  3
   1268   1266   1269   1270     1  0.0000000  0.6508444  3
   1268   1266   1269   1271     1  0.0000000  0.6508444  3
   1268   1266   1272   1273     1  0.0000000  1.2552000  3
   1268   1266   1272   1276     1  0.0000000  1.2552000  3
   1270   1269   1266   1272     1  0.0000000  0.6508444  3
   1270   1269   1289   1290     1  0.0000000  0.0000000  2
   1271   1269   1266   1272     1  0.0000000  0.6508444  3
   1271   1269   1289   1290     1  0.0000000  0.0000000  2
   1272   1273   1282   1283     1  0.0000000  0.6508444  3
   1272   1273   1282   1284     1  0.0000000  0.6508444  3
   1272   1276   1279   1280     1  0.0000000  0.6508444  3
   1272   1276   1279   1281     1  0.0000000  0.6508444  3
   1273   1272   1276   1277     1  0.0000000  1.2552000  3
   1273   1272   1276   1278     1  0.0000000  1.2552000  3
   1274   1273   1272   1276     1  0.0000000  1.2552000  3
   1274   1273   1282   1286     1  0.0000000  0.6508444  3
   1274   1273   1282   1283     1  0.0000000  0.6508444  3
   1274   1273   1282   1284     1  0.0000000  0.6508444  3
   1275   1273   1272   1276     1  0.0000000  1.2552000  3
   1275   1273   1282   1286     1  0.0000000  0.6508444  3
   1275   1273   1282   1283     1  0.0000000  0.6508444  3
   1275   1273   1282   1284     1  0.0000000  0.6508444  3
   1277   1276   1279   1285     1  0.0000000  0.6508444  3
   1277   1276   1279   1280     1  0.0000000  0.6508444  3
   1277   1276   1279   1281     1  0.0000000  0.6508444  3
   1278   1276   1279   1285     1  0.0000000  0.6508444  3
   1278   1276   1279   1280     1  0.0000000  0.6508444  3
   1278   1276   1279   1281     1  0.0000000  0.6508444  3
   1279   1285   2614   2615     1  180.0000771  10.4600000  2
   1280   1279   1285   1287     1  0.0000000  3.3472000  1
   1280   1279   1285   1287     1  0.0000000  0.0000000  2
   1280   1279   1285   1287     1  180.0000771  0.3347200  3
   1280   1279   1285   2614     1  180.0000771  0.0000000  2
   1281   1279   1285   1287     1  0.0000000  3.3472000  1
   1281   1279   1285   1287     1  0.0000000  0.0000000  2
   1281   1279   1285   1287     1  180.0000771  0.3347200  3
   1281   1279   1285   2614     1  180.0000771  0.0000000  2
   1282   1286   2639   2640     1  180.0000771  10.4600000  2
   1283   1282   1286   1288     1  0.0000000  3.3472000  1
   1283   1282   1286   1288     1  0.0000000  0.0000000  2
   1283   1282   1286   1288     1  180.0000771  0.3347200  3
   1283   1282   1286   2639     1  180.0000771  0.0000000  2
   1284   1282   1286   1288     1  0.0000000  3.3472000  1
   1284   1282   1286   1288     1  0.0000000  0.0000000  2
   1284   1282   1286   1288     1  180.0000771  0.3347200  3
   1284   1282   1286   2639     1  180.0000771  0.0000000  2
   1285   2614   2594   2595     1  0.0000000  0.0000000  2
   1285   2614   2594   2596     1  0.0000000  0.0000000  2
   1286   2639   2619   2620     1  0.0000000  0.0000000  2
   1286   2639   2619   2621     1  0.0000000  0.0000000  2
   1287   1285   2614   2615     1  0.0000000  8.3680000  1
   1287   1285   2614   2615     1  180.0000771  10.4600000  2
   1288   1286   2639   2640     1  0.0000000  8.3680000  1
   1288   1286   2639   2640     1  180.0000771  10.4600000  2
   1291   1294   1314   1315     1  0.0000000  0.0000000  2
   1291   1297   1298   1299     1  0.0000000  1.2552000  3
   1291   1297   1298   1300     1  0.0000000  1.2552000  3
   1291   1297   1301   1302     1  0.0000000  1.2552000  3
   1291   1297   1301   1303     1  0.0000000  1.2552000  3
   1292   1291   1294   1314     1  0.0000000  0.6508444  3
   1292   1291   1294   1295     1  0.0000000  0.6508444  3
   1292   1291   1294   1296     1  0.0000000  0.6508444  3
   1292   1291   1297   1298     1  0.0000000  1.2552000  3
   1292   1291   1297   1301     1  0.0000000  1.2552000  3
   1293   1291   1294   1314     1  0.0000000  0.6508444  3
   1293   1291   1294   1295     1  0.0000000  0.6508444  3
   1293   1291   1294   1296     1  0.0000000  0.6508444  3
   1293   1291   1297   1298     1  0.0000000  1.2552000  3
   1293   1291   1297   1301     1  0.0000000  1.2552000  3
   1295   1294   1291   1297     1  0.0000000  0.6508444  3
   1295   1294   1314   1315     1  0.0000000  0.0000000  2
   1296   1294   1291   1297     1  0.0000000  0.6508444  3
   1296   1294   1314   1315     1  0.0000000  0.0000000  2
   1297   1298   1307   1308     1  0.0000000  0.6508444  3
   1297   1298   1307   1309     1  0.0000000  0.6508444  3
   1297   1301   1304   1305     1  0.0000000  0.6508444  3
   1297   1301   1304   1306     1  0.0000000  0.6508444  3
   1298   1297   1301   1302     1  0.0000000  1.2552000  3
   1298   1297   1301   1303     1  0.0000000  1.2552000  3
   1299   1298   1297   1301     1  0.0000000  1.2552000  3
   1299   1298   1307   1311     1  0.0000000  0.6508444  3
   1299   1298   1307   1308     1  0.0000000  0.6508444  3
   1299   1298   1307   1309     1  0.0000000  0.6508444  3
   1300   1298   1297   1301     1  0.0000000  1.2552000  3
   1300   1298   1307   1311     1  0.0000000  0.6508444  3
   1300   1298   1307   1308     1  0.0000000  0.6508444  3
   1300   1298   1307   1309     1  0.0000000  0.6508444  3
   1302   1301   1304   1310     1  0.0000000  0.6508444  3
   1302   1301   1304   1305     1  0.0000000  0.6508444  3
   1302   1301   1304   1306     1  0.0000000  0.6508444  3
   1303   1301   1304   1310     1  0.0000000  0.6508444  3
   1303   1301   1304   1305     1  0.0000000  0.6508444  3
   1303   1301   1304   1306     1  0.0000000  0.6508444  3
   1304   1310   2664   2665     1  180.0000771  10.4600000  2
   1305   1304   1310   1312     1  0.0000000  3.3472000  1
   1305   1304   1310   1312     1  0.0000000  0.0000000  2
   1305   1304   1310   1312     1  180.0000771  0.3347200  3
   1305   1304   1310   2664     1  180.0000771  0.0000000  2
   1306   1304   1310   1312     1  0.0000000  3.3472000  1
   1306   1304   1310   1312     1  0.0000000  0.0000000  2
   1306   1304   1310   1312     1  180.0000771  0.3347200  3
   1306   1304   1310   2664     1  180.0000771  0.0000000  2
   1307   1311   2689   2690     1  180.0000771  10.4600000  2
   1308   1307   1311   1313     1  0.0000000  3.3472000  1
   1308   1307   1311   1313     1  0.0000000  0.0000000  2
   1308   1307   1311   1313     1  180.0000771  0.3347200  3
   1308   1307   1311   2689     1  180.0000771  0.0000000  2
   1309   1307   1311   1313     1  0.0000000  3.3472000  1
   1309   1307   1311   1313     1  0.0000000  0.0000000  2
   1309   1307   1311   1313     1  180.0000771  0.3347200  3
   1309   1307   1311   2689     1  180.0000771  0.0000000  2
   1310   2664   2644   2645     1  0.0000000  0.0000000  2
   1310   2664   2644   2646     1  0.0000000  0.0000000  2
   1311   2689   2669   2670     1  0.0000000  0.0000000  2
   1311   2689   2669   2671     1  0.0000000  0.0000000  2
   1312   1310   2664   2665     1  0.0000000  8.3680000  1
   1312   1310   2664   2665     1  180.0000771  10.4600000  2
   1313   1311   2689   2690     1  0.0000000  8.3680000  1
   1313   1311   2689   2690     1  180.0000771  10.4600000  2
   1316   1319   1339   1340     1  0.0000000  0.0000000  2
   1316   1322   1323   1324     1  0.0000000  1.2552000  3
   1316   1322   1323   1325     1  0.0000000  1.2552000  3
   1316   1322   1326   1327     1  0.0000000  1.2552000  3
   1316   1322   1326   1328     1  0.0000000  1.2552000  3
   1317   1316   1319   1339     1  0.0000000  0.6508444  3
   1317   1316   1319   1320     1  0.0000000  0.6508444  3
   1317   1316   1319   1321     1  0.0000000  0.6508444  3
   1317   1316   1322   1323     1  0.0000000  1.2552000  3
   1317   1316   1322   1326     1  0.0000000  1.2552000  3
   1318   1316   1319   1339     1  0.0000000  0.6508444  3
   1318   1316   1319   1320     1  0.0000000  0.6508444  3
   1318   1316   1319   1321     1  0.0000000  0.6508444  3
   1318   1316   1322   1323     1  0.0000000  1.2552000  3
   1318   1316   1322   1326     1  0.0000000  1.2552000  3
   1320   1319   1316   1322     1  0.0000000  0.6508444  3
   1320   1319   1339   1340     1  0.0000000  0.0000000  2
   1321   1319   1316   1322     1  0.0000000  0.6508444  3
   1321   1319   1339   1340     1  0.0000000  0.0000000  2
   1322   1323   1332   1333     1  0.0000000  0.6508444  3
   1322   1323   1332   1334     1  0.0000000  0.6508444  3
   1322   1326   1329   1330     1  0.0000000  0.6508444  3
   1322   1326   1329   1331     1  0.0000000  0.6508444  3
   1323   1322   1326   1327     1  0.0000000  1.2552000  3
   1323   1322   1326   1328     1  0.0000000  1.2552000  3
   1324   1323   1322   1326     1  0.0000000  1.2552000  3
   1324   1323   1332   1336     1  0.0000000  0.6508444  3
   1324   1323   1332   1333     1  0.0000000  0.6508444  3
   1324   1323   1332   1334     1  0.0000000  0.6508444  3
   1325   1323   1322   1326     1  0.0000000  1.2552000  3
   1325   1323   1332   1336     1  0.0000000  0.6508444  3
   1325   1323   1332   1333     1  0.0000000  0.6508444  3
   1325   1323   1332   1334     1  0.0000000  0.6508444  3
   1327   1326   1329   1335     1  0.0000000  0.6508444  3
   1327   1326   1329   1330     1  0.0000000  0.6508444  3
   1327   1326   1329   1331     1  0.0000000  0.6508444  3
   1328   1326   1329   1335     1  0.0000000  0.6508444  3
   1328   1326   1329   1330     1  0.0000000  0.6508444  3
   1328   1326   1329   1331     1  0.0000000  0.6508444  3
   1329   1335   2714   2715     1  180.0000771  10.4600000  2
   1330   1329   1335   1337     1  0.0000000  3.3472000  1
   1330   1329   1335   1337     1  0.0000000  0.0000000  2
   1330   1329   1335   1337     1  180.0000771  0.3347200  3
   1330   1329   1335   2714     1  180.0000771  0.0000000  2
   1331   1329   1335   1337     1  0.0000000  3.3472000  1
   1331   1329   1335   1337     1  0.0000000  0.0000000  2
   1331   1329   1335   1337     1  180.0000771  0.3347200  3
   1331   1329   1335   2714     1  180.0000771  0.0000000  2
   1332   1336   2739   2740     1  180.0000771  10.4600000  2
   1333   1332   1336   1338     1  0.0000000  3.3472000  1
   1333   1332   1336   1338     1  0.0000000  0.0000000  2
   1333   1332   1336   1338     1  180.0000771  0.3347200  3
   1333   1332   1336   2739     1  180.0000771  0.0000000  2
   1334   1332   1336   1338     1  0.0000000  3.3472000  1
   1334   1332   1336   1338     1  0.0000000  0.0000000  2
   1334   1332   1336   1338     1  180.0000771  0.3347200  3
   1334   1332   1336   2739     1  180.0000771  0.0000000  2
   1335   2714   2694   2695     1  0.0000000  0.0000000  2
   1335   2714   2694   2696     1  0.0000000  0.0000000  2
   1336   2739   2719   2720     1  0.0000000  0.0000000  2
   1336   2739   2719   2721     1  0.0000000  0.0000000  2
   1337   1335   2714   2715     1  0.0000000  8.3680000  1
   1337   1335   2714   2715     1  180.0000771  10.4600000  2
   1338   1336   2739   2740     1  0.0000000  8.3680000  1
   1338   1336   2739   2740     1  180.0000771  10.4600000  2
   1341   1344   1364   1365     1  0.0000000  0.0000000  2
   1341   1347   1348   1349     1  0.0000000  1.2552000  3
   1341   1347   1348   1350     1  0.0000000  1.2552000  3
   1341   1347   1351   1352     1  0.0000000  1.2552000  3
   1341   1347   1351   1353     1  0.0000000  1.2552000  3
   1342   1341   1344   1364     1  0.0000000  0.6508444  3
   1342   1341   1344   1345     1  0.0000000  0.6508444  3
   1342   1341   1344   1346     1  0.0000000  0.6508444  3
   1342   1341   1347   1348     1  0.0000000  1.2552000  3
   1342   1341   1347   1351     1  0.0000000  1.2552000  3
   1343   1341   1344   1364     1  0.0000000  0.6508444  3
   1343   1341   1344   1345     1  0.0000000  0.6508444  3
   1343   1341   1344   1346     1  0.0000000  0.6508444  3
   1343   1341   1347   1348     1  0.0000000  1.2552000  3
   1343   1341   1347   1351     1  0.0000000  1.2552000  3
   1345   1344   1341   1347     1  0.0000000  0.6508444  3
   1345   1344   1364   1365     1  0.0000000  0.0000000  2
   1346   1344   1341   1347     1  0.0000000  0.6508444  3
   1346   1344   1364   1365     1  0.0000000  0.0000000  2
   1347   1348   1357   1358     1  0.0000000  0.6508444  3
   1347   1348   1357   1359     1  0.0000000  0.6508444  3
   1347   1351   1354   1355     1  0.0000000  0.6508444  3
   1347   1351   1354   1356     1  0.0000000  0.6508444  3
   1348   1347   1351   1352     1  0.0000000  1.2552000  3
   1348   1347   1351   1353     1  0.0000000  1.2552000  3
   1349   1348   1347   1351     1  0.0000000  1.2552000  3
   1349   1348   1357   1361     1  0.0000000  0.6508444  3
   1349   1348   1357   1358     1  0.0000000  0.6508444  3
   1349   1348   1357   1359     1  0.0000000  0.6508444  3
   1350   1348   1347   1351     1  0.0000000  1.2552000  3
   1350   1348   1357   1361     1  0.0000000  0.6508444  3
   1350   1348   1357   1358     1  0.0000000  0.6508444  3
   1350   1348   1357   1359     1  0.0000000  0.6508444  3
   1352   1351   1354   1360     1  0.0000000  0.6508444  3
   1352   1351   1354   1355     1  0.0000000  0.6508444  3
   1352   1351   1354   1356     1  0.0000000  0.6508444  3
   1353   1351   1354   1360     1  0.0000000  0.6508444  3
   1353   1351   1354   1355     1  0.0000000  0.6508444  3
   1353   1351   1354   1356     1  0.0000000  0.6508444  3
   1354   1360   2764   2765     1  180.0000771  10.4600000  2
   1355   1354   1360   1362     1  0.0000000  3.3472000  1
   1355   1354   1360   1362     1  0.0000000  0.0000000  2
   1355   1354   1360   1362     1  180.0000771  0.3347200  3
   1355   1354   1360   2764     1  180.0000771  0.0000000  2
   1356   1354   1360   1362     1  0.0000000  3.3472000  1
   1356   1354   1360   1362     1  0.0000000  0.0000000  2
   1356   1354   1360   1362     1  180.0000771  0.3347200  3
   1356   1354   1360   2764     1  180.0000771  0.0000000  2
   1357   1361   2789   2790     1  180.0000771  10.4600000  2
   1358   1357   1361   1363     1  0.0000000  3.3472000  1
   1358   1357   1361   1363     1  0.0000000  0.0000000  2
   1358   1357   1361   1363     1  180.0000771  0.3347200  3
   1358   1357   1361   2789     1  180.0000771  0.0000000  2
   1359   1357   1361   1363     1  0.0000000  3.3472000  1
   1359   1357   1361   1363     1  0.0000000  0.0000000  2
   1359   1357   1361   1363     1  180.0000771  0.3347200  3
   1359   1357   1361   2789     1  180.0000771  0.0000000  2
   1360   2764   2744   2745     1  0.0000000  0.0000000  2
   1360   2764   2744   2746     1  0.0000000  0.0000000  2
   1361   2789   2769   2770     1  0.0000000  0.0000000  2
   1361   2789   2769   2771     1  0.0000000  0.0000000  2
   1362   1360   2764   2765     1  0.0000000  8.3680000  1
   1362   1360   2764   2765     1  180.0000771  10.4600000  2
   1363   1361   2789   2790     1  0.0000000  8.3680000  1
   1363   1361   2789   2790     1  180.0000771  10.4600000  2
   1366   1369   1389   1390     1  0.0000000  0.0000000  2
   1366   1372   1373   1374     1  0.0000000  1.2552000  3
   1366   1372   1373   1375     1  0.0000000  1.2552000  3
   1366   1372   1376   1377     1  0.0000000  1.2552000  3
   1366   1372   1376   1378     1  0.0000000  1.2552000  3
   1367   1366   1369   1389     1  0.0000000  0.6508444  3
   1367   1366   1369   1370     1  0.0000000  0.6508444  3
   1367   1366   1369   1371     1  0.0000000  0.6508444  3
   1367   1366   1372   1373     1  0.0000000  1.2552000  3
   1367   1366   1372   1376     1  0.0000000  1.2552000  3
   1368   1366   1369   1389     1  0.0000000  0.6508444  3
   1368   1366   1369   1370     1  0.0000000  0.6508444  3
   1368   1366   1369   1371     1  0.0000000  0.6508444  3
   1368   1366   1372   1373     1  0.0000000  1.2552000  3
   1368   1366   1372   1376     1  0.0000000  1.2552000  3
   1370   1369   1366   1372     1  0.0000000  0.6508444  3
   1370   1369   1389   1390     1  0.0000000  0.0000000  2
   1371   1369   1366   1372     1  0.0000000  0.6508444  3
   1371   1369   1389   1390     1  0.0000000  0.0000000  2
   1372   1373   1382   1383     1  0.0000000  0.6508444  3
   1372   1373   1382   1384     1  0.0000000  0.6508444  3
   1372   1376   1379   1380     1  0.0000000  0.6508444  3
   1372   1376   1379   1381     1  0.0000000  0.6508444  3
   1373   1372   1376   1377     1  0.0000000  1.2552000  3
   1373   1372   1376   1378     1  0.0000000  1.2552000  3
   1374   1373   1372   1376     1  0.0000000  1.2552000  3
   1374   1373   1382   1386     1  0.0000000  0.6508444  3
   1374   1373   1382   1383     1  0.0000000  0.6508444  3
   1374   1373   1382   1384     1  0.0000000  0.6508444  3
   1375   1373   1372   1376     1  0.0000000  1.2552000  3
   1375   1373   1382   1386     1  0.0000000  0.6508444  3
   1375   1373   1382   1383     1  0.0000000  0.6508444  3
   1375   1373   1382   1384     1  0.0000000  0.6508444  3
   1377   1376   1379   1385     1  0.0000000  0.6508444  3
   1377   1376   1379   1380     1  0.0000000  0.6508444  3
   1377   1376   1379   1381     1  0.0000000  0.6508444  3
   1378   1376   1379   1385     1  0.0000000  0.6508444  3
   1378   1376   1379   1380     1  0.0000000  0.6508444  3
   1378   1376   1379   1381     1  0.0000000  0.6508444  3
   1379   1385   2814   2815     1  180.0000771  10.4600000  2
   1380   1379   1385   1387     1  0.0000000  3.3472000  1
   1380   1379   1385   1387     1  0.0000000  0.0000000  2
   1380   1379   1385   1387     1  180.0000771  0.3347200  3
   1380   1379   1385   2814     1  180.0000771  0.0000000  2
   1381   1379   1385   1387     1  0.0000000  3.3472000  1
   1381   1379   1385   1387     1  0.0000000  0.0000000  2
   1381   1379   1385   1387     1  180.0000771  0.3347200  3
   1381   1379   1385   2814     1  180.0000771  0.0000000  2
   1382   1386   2839   2840     1  180.0000771  10.4600000  2
   1383   1382   1386   1388     1  0.0000000  3.3472000  1
   1383   1382   1386   1388     1  0.0000000  0.0000000  2
   1383   1382   1386   1388     1  180.0000771  0.3347200  3
   1383   1382   1386   2839     1  180.0000771  0.0000000  2
   1384   1382   1386   1388     1  0.0000000  3.3472000  1
   1384   1382   1386   1388     1  0.0000000  0.0000000  2
   1384   1382   1386   1388     1  180.0000771  0.3347200  3
   1384   1382   1386   2839     1  180.0000771  0.0000000  2
   1385   2814   2794   2795     1  0.0000000  0.0000000  2
   1385   2814   2794   2796     1  0.0000000  0.0000000  2
   1386   2839   2819   2820     1  0.0000000  0.0000000  2
   1386   2839   2819   2821     1  0.0000000  0.0000000  2
   1387   1385   2814   2815     1  0.0000000  8.3680000  1
   1387   1385   2814   2815     1  180.0000771  10.4600000  2
   1388   1386   2839   2840     1  0.0000000  8.3680000  1
   1388   1386   2839   2840     1  180.0000771  10.4600000  2
   1391   1394   1414   1415     1  0.0000000  0.0000000  2
   1391   1397   1398   1399     1  0.0000000  1.2552000  3
   1391   1397   1398   1400     1  0.0000000  1.2552000  3
   1391   1397   1401   1402     1  0.0000000  1.2552000  3
   1391   1397   1401   1403     1  0.0000000  1.2552000  3
   1392   1391   1394   1414     1  0.0000000  0.6508444  3
   1392   1391   1394   1395     1  0.0000000  0.6508444  3
   1392   1391   1394   1396     1  0.0000000  0.6508444  3
   1392   1391   1397   1398     1  0.0000000  1.2552000  3
   1392   1391   1397   1401     1  0.0000000  1.2552000  3
   1393   1391   1394   1414     1  0.0000000  0.6508444  3
   1393   1391   1394   1395     1  0.0000000  0.6508444  3
   1393   1391   1394   1396     1  0.0000000  0.6508444  3
   1393   1391   1397   1398     1  0.0000000  1.2552000  3
   1393   1391   1397   1401     1  0.0000000  1.2552000  3
   1395   1394   1391   1397     1  0.0000000  0.6508444  3
   1395   1394   1414   1415     1  0.0000000  0.0000000  2
   1396   1394   1391   1397     1  0.0000000  0.6508444  3
   1396   1394   1414   1415     1  0.0000000  0.0000000  2
   1397   1398   1407   1408     1  0.0000000  0.6508444  3
   1397   1398   1407   1409     1  0.0000000  0.6508444  3
   1397   1401   1404   1405     1  0.0000000  0.6508444  3
   1397   1401   1404   1406     1  0.0000000  0.6508444  3
   1398   1397   1401   1402     1  0.0000000  1.2552000  3
   1398   1397   1401   1403     1  0.0000000  1.2552000  3
   1399   1398   1397   1401     1  0.0000000  1.2552000  3
   1399   1398   1407   1411     1  0.0000000  0.6508444  3
   1399   1398   1407   1408     1  0.0000000  0.6508444  3
   1399   1398   1407   1409     1  0.0000000  0.6508444  3
   1400   1398   1397   1401     1  0.0000000  1.2552000  3
   1400   1398   1407   1411     1  0.0000000  0.6508444  3
   1400   1398   1407   1408     1  0.0000000  0.6508444  3
   1400   1398   1407   1409     1  0.0000000  0.6508444  3
   1402   1401   1404   1410     1  0.0000000  0.6508444  3
   1402   1401   1404   1405     1  0.0000000  0.6508444  3
   1402   1401   1404   1406     1  0.0000000  0.6508444  3
   1403   1401   1404   1410     1  0.0000000  0.6508444  3
   1403   1401   1404   1405     1  0.0000000  0.6508444  3
   1403   1401   1404   1406     1  0.0000000  0.6508444  3
   1404   1410   2864   2865     1  180.0000771  10.4600000  2
   1405   1404   1410   1412     1  0.0000000  3.3472000  1
   1405   1404   1410   1412     1  0.0000000  0.0000000  2
   1405   1404   1410   1412     1  180.0000771  0.3347200  3
   1405   1404   1410   2864     1  180.0000771  0.0000000  2
   1406   1404   1410   1412     1  0.0000000  3.3472000  1
   1406   1404   1410   1412     1  0.0000000  0.0000000  2
   1406   1404   1410   1412     1  180.0000771  0.3347200  3
   1406   1404   1410   2864     1  180.0000771  0.0000000  2
   1407   1411   2889   2890     1  180.0000771  10.4600000  2
   1408   1407   1411   1413     1  0.0000000  3.3472000  1
   1408   1407   1411   1413     1  0.0000000  0.0000000  2
   1408   1407   1411   1413     1  180.0000771  0.3347200  3
   1408   1407   1411   2889     1  180.0000771  0.0000000  2
   1409   1407   1411   1413     1  0.0000000  3.3472000  1
   1409   1407   1411   1413     1  0.0000000  0.0000000  2
   1409   1407   1411   1413     1  180.0000771  0.3347200  3
   1409   1407   1411   2889     1  180.0000771  0.0000000  2
   1410   2864   2844   2845     1  0.0000000  0.0000000  2
   1410   2864   2844   2846     1  0.0000000  0.0000000  2
   1411   2889   2869   2870     1  0.0000000  0.0000000  2
   1411   2889   2869   2871     1  0.0000000  0.0000000  2
   1412   1410   2864   2865     1  0.0000000  8.3680000  1
   1412   1410   2864   2865     1  180.0000771  10.4600000  2
   1413   1411   2889   2890     1  0.0000000  8.3680000  1
   1413   1411   2889   2890     1  180.0000771  10.4600000  2
   1416   1419   1439   1440     1  0.0000000  0.0000000  2
   1416   1422   1423   1424     1  0.0000000  1.2552000  3
   1416   1422   1423   1425     1  0.0000000  1.2552000  3
   1416   1422   1426   1427     1  0.0000000  1.2552000  3
   1416   1422   1426   1428     1  0.0000000  1.2552000  3
   1417   1416   1419   1439     1  0.0000000  0.6508444  3
   1417   1416   1419   1420     1  0.0000000  0.6508444  3
   1417   1416   1419   1421     1  0.0000000  0.6508444  3
   1417   1416   1422   1423     1  0.0000000  1.2552000  3
   1417   1416   1422   1426     1  0.0000000  1.2552000  3
   1418   1416   1419   1439     1  0.0000000  0.6508444  3
   1418   1416   1419   1420     1  0.0000000  0.6508444  3
   1418   1416   1419   1421     1  0.0000000  0.6508444  3
   1418   1416   1422   1423     1  0.0000000  1.2552000  3
   1418   1416   1422   1426     1  0.0000000  1.2552000  3
   1420   1419   1416   1422     1  0.0000000  0.6508444  3
   1420   1419   1439   1440     1  0.0000000  0.0000000  2
   1421   1419   1416   1422     1  0.0000000  0.6508444  3
   1421   1419   1439   1440     1  0.0000000  0.0000000  2
   1422   1423   1432   1433     1  0.0000000  0.6508444  3
   1422   1423   1432   1434     1  0.0000000  0.6508444  3
   1422   1426   1429   1430     1  0.0000000  0.6508444  3
   1422   1426   1429   1431     1  0.0000000  0.6508444  3
   1423   1422   1426   1427     1  0.0000000  1.2552000  3
   1423   1422   1426   1428     1  0.0000000  1.2552000  3
   1424   1423   1422   1426     1  0.0000000  1.2552000  3
   1424   1423   1432   1436     1  0.0000000  0.6508444  3
   1424   1423   1432   1433     1  0.0000000  0.6508444  3
   1424   1423   1432   1434     1  0.0000000  0.6508444  3
   1425   1423   1422   1426     1  0.0000000  1.2552000  3
   1425   1423   1432   1436     1  0.0000000  0.6508444  3
   1425   1423   1432   1433     1  0.0000000  0.6508444  3
   1425   1423   1432   1434     1  0.0000000  0.6508444  3
   1427   1426   1429   1435     1  0.0000000  0.6508444  3
   1427   1426   1429   1430     1  0.0000000  0.6508444  3
   1427   1426   1429   1431     1  0.0000000  0.6508444  3
   1428   1426   1429   1435     1  0.0000000  0.6508444  3
   1428   1426   1429   1430     1  0.0000000  0.6508444  3
   1428   1426   1429   1431     1  0.0000000  0.6508444  3
   1429   1435   2914   2915     1  180.0000771  10.4600000  2
   1430   1429   1435   1437     1  0.0000000  3.3472000  1
   1430   1429   1435   1437     1  0.0000000  0.0000000  2
   1430   1429   1435   1437     1  180.0000771  0.3347200  3
   1430   1429   1435   2914     1  180.0000771  0.0000000  2
   1431   1429   1435   1437     1  0.0000000  3.3472000  1
   1431   1429   1435   1437     1  0.0000000  0.0000000  2
   1431   1429   1435   1437     1  180.0000771  0.3347200  3
   1431   1429   1435   2914     1  180.0000771  0.0000000  2
   1432   1436   2939   2940     1  180.0000771  10.4600000  2
   1433   1432   1436   1438     1  0.0000000  3.3472000  1
   1433   1432   1436   1438     1  0.0000000  0.0000000  2
   1433   1432   1436   1438     1  180.0000771  0.3347200  3
   1433   1432   1436   2939     1  180.0000771  0.0000000  2
   1434   1432   1436   1438     1  0.0000000  3.3472000  1
   1434   1432   1436   1438     1  0.0000000  0.0000000  2
   1434   1432   1436   1438     1  180.0000771  0.3347200  3
   1434   1432   1436   2939     1  180.0000771  0.0000000  2
   1435   2914   2894   2895     1  0.0000000  0.0000000  2
   1435   2914   2894   2896     1  0.0000000  0.0000000  2
   1436   2939   2919   2920     1  0.0000000  0.0000000  2
   1436   2939   2919   2921     1  0.0000000  0.0000000  2
   1437   1435   2914   2915     1  0.0000000  8.3680000  1
   1437   1435   2914   2915     1  180.0000771  10.4600000  2
   1438   1436   2939   2940     1  0.0000000  8.3680000  1
   1438   1436   2939   2940     1  180.0000771  10.4600000  2
   1441   1444   1464   1465     1  0.0000000  0.0000000  2
   1441   1447   1448   1449     1  0.0000000  1.2552000  3
   1441   1447   1448   1450     1  0.0000000  1.2552000  3
   1441   1447   1451   1452     1  0.0000000  1.2552000  3
   1441   1447   1451   1453     1  0.0000000  1.2552000  3
   1442   1441   1444   1464     1  0.0000000  0.6508444  3
   1442   1441   1444   1445     1  0.0000000  0.6508444  3
   1442   1441   1444   1446     1  0.0000000  0.6508444  3
   1442   1441   1447   1448     1  0.0000000  1.2552000  3
   1442   1441   1447   1451     1  0.0000000  1.2552000  3
   1443   1441   1444   1464     1  0.0000000  0.6508444  3
   1443   1441   1444   1445     1  0.0000000  0.6508444  3
   1443   1441   1444   1446     1  0.0000000  0.6508444  3
   1443   1441   1447   1448     1  0.0000000  1.2552000  3
   1443   1441   1447   1451     1  0.0000000  1.2552000  3
   1445   1444   1441   1447     1  0.0000000  0.6508444  3
   1445   1444   1464   1465     1  0.0000000  0.0000000  2
   1446   1444   1441   1447     1  0.0000000  0.6508444  3
   1446   1444   1464   1465     1  0.0000000  0.0000000  2
   1447   1448   1457   1458     1  0.0000000  0.6508444  3
   1447   1448   1457   1459     1  0.0000000  0.6508444  3
   1447   1451   1454   1455     1  0.0000000  0.6508444  3
   1447   1451   1454   1456     1  0.0000000  0.6508444  3
   1448   1447   1451   1452     1  0.0000000  1.2552000  3
   1448   1447   1451   1453     1  0.0000000  1.2552000  3
   1449   1448   1447   1451     1  0.0000000  1.2552000  3
   1449   1448   1457   1461     1  0.0000000  0.6508444  3
   1449   1448   1457   1458     1  0.0000000  0.6508444  3
   1449   1448   1457   1459     1  0.0000000  0.6508444  3
   1450   1448   1447   1451     1  0.0000000  1.2552000  3
   1450   1448   1457   1461     1  0.0000000  0.6508444  3
   1450   1448   1457   1458     1  0.0000000  0.6508444  3
   1450   1448   1457   1459     1  0.0000000  0.6508444  3
   1452   1451   1454   1460     1  0.0000000  0.6508444  3
   1452   1451   1454   1455     1  0.0000000  0.6508444  3
   1452   1451   1454   1456     1  0.0000000  0.6508444  3
   1453   1451   1454   1460     1  0.0000000  0.6508444  3
   1453   1451   1454   1455     1  0.0000000  0.6508444  3
   1453   1451   1454   1456     1  0.0000000  0.6508444  3
   1454   1460   2964   2965     1  180.0000771  10.4600000  2
   1455   1454   1460   1462     1  0.0000000  3.3472000  1
   1455   1454   1460   1462     1  0.0000000  0.0000000  2
   1455   1454   1460   1462     1  180.0000771  0.3347200  3
   1455   1454   1460   2964     1  180.0000771  0.0000000  2
   1456   1454   1460   1462     1  0.0000000  3.3472000  1
   1456   1454   1460   1462     1  0.0000000  0.0000000  2
   1456   1454   1460   1462     1  180.0000771  0.3347200  3
   1456   1454   1460   2964     1  180.0000771  0.0000000  2
   1457   1461   2989   2990     1  180.0000771  10.4600000  2
   1458   1457   1461   1463     1  0.0000000  3.3472000  1
   1458   1457   1461   1463     1  0.0000000  0.0000000  2
   1458   1457   1461   1463     1  180.0000771  0.3347200  3
   1458   1457   1461   2989     1  180.0000771  0.0000000  2
   1459   1457   1461   1463     1  0.0000000  3.3472000  1
   1459   1457   1461   1463     1  0.0000000  0.0000000  2
   1459   1457   1461   1463     1  180.0000771  0.3347200  3
   1459   1457   1461   2989     1  180.0000771  0.0000000  2
   1460   2964   2944   2945     1  0.0000000  0.0000000  2
   1460   2964   2944   2946     1  0.0000000  0.0000000  2
   1461   2989   2969   2970     1  0.0000000  0.0000000  2
   1461   2989   2969   2971     1  0.0000000  0.0000000  2
   1462   1460   2964   2965     1  0.0000000  8.3680000  1
   1462   1460   2964   2965     1  180.0000771  10.4600000  2
   1463   1461   2989   2990     1  0.0000000  8.3680000  1
   1463   1461   2989   2990     1  180.0000771  10.4600000  2
   1466   1469   1489   1490     1  0.0000000  0.0000000  2
   1466   1472   1473   1474     1  0.0000000  1.2552000  3
   1466   1472   1473   1475     1  0.0000000  1.2552000  3
   1466   1472   1476   1477     1  0.0000000  1.2552000  3
   1466   1472   1476   1478     1  0.0000000  1.2552000  3
   1467   1466   1469   1489     1  0.0000000  0.6508444  3
   1467   1466   1469   1470     1  0.0000000  0.6508444  3
   1467   1466   1469   1471     1  0.0000000  0.6508444  3
   1467   1466   1472   1473     1  0.0000000  1.2552000  3
   1467   1466   1472   1476     1  0.0000000  1.2552000  3
   1468   1466   1469   1489     1  0.0000000  0.6508444  3
   1468   1466   1469   1470     1  0.0000000  0.6508444  3
   1468   1466   1469   1471     1  0.0000000  0.6508444  3
   1468   1466   1472   1473     1  0.0000000  1.2552000  3
   1468   1466   1472   1476     1  0.0000000  1.2552000  3
   1470   1469   1466   1472     1  0.0000000  0.6508444  3
   1470   1469   1489   1490     1  0.0000000  0.0000000  2
   1471   1469   1466   1472     1  0.0000000  0.6508444  3
   1471   1469   1489   1490     1  0.0000000  0.0000000  2
   1472   1473   1482   1483     1  0.0000000  0.6508444  3
   1472   1473   1482   1484     1  0.0000000  0.6508444  3
   1472   1476   1479   1480     1  0.0000000  0.6508444  3
   1472   1476   1479   1481     1  0.0000000  0.6508444  3
   1473   1472   1476   1477     1  0.0000000  1.2552000  3
   1473   1472   1476   1478     1  0.0000000  1.2552000  3
   1474   1473   1472   1476     1  0.0000000  1.2552000  3
   1474   1473   1482   1486     1  0.0000000  0.6508444  3
   1474   1473   1482   1483     1  0.0000000  0.6508444  3
   1474   1473   1482   1484     1  0.0000000  0.6508444  3
   1475   1473   1472   1476     1  0.0000000  1.2552000  3
   1475   1473   1482   1486     1  0.0000000  0.6508444  3
   1475   1473   1482   1483     1  0.0000000  0.6508444  3
   1475   1473   1482   1484     1  0.0000000  0.6508444  3
   1477   1476   1479   1485     1  0.0000000  0.6508444  3
   1477   1476   1479   1480     1  0.0000000  0.6508444  3
   1477   1476   1479   1481     1  0.0000000  0.6508444  3
   1478   1476   1479   1485     1  0.0000000  0.6508444  3
   1478   1476   1479   1480     1  0.0000000  0.6508444  3
   1478   1476   1479   1481     1  0.0000000  0.6508444  3
   1479   1485   3014   3015     1  180.0000771  10.4600000  2
   1480   1479   1485   1487     1  0.0000000  3.3472000  1
   1480   1479   1485   1487     1  0.0000000  0.0000000  2
   1480   1479   1485   1487     1  180.0000771  0.3347200  3
   1480   1479   1485   3014     1  180.0000771  0.0000000  2
   1481   1479   1485   1487     1  0.0000000  3.3472000  1
   1481   1479   1485   1487     1  0.0000000  0.0000000  2
   1481   1479   1485   1487     1  180.0000771  0.3347200  3
   1481   1479   1485   3014     1  180.0000771  0.0000000  2
   1482   1486   3039   3040     1  180.0000771  10.4600000  2
   1483   1482   1486   1488     1  0.0000000  3.3472000  1
   1483   1482   1486   1488     1  0.0000000  0.0000000  2
   1483   1482   1486   1488     1  180.0000771  0.3347200  3
   1483   1482   1486   3039     1  180.0000771  0.0000000  2
   1484   1482   1486   1488     1  0.0000000  3.3472000  1
   1484   1482   1486   1488     1  0.0000000  0.0000000  2
   1484   1482   1486   1488     1  180.0000771  0.3347200  3
   1484   1482   1486   3039     1  180.0000771  0.0000000  2
   1485   3014   2994   2995     1  0.0000000  0.0000000  2
   1485   3014   2994   2996     1  0.0000000  0.0000000  2
   1486   3039   3019   3020     1  0.0000000  0.0000000  2
   1486   3039   3019   3021     1  0.0000000  0.0000000  2
   1487   1485   3014   3015     1  0.0000000  8.3680000  1
   1487   1485   3014   3015     1  180.0000771  10.4600000  2
   1488   1486   3039   3040     1  0.0000000  8.3680000  1
   1488   1486   3039   3040     1  180.0000771  10.4600000  2
   1491   1494   1514   1515     1  0.0000000  0.0000000  2
   1491   1497   1498   1499     1  0.0000000  1.2552000  3
   1491   1497   1498   1500     1  0.0000000  1.2552000  3
   1491   1497   1501   1502     1  0.0000000  1.2552000  3
   1491   1497   1501   1503     1  0.0000000  1.2552000  3
   1492   1491   1494   1514     1  0.0000000  0.6508444  3
   1492   1491   1494   1495     1  0.0000000  0.6508444  3
   1492   1491   1494   1496     1  0.0000000  0.6508444  3
   1492   1491   1497   1498     1  0.0000000  1.2552000  3
   1492   1491   1497   1501     1  0.0000000  1.2552000  3
   1493   1491   1494   1514     1  0.0000000  0.6508444  3
   1493   1491   1494   1495     1  0.0000000  0.6508444  3
   1493   1491   1494   1496     1  0.0000000  0.6508444  3
   1493   1491   1497   1498     1  0.0000000  1.2552000  3
   1493   1491   1497   1501     1  0.0000000  1.2552000  3
   1495   1494   1491   1497     1  0.0000000  0.6508444  3
   1495   1494   1514   1515     1  0.0000000  0.0000000  2
   1496   1494   1491   1497     1  0.0000000  0.6508444  3
   1496   1494   1514   1515     1  0.0000000  0.0000000  2
   1497   1498   1507   1508     1  0.0000000  0.6508444  3
   1497   1498   1507   1509     1  0.0000000  0.6508444  3
   1497   1501   1504   1505     1  0.0000000  0.6508444  3
   1497   1501   1504   1506     1  0.0000000  0.6508444  3
   1498   1497   1501   1502     1  0.0000000  1.2552000  3
   1498   1497   1501   1503     1  0.0000000  1.2552000  3
   1499   1498   1497   1501     1  0.0000000  1.2552000  3
   1499   1498   1507   1511     1  0.0000000  0.6508444  3
   1499   1498   1507   1508     1  0.0000000  0.6508444  3
   1499   1498   1507   1509     1  0.0000000  0.6508444  3
   1500   1498   1497   1501     1  0.0000000  1.2552000  3
   1500   1498   1507   1511     1  0.0000000  0.6508444  3
   1500   1498   1507   1508     1  0.0000000  0.6508444  3
   1500   1498   1507   1509     1  0.0000000  0.6508444  3
   1502   1501   1504   1510     1  0.0000000  0.6508444  3
   1502   1501   1504   1505     1  0.0000000  0.6508444  3
   1502   1501   1504   1506     1  0.0000000  0.6508444  3
   1503   1501   1504   1510     1  0.0000000  0.6508444  3
   1503   1501   1504   1505     1  0.0000000  0.6508444  3
   1503   1501   1504   1506     1  0.0000000  0.6508444  3
   1504   1510   3064   3065     1  180.0000771  10.4600000  2
   1505   1504   1510   1512     1  0.0000000  3.3472000  1
   1505   1504   1510   1512     1  0.0000000  0.0000000  2
   1505   1504   1510   1512     1  180.0000771  0.3347200  3
   1505   1504   1510   3064     1  180.0000771  0.0000000  2
   1506   1504   1510   1512     1  0.0000000  3.3472000  1
   1506   1504   1510   1512     1  0.0000000  0.0000000  2
   1506   1504   1510   1512     1  180.0000771  0.3347200  3
   1506   1504   1510   3064     1  180.0000771  0.0000000  2
   1507   1511   3089   3090     1  180.0000771  10.4600000  2
   1508   1507   1511   1513     1  0.0000000  3.3472000  1
   1508   1507   1511   1513     1  0.0000000  0.0000000  2
   1508   1507   1511   1513     1  180.0000771  0.3347200  3
   1508   1507   1511   3089     1  180.0000771  0.0000000  2
   1509   1507   1511   1513     1  0.0000000  3.3472000  1
   1509   1507   1511   1513     1  0.0000000  0.0000000  2
   1509   1507   1511   1513     1  180.0000771  0.3347200  3
   1509   1507   1511   3089     1  180.0000771  0.0000000  2
   1510   3064   3044   3045     1  0.0000000  0.0000000  2
   1510   3064   3044   3046     1  0.0000000  0.0000000  2
   1511   3089   3069   3070     1  0.0000000  0.0000000  2
   1511   3089   3069   3071     1  0.0000000  0.0000000  2
   1512   1510   3064   3065     1  0.0000000  8.3680000  1
   1512   1510   3064   3065     1  180.0000771  10.4600000  2
   1513   1511   3089   3090     1  0.0000000  8.3680000  1
   1513   1511   3089   3090     1  180.0000771  10.4600000  2
   1516   1519   1539   1540     1  0.0000000  0.0000000  2
   1516   1522   1523   1524     1  0.0000000  1.2552000  3
   1516   1522   1523   1525     1  0.0000000  1.2552000  3
   1516   1522   1526   1527     1  0.0000000  1.2552000  3
   1516   1522   1526   1528     1  0.0000000  1.2552000  3
   1517   1516   1519   1539     1  0.0000000  0.6508444  3
   1517   1516   1519   1520     1  0.0000000  0.6508444  3
   1517   1516   1519   1521     1  0.0000000  0.6508444  3
   1517   1516   1522   1523     1  0.0000000  1.2552000  3
   1517   1516   1522   1526     1  0.0000000  1.2552000  3
   1518   1516   1519   1539     1  0.0000000  0.6508444  3
   1518   1516   1519   1520     1  0.0000000  0.6508444  3
   1518   1516   1519   1521     1  0.0000000  0.6508444  3
   1518   1516   1522   1523     1  0.0000000  1.2552000  3
   1518   1516   1522   1526     1  0.0000000  1.2552000  3
   1520   1519   1516   1522     1  0.0000000  0.6508444  3
   1520   1519   1539   1540     1  0.0000000  0.0000000  2
   1521   1519   1516   1522     1  0.0000000  0.6508444  3
   1521   1519   1539   1540     1  0.0000000  0.0000000  2
   1522   1523   1532   1533     1  0.0000000  0.6508444  3
   1522   1523   1532   1534     1  0.0000000  0.6508444  3
   1522   1526   1529   1530     1  0.0000000  0.6508444  3
   1522   1526   1529   1531     1  0.0000000  0.6508444  3
   1523   1522   1526   1527     1  0.0000000  1.2552000  3
   1523   1522   1526   1528     1  0.0000000  1.2552000  3
   1524   1523   1522   1526     1  0.0000000  1.2552000  3
   1524   1523   1532   1536     1  0.0000000  0.6508444  3
   1524   1523   1532   1533     1  0.0000000  0.6508444  3
   1524   1523   1532   1534     1  0.0000000  0.6508444  3
   1525   1523   1522   1526     1  0.0000000  1.2552000  3
   1525   1523   1532   1536     1  0.0000000  0.6508444  3
   1525   1523   1532   1533     1  0.0000000  0.6508444  3
   1525   1523   1532   1534     1  0.0000000  0.6508444  3
   1527   1526   1529   1535     1  0.0000000  0.6508444  3
   1527   1526   1529   1530     1  0.0000000  0.6508444  3
   1527   1526   1529   1531     1  0.0000000  0.6508444  3
   1528   1526   1529   1535     1  0.0000000  0.6508444  3
   1528   1526   1529   1530     1  0.0000000  0.6508444  3
   1528   1526   1529   1531     1  0.0000000  0.6508444  3
   1529   1535   3114   3115     1  180.0000771  10.4600000  2
   1530   1529   1535   1537     1  0.0000000  3.3472000  1
   1530   1529   1535   1537     1  0.0000000  0.0000000  2
   1530   1529   1535   1537     1  180.0000771  0.3347200  3
   1530   1529   1535   3114     1  180.0000771  0.0000000  2
   1531   1529   1535   1537     1  0.0000000  3.3472000  1
   1531   1529   1535   1537     1  0.0000000  0.0000000  2
   1531   1529   1535   1537     1  180.0000771  0.3347200  3
   1531   1529   1535   3114     1  180.0000771  0.0000000  2
   1532   1536   3139   3140     1  180.0000771  10.4600000  2
   1533   1532   1536   1538     1  0.0000000  3.3472000  1
   1533   1532   1536   1538     1  0.0000000  0.0000000  2
   1533   1532   1536   1538     1  180.0000771  0.3347200  3
   1533   1532   1536   3139     1  180.0000771  0.0000000  2
   1534   1532   1536   1538     1  0.0000000  3.3472000  1
   1534   1532   1536   1538     1  0.0000000  0.0000000  2
   1534   1532   1536   1538     1  180.0000771  0.3347200  3
   1534   1532   1536   3139     1  180.0000771  0.0000000  2
   1535   3114   3094   3095     1  0.0000000  0.0000000  2
   1535   3114   3094   3096     1  0.0000000  0.0000000  2
   1536   3139   3119   3120     1  0.0000000  0.0000000  2
   1536   3139   3119   3121     1  0.0000000  0.0000000  2
   1537   1535   3114   3115     1  0.0000000  8.3680000  1
   1537   1535   3114   3115     1  180.0000771  10.4600000  2
   1538   1536   3139   3140     1  0.0000000  8.3680000  1
   1538   1536   3139   3140     1  180.0000771  10.4600000  2
   1541   1544   1564   1565     1  0.0000000  0.0000000  2
   1541   1547   1548   1549     1  0.0000000  1.2552000  3
   1541   1547   1548   1550     1  0.0000000  1.2552000  3
   1541   1547   1551   1552     1  0.0000000  1.2552000  3
   1541   1547   1551   1553     1  0.0000000  1.2552000  3
   1542   1541   1544   1564     1  0.0000000  0.6508444  3
   1542   1541   1544   1545     1  0.0000000  0.6508444  3
   1542   1541   1544   1546     1  0.0000000  0.6508444  3
   1542   1541   1547   1548     1  0.0000000  1.2552000  3
   1542   1541   1547   1551     1  0.0000000  1.2552000  3
   1543   1541   1544   1564     1  0.0000000  0.6508444  3
   1543   1541   1544   1545     1  0.0000000  0.6508444  3
   1543   1541   1544   1546     1  0.0000000  0.6508444  3
   1543   1541   1547   1548     1  0.0000000  1.2552000  3
   1543   1541   1547   1551     1  0.0000000  1.2552000  3
   1545   1544   1541   1547     1  0.0000000  0.6508444  3
   1545   1544   1564   1565     1  0.0000000  0.0000000  2
   1546   1544   1541   1547     1  0.0000000  0.6508444  3
   1546   1544   1564   1565     1  0.0000000  0.0000000  2
   1547   1548   1557   1558     1  0.0000000  0.6508444  3
   1547   1548   1557   1559     1  0.0000000  0.6508444  3
   1547   1551   1554   1555     1  0.0000000  0.6508444  3
   1547   1551   1554   1556     1  0.0000000  0.6508444  3
   1548   1547   1551   1552     1  0.0000000  1.2552000  3
   1548   1547   1551   1553     1  0.0000000  1.2552000  3
   1549   1548   1547   1551     1  0.0000000  1.2552000  3
   1549   1548   1557   1561     1  0.0000000  0.6508444  3
   1549   1548   1557   1558     1  0.0000000  0.6508444  3
   1549   1548   1557   1559     1  0.0000000  0.6508444  3
   1550   1548   1547   1551     1  0.0000000  1.2552000  3
   1550   1548   1557   1561     1  0.0000000  0.6508444  3
   1550   1548   1557   1558     1  0.0000000  0.6508444  3
   1550   1548   1557   1559     1  0.0000000  0.6508444  3
   1552   1551   1554   1560     1  0.0000000  0.6508444  3
   1552   1551   1554   1555     1  0.0000000  0.6508444  3
   1552   1551   1554   1556     1  0.0000000  0.6508444  3
   1553   1551   1554   1560     1  0.0000000  0.6508444  3
   1553   1551   1554   1555     1  0.0000000  0.6508444  3
   1553   1551   1554   1556     1  0.0000000  0.6508444  3
   1554   1560   3141   3142     1  180.0000771  10.4600000  2
   1555   1554   1560   3141     1  180.0000771  0.0000000  2
   1555   1554   1560   1562     1  0.0000000  3.3472000  1
   1555   1554   1560   1562     1  0.0000000  0.0000000  2
   1555   1554   1560   1562     1  180.0000771  0.3347200  3
   1556   1554   1560   3141     1  180.0000771  0.0000000  2
   1556   1554   1560   1562     1  0.0000000  3.3472000  1
   1556   1554   1560   1562     1  0.0000000  0.0000000  2
   1556   1554   1560   1562     1  180.0000771  0.3347200  3
   1557   1561   3214   3215     1  180.0000771  10.4600000  2
   1558   1557   1561   1563     1  0.0000000  3.3472000  1
   1558   1557   1561   1563     1  0.0000000  0.0000000  2
   1558   1557   1561   1563     1  180.0000771  0.3347200  3
   1558   1557   1561   3214     1  180.0000771  0.0000000  2
   1559   1557   1561   1563     1  0.0000000  3.3472000  1
   1559   1557   1561   1563     1  0.0000000  0.0000000  2
   1559   1557   1561   1563     1  180.0000771  0.3347200  3
   1559   1557   1561   3214     1  180.0000771  0.0000000  2
   1560   3141   3143   3144     1  0.0000000  0.0000000  2
   1560   3141   3143   3146     1  0.0000000  0.0000000  2
   1561   3214   3216   3217     1  0.0000000  0.0000000  2
   1561   3214   3216   3219     1  0.0000000  0.0000000  2
   1562   1560   3141   3142     1  0.0000000  8.3680000  1
   1562   1560   3141   3142     1  180.0000771  10.4600000  2
   1563   1561   3214   3215     1  0.0000000  8.3680000  1
   1563   1561   3214   3215     1  180.0000771  10.4600000  2
   1566   1569   1589   1590     1  0.0000000  0.0000000  2
   1566   1572   1573   1574     1  0.0000000  1.2552000  3
   1566   1572   1573   1575     1  0.0000000  1.2552000  3
   1566   1572   1576   1577     1  0.0000000  1.2552000  3
   1566   1572   1576   1578     1  0.0000000  1.2552000  3
   1567   1566   1569   1589     1  0.0000000  0.6508444  3
   1567   1566   1569   1570     1  0.0000000  0.6508444  3
   1567   1566   1569   1571     1  0.0000000  0.6508444  3
   1567   1566   1572   1573     1  0.0000000  1.2552000  3
   1567   1566   1572   1576     1  0.0000000  1.2552000  3
   1568   1566   1569   1589     1  0.0000000  0.6508444  3
   1568   1566   1569   1570     1  0.0000000  0.6508444  3
   1568   1566   1569   1571     1  0.0000000  0.6508444  3
   1568   1566   1572   1573     1  0.0000000  1.2552000  3
   1568   1566   1572   1576     1  0.0000000  1.2552000  3
   1570   1569   1566   1572     1  0.0000000  0.6508444  3
   1570   1569   1589   1590     1  0.0000000  0.0000000  2
   1571   1569   1566   1572     1  0.0000000  0.6508444  3
   1571   1569   1589   1590     1  0.0000000  0.0000000  2
   1572   1573   1582   1583     1  0.0000000  0.6508444  3
   1572   1573   1582   1584     1  0.0000000  0.6508444  3
   1572   1576   1579   1580     1  0.0000000  0.6508444  3
   1572   1576   1579   1581     1  0.0000000  0.6508444  3
   1573   1572   1576   1577     1  0.0000000  1.2552000  3
   1573   1572   1576   1578     1  0.0000000  1.2552000  3
   1574   1573   1572   1576     1  0.0000000  1.2552000  3
   1574   1573   1582   1586     1  0.0000000  0.6508444  3
   1574   1573   1582   1583     1  0.0000000  0.6508444  3
   1574   1573   1582   1584     1  0.0000000  0.6508444  3
   1575   1573   1572   1576     1  0.0000000  1.2552000  3
   1575   1573   1582   1586     1  0.0000000  0.6508444  3
   1575   1573   1582   1583     1  0.0000000  0.6508444  3
   1575   1573   1582   1584     1  0.0000000  0.6508444  3
   1577   1576   1579   1585     1  0.0000000  0.6508444  3
   1577   1576   1579   1580     1  0.0000000  0.6508444  3
   1577   1576   1579   1581     1  0.0000000  0.6508444  3
   1578   1576   1579   1585     1  0.0000000  0.6508444  3
   1578   1576   1579   1580     1  0.0000000  0.6508444  3
   1578   1576   1579   1581     1  0.0000000  0.6508444  3
   1579   1585   3287   3288     1  180.0000771  10.4600000  2
   1580   1579   1585   3287     1  180.0000771  0.0000000  2
   1580   1579   1585   1587     1  0.0000000  3.3472000  1
   1580   1579   1585   1587     1  0.0000000  0.0000000  2
   1580   1579   1585   1587     1  180.0000771  0.3347200  3
   1581   1579   1585   3287     1  180.0000771  0.0000000  2
   1581   1579   1585   1587     1  0.0000000  3.3472000  1
   1581   1579   1585   1587     1  0.0000000  0.0000000  2
   1581   1579   1585   1587     1  180.0000771  0.3347200  3
   1582   1586   3360   3361     1  180.0000771  10.4600000  2
   1583   1582   1586   1588     1  0.0000000  3.3472000  1
   1583   1582   1586   1588     1  0.0000000  0.0000000  2
   1583   1582   1586   1588     1  180.0000771  0.3347200  3
   1583   1582   1586   3360     1  180.0000771  0.0000000  2
   1584   1582   1586   1588     1  0.0000000  3.3472000  1
   1584   1582   1586   1588     1  0.0000000  0.0000000  2
   1584   1582   1586   1588     1  180.0000771  0.3347200  3
   1584   1582   1586   3360     1  180.0000771  0.0000000  2
   1585   3287   3289   3290     1  0.0000000  0.0000000  2
   1585   3287   3289   3292     1  0.0000000  0.0000000  2
   1586   3360   3362   3363     1  0.0000000  0.0000000  2
   1586   3360   3362   3365     1  0.0000000  0.0000000  2
   1587   1585   3287   3288     1  0.0000000  8.3680000  1
   1587   1585   3287   3288     1  180.0000771  10.4600000  2
   1588   1586   3360   3361     1  0.0000000  8.3680000  1
   1588   1586   3360   3361     1  180.0000771  10.4600000  2
   1591   1594   1614   1615     1  0.0000000  0.0000000  2
   1591   1597   1598   1599     1  0.0000000  1.2552000  3
   1591   1597   1598   1600     1  0.0000000  1.2552000  3
   1591   1597   1601   1602     1  0.0000000  1.2552000  3
   1591   1597   1601   1603     1  0.0000000  1.2552000  3
   1592   1591   1594   1614     1  0.0000000  0.6508444  3
   1592   1591   1594   1595     1  0.0000000  0.6508444  3
   1592   1591   1594   1596     1  0.0000000  0.6508444  3
   1592   1591   1597   1598     1  0.0000000  1.2552000  3
   1592   1591   1597   1601     1  0.0000000  1.2552000  3
   1593   1591   1594   1614     1  0.0000000  0.6508444  3
   1593   1591   1594   1595     1  0.0000000  0.6508444  3
   1593   1591   1594   1596     1  0.0000000  0.6508444  3
   1593   1591   1597   1598     1  0.0000000  1.2552000  3
   1593   1591   1597   1601     1  0.0000000  1.2552000  3
   1595   1594   1591   1597     1  0.0000000  0.6508444  3
   1595   1594   1614   1615     1  0.0000000  0.0000000  2
   1596   1594   1591   1597     1  0.0000000  0.6508444  3
   1596   1594   1614   1615     1  0.0000000  0.0000000  2
   1597   1598   1607   1608     1  0.0000000  0.6508444  3
   1597   1598   1607   1609     1  0.0000000  0.6508444  3
   1597   1601   1604   1605     1  0.0000000  0.6508444  3
   1597   1601   1604   1606     1  0.0000000  0.6508444  3
   1598   1597   1601   1602     1  0.0000000  1.2552000  3
   1598   1597   1601   1603     1  0.0000000  1.2552000  3
   1599   1598   1597   1601     1  0.0000000  1.2552000  3
   1599   1598   1607   1611     1  0.0000000  0.6508444  3
   1599   1598   1607   1608     1  0.0000000  0.6508444  3
   1599   1598   1607   1609     1  0.0000000  0.6508444  3
   1600   1598   1597   1601     1  0.0000000  1.2552000  3
   1600   1598   1607   1611     1  0.0000000  0.6508444  3
   1600   1598   1607   1608     1  0.0000000  0.6508444  3
   1600   1598   1607   1609     1  0.0000000  0.6508444  3
   1602   1601   1604   1610     1  0.0000000  0.6508444  3
   1602   1601   1604   1605     1  0.0000000  0.6508444  3
   1602   1601   1604   1606     1  0.0000000  0.6508444  3
   1603   1601   1604   1610     1  0.0000000  0.6508444  3
   1603   1601   1604   1605     1  0.0000000  0.6508444  3
   1603   1601   1604   1606     1  0.0000000  0.6508444  3
   1604   1610   3433   3434     1  180.0000771  10.4600000  2
   1605   1604   1610   3433     1  180.0000771  0.0000000  2
   1605   1604   1610   1612     1  0.0000000  3.3472000  1
   1605   1604   1610   1612     1  0.0000000  0.0000000  2
   1605   1604   1610   1612     1  180.0000771  0.3347200  3
   1606   1604   1610   3433     1  180.0000771  0.0000000  2
   1606   1604   1610   1612     1  0.0000000  3.3472000  1
   1606   1604   1610   1612     1  0.0000000  0.0000000  2
   1606   1604   1610   1612     1  180.0000771  0.3347200  3
   1607   1611   3506   3507     1  180.0000771  10.4600000  2
   1608   1607   1611   1613     1  0.0000000  3.3472000  1
   1608   1607   1611   1613     1  0.0000000  0.0000000  2
   1608   1607   1611   1613     1  180.0000771  0.3347200  3
   1608   1607   1611   3506     1  180.0000771  0.0000000  2
   1609   1607   1611   1613     1  0.0000000  3.3472000  1
   1609   1607   1611   1613     1  0.0000000  0.0000000  2
   1609   1607   1611   1613     1  180.0000771  0.3347200  3
   1609   1607   1611   3506     1  180.0000771  0.0000000  2
   1610   3433   3435   3436     1  0.0000000  0.0000000  2
   1610   3433   3435   3438     1  0.0000000  0.0000000  2
   1611   3506   3508   3509     1  0.0000000  0.0000000  2
   1611   3506   3508   3511     1  0.0000000  0.0000000  2
   1612   1610   3433   3434     1  0.0000000  8.3680000  1
   1612   1610   3433   3434     1  180.0000771  10.4600000  2
   1613   1611   3506   3507     1  0.0000000  8.3680000  1
   1613   1611   3506   3507     1  180.0000771  10.4600000  2
   1616   1619   1639   1640     1  0.0000000  0.0000000  2
   1616   1622   1623   1624     1  0.0000000  1.2552000  3
   1616   1622   1623   1625     1  0.0000000  1.2552000  3
   1616   1622   1626   1627     1  0.0000000  1.2552000  3
   1616   1622   1626   1628     1  0.0000000  1.2552000  3
   1617   1616   1619   1639     1  0.0000000  0.6508444  3
   1617   1616   1619   1620     1  0.0000000  0.6508444  3
   1617   1616   1619   1621     1  0.0000000  0.6508444  3
   1617   1616   1622   1623     1  0.0000000  1.2552000  3
   1617   1616   1622   1626     1  0.0000000  1.2552000  3
   1618   1616   1619   1639     1  0.0000000  0.6508444  3
   1618   1616   1619   1620     1  0.0000000  0.6508444  3
   1618   1616   1619   1621     1  0.0000000  0.6508444  3
   1618   1616   1622   1623     1  0.0000000  1.2552000  3
   1618   1616   1622   1626     1  0.0000000  1.2552000  3
   1620   1619   1616   1622     1  0.0000000  0.6508444  3
   1620   1619   1639   1640     1  0.0000000  0.0000000  2
   1621   1619   1616   1622     1  0.0000000  0.6508444  3
   1621   1619   1639   1640     1  0.0000000  0.0000000  2
   1622   1623   1632   1633     1  0.0000000  0.6508444  3
   1622   1623   1632   1634     1  0.0000000  0.6508444  3
   1622   1626   1629   1630     1  0.0000000  0.6508444  3
   1622   1626   1629   1631     1  0.0000000  0.6508444  3
   1623   1622   1626   1627     1  0.0000000  1.2552000  3
   1623   1622   1626   1628     1  0.0000000  1.2552000  3
   1624   1623   1622   1626     1  0.0000000  1.2552000  3
   1624   1623   1632   1636     1  0.0000000  0.6508444  3
   1624   1623   1632   1633     1  0.0000000  0.6508444  3
   1624   1623   1632   1634     1  0.0000000  0.6508444  3
   1625   1623   1622   1626     1  0.0000000  1.2552000  3
   1625   1623   1632   1636     1  0.0000000  0.6508444  3
   1625   1623   1632   1633     1  0.0000000  0.6508444  3
   1625   1623   1632   1634     1  0.0000000  0.6508444  3
   1627   1626   1629   1635     1  0.0000000  0.6508444  3
   1627   1626   1629   1630     1  0.0000000  0.6508444  3
   1627   1626   1629   1631     1  0.0000000  0.6508444  3
   1628   1626   1629   1635     1  0.0000000  0.6508444  3
   1628   1626   1629   1630     1  0.0000000  0.6508444  3
   1628   1626   1629   1631     1  0.0000000  0.6508444  3
   1629   1635   3579   3580     1  180.0000771  10.4600000  2
   1630   1629   1635   3579     1  180.0000771  0.0000000  2
   1630   1629   1635   1637     1  0.0000000  3.3472000  1
   1630   1629   1635   1637     1  0.0000000  0.0000000  2
   1630   1629   1635   1637     1  180.0000771  0.3347200  3
   1631   1629   1635   3579     1  180.0000771  0.0000000  2
   1631   1629   1635   1637     1  0.0000000  3.3472000  1
   1631   1629   1635   1637     1  0.0000000  0.0000000  2
   1631   1629   1635   1637     1  180.0000771  0.3347200  3
   1632   1636   3652   3653     1  180.0000771  10.4600000  2
   1633   1632   1636   1638     1  0.0000000  3.3472000  1
   1633   1632   1636   1638     1  0.0000000  0.0000000  2
   1633   1632   1636   1638     1  180.0000771  0.3347200  3
   1633   1632   1636   3652     1  180.0000771  0.0000000  2
   1634   1632   1636   1638     1  0.0000000  3.3472000  1
   1634   1632   1636   1638     1  0.0000000  0.0000000  2
   1634   1632   1636   1638     1  180.0000771  0.3347200  3
   1634   1632   1636   3652     1  180.0000771  0.0000000  2
   1635   3579   3581   3582     1  0.0000000  0.0000000  2
   1635   3579   3581   3584     1  0.0000000  0.0000000  2
   1636   3652   3654   3655     1  0.0000000  0.0000000  2
   1636   3652   3654   3657     1  0.0000000  0.0000000  2
   1637   1635   3579   3580     1  0.0000000  8.3680000  1
   1637   1635   3579   3580     1  180.0000771  10.4600000  2
   1638   1636   3652   3653     1  0.0000000  8.3680000  1
   1638   1636   3652   3653     1  180.0000771  10.4600000  2
   1641   1644   1664   1665     1  0.0000000  0.0000000  2
   1641   1647   1648   1649     1  0.0000000  1.2552000  3
   1641   1647   1648   1650     1  0.0000000  1.2552000  3
   1641   1647   1651   1652     1  0.0000000  1.2552000  3
   1641   1647   1651   1653     1  0.0000000  1.2552000  3
   1642   1641   1644   1664     1  0.0000000  0.6508444  3
   1642   1641   1644   1645     1  0.0000000  0.6508444  3
   1642   1641   1644   1646     1  0.0000000  0.6508444  3
   1642   1641   1647   1648     1  0.0000000  1.2552000  3
   1642   1641   1647   1651     1  0.0000000  1.2552000  3
   1643   1641   1644   1664     1  0.0000000  0.6508444  3
   1643   1641   1644   1645     1  0.0000000  0.6508444  3
   1643   1641   1644   1646     1  0.0000000  0.6508444  3
   1643   1641   1647   1648     1  0.0000000  1.2552000  3
   1643   1641   1647   1651     1  0.0000000  1.2552000  3
   1645   1644   1641   1647     1  0.0000000  0.6508444  3
   1645   1644   1664   1665     1  0.0000000  0.0000000  2
   1646   1644   1641   1647     1  0.0000000  0.6508444  3
   1646   1644   1664   1665     1  0.0000000  0.0000000  2
   1647   1648   1657   1658     1  0.0000000  0.6508444  3
   1647   1648   1657   1659     1  0.0000000  0.6508444  3
   1647   1651   1654   1655     1  0.0000000  0.6508444  3
   1647   1651   1654   1656     1  0.0000000  0.6508444  3
   1648   1647   1651   1652     1  0.0000000  1.2552000  3
   1648   1647   1651   1653     1  0.0000000  1.2552000  3
   1649   1648   1647   1651     1  0.0000000  1.2552000  3
   1649   1648   1657   1661     1  0.0000000  0.6508444  3
   1649   1648   1657   1658     1  0.0000000  0.6508444  3
   1649   1648   1657   1659     1  0.0000000  0.6508444  3
   1650   1648   1647   1651     1  0.0000000  1.2552000  3
   1650   1648   1657   1661     1  0.0000000  0.6508444  3
   1650   1648   1657   1658     1  0.0000000  0.6508444  3
   1650   1648   1657   1659     1  0.0000000  0.6508444  3
   1652   1651   1654   1660     1  0.0000000  0.6508444  3
   1652   1651   1654   1655     1  0.0000000  0.6508444  3
   1652   1651   1654   1656     1  0.0000000  0.6508444  3
   1653   1651   1654   1660     1  0.0000000  0.6508444  3
   1653   1651   1654   1655     1  0.0000000  0.6508444  3
   1653   1651   1654   1656     1  0.0000000  0.6508444  3
   1654   1660   3725   3726     1  180.0000771  10.4600000  2
   1655   1654   1660   3725     1  180.0000771  0.0000000  2
   1655   1654   1660   1662     1  0.0000000  3.3472000  1
   1655   1654   1660   1662     1  0.0000000  0.0000000  2
   1655   1654   1660   1662     1  180.0000771  0.3347200  3
   1656   1654   1660   3725     1  180.0000771  0.0000000  2
   1656   1654   1660   1662     1  0.0000000  3.3472000  1
   1656   1654   1660   1662     1  0.0000000  0.0000000  2
   1656   1654   1660   1662     1  180.0000771  0.3347200  3
   1657   1661   3798   3799     1  180.0000771  10.4600000  2
   1658   1657   1661   1663     1  0.0000000  3.3472000  1
   1658   1657   1661   1663     1  0.0000000  0.0000000  2
   1658   1657   1661   1663     1  180.0000771  0.3347200  3
   1658   1657   1661   3798     1  180.0000771  0.0000000  2
   1659   1657   1661   1663     1  0.0000000  3.3472000  1
   1659   1657   1661   1663     1  0.0000000  0.0000000  2
   1659   1657   1661   1663     1  180.0000771  0.3347200  3
   1659   1657   1661   3798     1  180.0000771  0.0000000  2
   1660   3725   3727   3728     1  0.0000000  0.0000000  2
   1660   3725   3727   3730     1  0.0000000  0.0000000  2
   1661   3798   3800   3801     1  0.0000000  0.0000000  2
   1661   3798   3800   3803     1  0.0000000  0.0000000  2
   1662   1660   3725   3726     1  0.0000000  8.3680000  1
   1662   1660   3725   3726     1  180.0000771  10.4600000  2
   1663   1661   3798   3799     1  0.0000000  8.3680000  1
   1663   1661   3798   3799     1  180.0000771  10.4600000  2
   1666   1669   1689   1690     1  0.0000000  0.0000000  2
   1666   1672   1673   1674     1  0.0000000  1.2552000  3
   1666   1672   1673   1675     1  0.0000000  1.2552000  3
   1666   1672   1676   1677     1  0.0000000  1.2552000  3
   1666   1672   1676   1678     1  0.0000000  1.2552000  3
   1667   1666   1669   1689     1  0.0000000  0.6508444  3
   1667   1666   1669   1670     1  0.0000000  0.6508444  3
   1667   1666   1669   1671     1  0.0000000  0.6508444  3
   1667   1666   1672   1673     1  0.0000000  1.2552000  3
   1667   1666   1672   1676     1  0.0000000  1.2552000  3
   1668   1666   1669   1689     1  0.0000000  0.6508444  3
   1668   1666   1669   1670     1  0.0000000  0.6508444  3
   1668   1666   1669   1671     1  0.0000000  0.6508444  3
   1668   1666   1672   1673     1  0.0000000  1.2552000  3
   1668   1666   1672   1676     1  0.0000000  1.2552000  3
   1670   1669   1666   1672     1  0.0000000  0.6508444  3
   1670   1669   1689   1690     1  0.0000000  0.0000000  2
   1671   1669   1666   1672     1  0.0000000  0.6508444  3
   1671   1669   1689   1690     1  0.0000000  0.0000000  2
   1672   1673   1682   1683     1  0.0000000  0.6508444  3
   1672   1673   1682   1684     1  0.0000000  0.6508444  3
   1672   1676   1679   1680     1  0.0000000  0.6508444  3
   1672   1676   1679   1681     1  0.0000000  0.6508444  3
   1673   1672   1676   1677     1  0.0000000  1.2552000  3
   1673   1672   1676   1678     1  0.0000000  1.2552000  3
   1674   1673   1672   1676     1  0.0000000  1.2552000  3
   1674   1673   1682   1686     1  0.0000000  0.6508444  3
   1674   1673   1682   1683     1  0.0000000  0.6508444  3
   1674   1673   1682   1684     1  0.0000000  0.6508444  3
   1675   1673   1672   1676     1  0.0000000  1.2552000  3
   1675   1673   1682   1686     1  0.0000000  0.6508444  3
   1675   1673   1682   1683     1  0.0000000  0.6508444  3
   1675   1673   1682   1684     1  0.0000000  0.6508444  3
   1677   1676   1679   1685     1  0.0000000  0.6508444  3
   1677   1676   1679   1680     1  0.0000000  0.6508444  3
   1677   1676   1679   1681     1  0.0000000  0.6508444  3
   1678   1676   1679   1685     1  0.0000000  0.6508444  3
   1678   1676   1679   1680     1  0.0000000  0.6508444  3
   1678   1676   1679   1681     1  0.0000000  0.6508444  3
   1679   1685   3871   3872     1  180.0000771  10.4600000  2
   1680   1679   1685   3871     1  180.0000771  0.0000000  2
   1680   1679   1685   1687     1  0.0000000  3.3472000  1
   1680   1679   1685   1687     1  0.0000000  0.0000000  2
   1680   1679   1685   1687     1  180.0000771  0.3347200  3
   1681   1679   1685   3871     1  180.0000771  0.0000000  2
   1681   1679   1685   1687     1  0.0000000  3.3472000  1
   1681   1679   1685   1687     1  0.0000000  0.0000000  2
   1681   1679   1685   1687     1  180.0000771  0.3347200  3
   1682   1686   3944   3945     1  180.0000771  10.4600000  2
   1683   1682   1686   1688     1  0.0000000  3.3472000  1
   1683   1682   1686   1688     1  0.0000000  0.0000000  2
   1683   1682   1686   1688     1  180.0000771  0.3347200  3
   1683   1682   1686   3944     1  180.0000771  0.0000000  2
   1684   1682   1686   1688     1  0.0000000  3.3472000  1
   1684   1682   1686   1688     1  0.0000000  0.0000000  2
   1684   1682   1686   1688     1  180.0000771  0.3347200  3
   1684   1682   1686   3944     1  180.0000771  0.0000000  2
   1685   3871   3873   3874     1  0.0000000  0.0000000  2
   1685   3871   3873   3876     1  0.0000000  0.0000000  2
   1686   3944   3946   3947     1  0.0000000  0.0000000  2
   1686   3944   3946   3949     1  0.0000000  0.0000000  2
   1687   1685   3871   3872     1  0.0000000  8.3680000  1
   1687   1685   3871   3872     1  180.0000771  10.4600000  2
   1688   1686   3944   3945     1  0.0000000  8.3680000  1
   1688   1686   3944   3945     1  180.0000771  10.4600000  2
   1691   1694   1714   1715     1  0.0000000  0.0000000  2
   1691   1697   1698   1699     1  0.0000000  1.2552000  3
   1691   1697   1698   1700     1  0.0000000  1.2552000  3
   1691   1697   1701   1702     1  0.0000000  1.2552000  3
   1691   1697   1701   1703     1  0.0000000  1.2552000  3
   1692   1691   1694   1714     1  0.0000000  0.6508444  3
   1692   1691   1694   1695     1  0.0000000  0.6508444  3
   1692   1691   1694   1696     1  0.0000000  0.6508444  3
   1692   1691   1697   1698     1  0.0000000  1.2552000  3
   1692   1691   1697   1701     1  0.0000000  1.2552000  3
   1693   1691   1694   1714     1  0.0000000  0.6508444  3
   1693   1691   1694   1695     1  0.0000000  0.6508444  3
   1693   1691   1694   1696     1  0.0000000  0.6508444  3
   1693   1691   1697   1698     1  0.0000000  1.2552000  3
   1693   1691   1697   1701     1  0.0000000  1.2552000  3
   1695   1694   1691   1697     1  0.0000000  0.6508444  3
   1695   1694   1714   1715     1  0.0000000  0.0000000  2
   1696   1694   1691   1697     1  0.0000000  0.6508444  3
   1696   1694   1714   1715     1  0.0000000  0.0000000  2
   1697   1698   1707   1708     1  0.0000000  0.6508444  3
   1697   1698   1707   1709     1  0.0000000  0.6508444  3
   1697   1701   1704   1705     1  0.0000000  0.6508444  3
   1697   1701   1704   1706     1  0.0000000  0.6508444  3
   1698   1697   1701   1702     1  0.0000000  1.2552000  3
   1698   1697   1701   1703     1  0.0000000  1.2552000  3
   1699   1698   1697   1701     1  0.0000000  1.2552000  3
   1699   1698   1707   1711     1  0.0000000  0.6508444  3
   1699   1698   1707   1708     1  0.0000000  0.6508444  3
   1699   1698   1707   1709     1  0.0000000  0.6508444  3
   1700   1698   1697   1701     1  0.0000000  1.2552000  3
   1700   1698   1707   1711     1  0.0000000  0.6508444  3
   1700   1698   1707   1708     1  0.0000000  0.6508444  3
   1700   1698   1707   1709     1  0.0000000  0.6508444  3
   1702   1701   1704   1710     1  0.0000000  0.6508444  3
   1702   1701   1704   1705     1  0.0000000  0.6508444  3
   1702   1701   1704   1706     1  0.0000000  0.6508444  3
   1703   1701   1704   1710     1  0.0000000  0.6508444  3
   1703   1701   1704   1705     1  0.0000000  0.6508444  3
   1703   1701   1704   1706     1  0.0000000  0.6508444  3
   1704   1710   4017   4018     1  180.0000771  10.4600000  2
   1705   1704   1710   4017     1  180.0000771  0.0000000  2
   1705   1704   1710   1712     1  0.0000000  3.3472000  1
   1705   1704   1710   1712     1  0.0000000  0.0000000  2
   1705   1704   1710   1712     1  180.0000771  0.3347200  3
   1706   1704   1710   4017     1  180.0000771  0.0000000  2
   1706   1704   1710   1712     1  0.0000000  3.3472000  1
   1706   1704   1710   1712     1  0.0000000  0.0000000  2
   1706   1704   1710   1712     1  180.0000771  0.3347200  3
   1707   1711   4090   4091     1  180.0000771  10.4600000  2
   1708   1707   1711   1713     1  0.0000000  3.3472000  1
   1708   1707   1711   1713     1  0.0000000  0.0000000  2
   1708   1707   1711   1713     1  180.0000771  0.3347200  3
   1708   1707   1711   4090     1  180.0000771  0.0000000  2
   1709   1707   1711   1713     1  0.0000000  3.3472000  1
   1709   1707   1711   1713     1  0.0000000  0.0000000  2
   1709   1707   1711   1713     1  180.0000771  0.3347200  3
   1709   1707   1711   4090     1  180.0000771  0.0000000  2
   1710   4017   4019   4020     1  0.0000000  0.0000000  2
   1710   4017   4019   4022     1  0.0000000  0.0000000  2
   1711   4090   4092   4093     1  0.0000000  0.0000000  2
   1711   4090   4092   4095     1  0.0000000  0.0000000  2
   1712   1710   4017   4018     1  0.0000000  8.3680000  1
   1712   1710   4017   4018     1  180.0000771  10.4600000  2
   1713   1711   4090   4091     1  0.0000000  8.3680000  1
   1713   1711   4090   4091     1  180.0000771  10.4600000  2
   1716   1719   1739   1740     1  0.0000000  0.0000000  2
   1716   1722   1723   1724     1  0.0000000  1.2552000  3
   1716   1722   1723   1725     1  0.0000000  1.2552000  3
   1716   1722   1726   1727     1  0.0000000  1.2552000  3
   1716   1722   1726   1728     1  0.0000000  1.2552000  3
   1717   1716   1719   1739     1  0.0000000  0.6508444  3
   1717   1716   1719   1720     1  0.0000000  0.6508444  3
   1717   1716   1719   1721     1  0.0000000  0.6508444  3
   1717   1716   1722   1723     1  0.0000000  1.2552000  3
   1717   1716   1722   1726     1  0.0000000  1.2552000  3
   1718   1716   1719   1739     1  0.0000000  0.6508444  3
   1718   1716   1719   1720     1  0.0000000  0.6508444  3
   1718   1716   1719   1721     1  0.0000000  0.6508444  3
   1718   1716   1722   1723     1  0.0000000  1.2552000  3
   1718   1716   1722   1726     1  0.0000000  1.2552000  3
   1720   1719   1716   1722     1  0.0000000  0.6508444  3
   1720   1719   1739   1740     1  0.0000000  0.0000000  2
   1721   1719   1716   1722     1  0.0000000  0.6508444  3
   1721   1719   1739   1740     1  0.0000000  0.0000000  2
   1722   1723   1732   1733     1  0.0000000  0.6508444  3
   1722   1723   1732   1734     1  0.0000000  0.6508444  3
   1722   1726   1729   1730     1  0.0000000  0.6508444  3
   1722   1726   1729   1731     1  0.0000000  0.6508444  3
   1723   1722   1726   1727     1  0.0000000  1.2552000  3
   1723   1722   1726   1728     1  0.0000000  1.2552000  3
   1724   1723   1722   1726     1  0.0000000  1.2552000  3
   1724   1723   1732   1736     1  0.0000000  0.6508444  3
   1724   1723   1732   1733     1  0.0000000  0.6508444  3
   1724   1723   1732   1734     1  0.0000000  0.6508444  3
   1725   1723   1722   1726     1  0.0000000  1.2552000  3
   1725   1723   1732   1736     1  0.0000000  0.6508444  3
   1725   1723   1732   1733     1  0.0000000  0.6508444  3
   1725   1723   1732   1734     1  0.0000000  0.6508444  3
   1727   1726   1729   1735     1  0.0000000  0.6508444  3
   1727   1726   1729   1730     1  0.0000000  0.6508444  3
   1727   1726   1729   1731     1  0.0000000  0.6508444  3
   1728   1726   1729   1735     1  0.0000000  0.6508444  3
   1728   1726   1729   1730     1  0.0000000  0.6508444  3
   1728   1726   1729   1731     1  0.0000000  0.6508444  3
   1729   1735   4163   4164     1  180.0000771  10.4600000  2
   1730   1729   1735   4163     1  180.0000771  0.0000000  2
   1730   1729   1735   1737     1  0.0000000  3.3472000  1
   1730   1729   1735   1737     1  0.0000000  0.0000000  2
   1730   1729   1735   1737     1  180.0000771  0.3347200  3
   1731   1729   1735   4163     1  180.0000771  0.0000000  2
   1731   1729   1735   1737     1  0.0000000  3.3472000  1
   1731   1729   1735   1737     1  0.0000000  0.0000000  2
   1731   1729   1735   1737     1  180.0000771  0.3347200  3
   1732   1736   4236   4237     1  180.0000771  10.4600000  2
   1733   1732   1736   1738     1  0.0000000  3.3472000  1
   1733   1732   1736   1738     1  0.0000000  0.0000000  2
   1733   1732   1736   1738     1  180.0000771  0.3347200  3
   1733   1732   1736   4236     1  180.0000771  0.0000000  2
   1734   1732   1736   1738     1  0.0000000  3.3472000  1
   1734   1732   1736   1738     1  0.0000000  0.0000000  2
   1734   1732   1736   1738     1  180.0000771  0.3347200  3
   1734   1732   1736   4236     1  180.0000771  0.0000000  2
   1735   4163   4165   4166     1  0.0000000  0.0000000  2
   1735   4163   4165   4168     1  0.0000000  0.0000000  2
   1736   4236   4238   4239     1  0.0000000  0.0000000  2
   1736   4236   4238   4241     1  0.0000000  0.0000000  2
   1737   1735   4163   4164     1  0.0000000  8.3680000  1
   1737   1735   4163   4164     1  180.0000771  10.4600000  2
   1738   1736   4236   4237     1  0.0000000  8.3680000  1
   1738   1736   4236   4237     1  180.0000771  10.4600000  2
   1741   1744   1764   1765     1  0.0000000  0.0000000  2
   1741   1747   1748   1749     1  0.0000000  1.2552000  3
   1741   1747   1748   1750     1  0.0000000  1.2552000  3
   1741   1747   1751   1752     1  0.0000000  1.2552000  3
   1741   1747   1751   1753     1  0.0000000  1.2552000  3
   1742   1741   1744   1764     1  0.0000000  0.6508444  3
   1742   1741   1744   1745     1  0.0000000  0.6508444  3
   1742   1741   1744   1746     1  0.0000000  0.6508444  3
   1742   1741   1747   1748     1  0.0000000  1.2552000  3
   1742   1741   1747   1751     1  0.0000000  1.2552000  3
   1743   1741   1744   1764     1  0.0000000  0.6508444  3
   1743   1741   1744   1745     1  0.0000000  0.6508444  3
   1743   1741   1744   1746     1  0.0000000  0.6508444  3
   1743   1741   1747   1748     1  0.0000000  1.2552000  3
   1743   1741   1747   1751     1  0.0000000  1.2552000  3
   1745   1744   1741   1747     1  0.0000000  0.6508444  3
   1745   1744   1764   1765     1  0.0000000  0.0000000  2
   1746   1744   1741   1747     1  0.0000000  0.6508444  3
   1746   1744   1764   1765     1  0.0000000  0.0000000  2
   1747   1748   1757   1758     1  0.0000000  0.6508444  3
   1747   1748   1757   1759     1  0.0000000  0.6508444  3
   1747   1751   1754   1755     1  0.0000000  0.6508444  3
   1747   1751   1754   1756     1  0.0000000  0.6508444  3
   1748   1747   1751   1752     1  0.0000000  1.2552000  3
   1748   1747   1751   1753     1  0.0000000  1.2552000  3
   1749   1748   1747   1751     1  0.0000000  1.2552000  3
   1749   1748   1757   1761     1  0.0000000  0.6508444  3
   1749   1748   1757   1758     1  0.0000000  0.6508444  3
   1749   1748   1757   1759     1  0.0000000  0.6508444  3
   1750   1748   1747   1751     1  0.0000000  1.2552000  3
   1750   1748   1757   1761     1  0.0000000  0.6508444  3
   1750   1748   1757   1758     1  0.0000000  0.6508444  3
   1750   1748   1757   1759     1  0.0000000  0.6508444  3
   1752   1751   1754   1760     1  0.0000000  0.6508444  3
   1752   1751   1754   1755     1  0.0000000  0.6508444  3
   1752   1751   1754   1756     1  0.0000000  0.6508444  3
   1753   1751   1754   1760     1  0.0000000  0.6508444  3
   1753   1751   1754   1755     1  0.0000000  0.6508444  3
   1753   1751   1754   1756     1  0.0000000  0.6508444  3
   1754   1760   4309   4310     1  180.0000771  10.4600000  2
   1755   1754   1760   4309     1  180.0000771  0.0000000  2
   1755   1754   1760   1762     1  0.0000000  3.3472000  1
   1755   1754   1760   1762     1  0.0000000  0.0000000  2
   1755   1754   1760   1762     1  180.0000771  0.3347200  3
   1756   1754   1760   4309     1  180.0000771  0.0000000  2
   1756   1754   1760   1762     1  0.0000000  3.3472000  1
   1756   1754   1760   1762     1  0.0000000  0.0000000  2
   1756   1754   1760   1762     1  180.0000771  0.3347200  3
   1757   1761   4382   4383     1  180.0000771  10.4600000  2
   1758   1757   1761   1763     1  0.0000000  3.3472000  1
   1758   1757   1761   1763     1  0.0000000  0.0000000  2
   1758   1757   1761   1763     1  180.0000771  0.3347200  3
   1758   1757   1761   4382     1  180.0000771  0.0000000  2
   1759   1757   1761   1763     1  0.0000000  3.3472000  1
   1759   1757   1761   1763     1  0.0000000  0.0000000  2
   1759   1757   1761   1763     1  180.0000771  0.3347200  3
   1759   1757   1761   4382     1  180.0000771  0.0000000  2
   1760   4309   4311   4312     1  0.0000000  0.0000000  2
   1760   4309   4311   4314     1  0.0000000  0.0000000  2
   1761   4382   4384   4385     1  0.0000000  0.0000000  2
   1761   4382   4384   4387     1  0.0000000  0.0000000  2
   1762   1760   4309   4310     1  0.0000000  8.3680000  1
   1762   1760   4309   4310     1  180.0000771  10.4600000  2
   1763   1761   4382   4383     1  0.0000000  8.3680000  1
   1763   1761   4382   4383     1  180.0000771  10.4600000  2
   1766   1769   1789   1790     1  0.0000000  0.0000000  2
   1766   1772   1773   1774     1  0.0000000  1.2552000  3
   1766   1772   1773   1775     1  0.0000000  1.2552000  3
   1766   1772   1776   1777     1  0.0000000  1.2552000  3
   1766   1772   1776   1778     1  0.0000000  1.2552000  3
   1767   1766   1769   1789     1  0.0000000  0.6508444  3
   1767   1766   1769   1770     1  0.0000000  0.6508444  3
   1767   1766   1769   1771     1  0.0000000  0.6508444  3
   1767   1766   1772   1773     1  0.0000000  1.2552000  3
   1767   1766   1772   1776     1  0.0000000  1.2552000  3
   1768   1766   1769   1789     1  0.0000000  0.6508444  3
   1768   1766   1769   1770     1  0.0000000  0.6508444  3
   1768   1766   1769   1771     1  0.0000000  0.6508444  3
   1768   1766   1772   1773     1  0.0000000  1.2552000  3
   1768   1766   1772   1776     1  0.0000000  1.2552000  3
   1770   1769   1766   1772     1  0.0000000  0.6508444  3
   1770   1769   1789   1790     1  0.0000000  0.0000000  2
   1771   1769   1766   1772     1  0.0000000  0.6508444  3
   1771   1769   1789   1790     1  0.0000000  0.0000000  2
   1772   1773   1782   1783     1  0.0000000  0.6508444  3
   1772   1773   1782   1784     1  0.0000000  0.6508444  3
   1772   1776   1779   1780     1  0.0000000  0.6508444  3
   1772   1776   1779   1781     1  0.0000000  0.6508444  3
   1773   1772   1776   1777     1  0.0000000  1.2552000  3
   1773   1772   1776   1778     1  0.0000000  1.2552000  3
   1774   1773   1772   1776     1  0.0000000  1.2552000  3
   1774   1773   1782   1786     1  0.0000000  0.6508444  3
   1774   1773   1782   1783     1  0.0000000  0.6508444  3
   1774   1773   1782   1784     1  0.0000000  0.6508444  3
   1775   1773   1772   1776     1  0.0000000  1.2552000  3
   1775   1773   1782   1786     1  0.0000000  0.6508444  3
   1775   1773   1782   1783     1  0.0000000  0.6508444  3
   1775   1773   1782   1784     1  0.0000000  0.6508444  3
   1777   1776   1779   1785     1  0.0000000  0.6508444  3
   1777   1776   1779   1780     1  0.0000000  0.6508444  3
   1777   1776   1779   1781     1  0.0000000  0.6508444  3
   1778   1776   1779   1785     1  0.0000000  0.6508444  3
   1778   1776   1779   1780     1  0.0000000  0.6508444  3
   1778   1776   1779   1781     1  0.0000000  0.6508444  3
   1779   1785   4455   4456     1  180.0000771  10.4600000  2
   1780   1779   1785   4455     1  180.0000771  0.0000000  2
   1780   1779   1785   1787     1  0.0000000  3.3472000  1
   1780   1779   1785   1787     1  0.0000000  0.0000000  2
   1780   1779   1785   1787     1  180.0000771  0.3347200  3
   1781   1779   1785   4455     1  180.0000771  0.0000000  2
   1781   1779   1785   1787     1  0.0000000  3.3472000  1
   1781   1779   1785   1787     1  0.0000000  0.0000000  2
   1781   1779   1785   1787     1  180.0000771  0.3347200  3
   1782   1786   4528   4529     1  180.0000771  10.4600000  2
   1783   1782   1786   1788     1  0.0000000  3.3472000  1
   1783   1782   1786   1788     1  0.0000000  0.0000000  2
   1783   1782   1786   1788     1  180.0000771  0.3347200  3
   1783   1782   1786   4528     1  180.0000771  0.0000000  2
   1784   1782   1786   1788     1  0.0000000  3.3472000  1
   1784   1782   1786   1788     1  0.0000000  0.0000000  2
   1784   1782   1786   1788     1  180.0000771  0.3347200  3
   1784   1782   1786   4528     1  180.0000771  0.0000000  2
   1785   4455   4457   4458     1  0.0000000  0.0000000  2
   1785   4455   4457   4460     1  0.0000000  0.0000000  2
   1786   4528   4530   4531     1  0.0000000  0.0000000  2
   1786   4528   4530   4533     1  0.0000000  0.0000000  2
   1787   1785   4455   4456     1  0.0000000  8.3680000  1
   1787   1785   4455   4456     1  180.0000771  10.4600000  2
   1788   1786   4528   4529     1  0.0000000  8.3680000  1
   1788   1786   4528   4529     1  180.0000771  10.4600000  2
   1791   1794   1814   1815     1  0.0000000  0.0000000  2
   1791   1797   1798   1799     1  0.0000000  1.2552000  3
   1791   1797   1798   1800     1  0.0000000  1.2552000  3
   1791   1797   1801   1802     1  0.0000000  1.2552000  3
   1791   1797   1801   1803     1  0.0000000  1.2552000  3
   1792   1791   1794   1814     1  0.0000000  0.6508444  3
   1792   1791   1794   1795     1  0.0000000  0.6508444  3
   1792   1791   1794   1796     1  0.0000000  0.6508444  3
   1792   1791   1797   1798     1  0.0000000  1.2552000  3
   1792   1791   1797   1801     1  0.0000000  1.2552000  3
   1793   1791   1794   1814     1  0.0000000  0.6508444  3
   1793   1791   1794   1795     1  0.0000000  0.6508444  3
   1793   1791   1794   1796     1  0.0000000  0.6508444  3
   1793   1791   1797   1798     1  0.0000000  1.2552000  3
   1793   1791   1797   1801     1  0.0000000  1.2552000  3
   1795   1794   1791   1797     1  0.0000000  0.6508444  3
   1795   1794   1814   1815     1  0.0000000  0.0000000  2
   1796   1794   1791   1797     1  0.0000000  0.6508444  3
   1796   1794   1814   1815     1  0.0000000  0.0000000  2
   1797   1798   1807   1808     1  0.0000000  0.6508444  3
   1797   1798   1807   1809     1  0.0000000  0.6508444  3
   1797   1801   1804   1805     1  0.0000000  0.6508444  3
   1797   1801   1804   1806     1  0.0000000  0.6508444  3
   1798   1797   1801   1802     1  0.0000000  1.2552000  3
   1798   1797   1801   1803     1  0.0000000  1.2552000  3
   1799   1798   1797   1801     1  0.0000000  1.2552000  3
   1799   1798   1807   1811     1  0.0000000  0.6508444  3
   1799   1798   1807   1808     1  0.0000000  0.6508444  3
   1799   1798   1807   1809     1  0.0000000  0.6508444  3
   1800   1798   1797   1801     1  0.0000000  1.2552000  3
   1800   1798   1807   1811     1  0.0000000  0.6508444  3
   1800   1798   1807   1808     1  0.0000000  0.6508444  3
   1800   1798   1807   1809     1  0.0000000  0.6508444  3
   1802   1801   1804   1810     1  0.0000000  0.6508444  3
   1802   1801   1804   1805     1  0.0000000  0.6508444  3
   1802   1801   1804   1806     1  0.0000000  0.6508444  3
   1803   1801   1804   1810     1  0.0000000  0.6508444  3
   1803   1801   1804   1805     1  0.0000000  0.6508444  3
   1803   1801   1804   1806     1  0.0000000  0.6508444  3
   1804   1810   4601   4602     1  180.0000771  10.4600000  2
   1805   1804   1810   4601     1  180.0000771  0.0000000  2
   1805   1804   1810   1812     1  0.0000000  3.3472000  1
   1805   1804   1810   1812     1  0.0000000  0.0000000  2
   1805   1804   1810   1812     1  180.0000771  0.3347200  3
   1806   1804   1810   4601     1  180.0000771  0.0000000  2
   1806   1804   1810   1812     1  0.0000000  3.3472000  1
   1806   1804   1810   1812     1  0.0000000  0.0000000  2
   1806   1804   1810   1812     1  180.0000771  0.3347200  3
   1807   1811   4674   4675     1  180.0000771  10.4600000  2
   1808   1807   1811   1813     1  0.0000000  3.3472000  1
   1808   1807   1811   1813     1  0.0000000  0.0000000  2
   1808   1807   1811   1813     1  180.0000771  0.3347200  3
   1808   1807   1811   4674     1  180.0000771  0.0000000  2
   1809   1807   1811   1813     1  0.0000000  3.3472000  1
   1809   1807   1811   1813     1  0.0000000  0.0000000  2
   1809   1807   1811   1813     1  180.0000771  0.3347200  3
   1809   1807   1811   4674     1  180.0000771  0.0000000  2
   1810   4601   4603   4604     1  0.0000000  0.0000000  2
   1810   4601   4603   4606     1  0.0000000  0.0000000  2
   1811   4674   4676   4677     1  0.0000000  0.0000000  2
   1811   4674   4676   4679     1  0.0000000  0.0000000  2
   1812   1810   4601   4602     1  0.0000000  8.3680000  1
   1812   1810   4601   4602     1  180.0000771  10.4600000  2
   1813   1811   4674   4675     1  0.0000000  8.3680000  1
   1813   1811   4674   4675     1  180.0000771  10.4600000  2
   1816   1819   1839   1840     1  0.0000000  0.0000000  2
   1816   1822   1823   1824     1  0.0000000  1.2552000  3
   1816   1822   1823   1825     1  0.0000000  1.2552000  3
   1816   1822   1826   1827     1  0.0000000  1.2552000  3
   1816   1822   1826   1828     1  0.0000000  1.2552000  3
   1817   1816   1819   1839     1  0.0000000  0.6508444  3
   1817   1816   1819   1820     1  0.0000000  0.6508444  3
   1817   1816   1819   1821     1  0.0000000  0.6508444  3
   1817   1816   1822   1823     1  0.0000000  1.2552000  3
   1817   1816   1822   1826     1  0.0000000  1.2552000  3
   1818   1816   1819   1839     1  0.0000000  0.6508444  3
   1818   1816   1819   1820     1  0.0000000  0.6508444  3
   1818   1816   1819   1821     1  0.0000000  0.6508444  3
   1818   1816   1822   1823     1  0.0000000  1.2552000  3
   1818   1816   1822   1826     1  0.0000000  1.2552000  3
   1820   1819   1816   1822     1  0.0000000  0.6508444  3
   1820   1819   1839   1840     1  0.0000000  0.0000000  2
   1821   1819   1816   1822     1  0.0000000  0.6508444  3
   1821   1819   1839   1840     1  0.0000000  0.0000000  2
   1822   1823   1832   1833     1  0.0000000  0.6508444  3
   1822   1823   1832   1834     1  0.0000000  0.6508444  3
   1822   1826   1829   1830     1  0.0000000  0.6508444  3
   1822   1826   1829   1831     1  0.0000000  0.6508444  3
   1823   1822   1826   1827     1  0.0000000  1.2552000  3
   1823   1822   1826   1828     1  0.0000000  1.2552000  3
   1824   1823   1822   1826     1  0.0000000  1.2552000  3
   1824   1823   1832   1836     1  0.0000000  0.6508444  3
   1824   1823   1832   1833     1  0.0000000  0.6508444  3
   1824   1823   1832   1834     1  0.0000000  0.6508444  3
   1825   1823   1822   1826     1  0.0000000  1.2552000  3
   1825   1823   1832   1836     1  0.0000000  0.6508444  3
   1825   1823   1832   1833     1  0.0000000  0.6508444  3
   1825   1823   1832   1834     1  0.0000000  0.6508444  3
   1827   1826   1829   1835     1  0.0000000  0.6508444  3
   1827   1826   1829   1830     1  0.0000000  0.6508444  3
   1827   1826   1829   1831     1  0.0000000  0.6508444  3
   1828   1826   1829   1835     1  0.0000000  0.6508444  3
   1828   1826   1829   1830     1  0.0000000  0.6508444  3
   1828   1826   1829   1831     1  0.0000000  0.6508444  3
   1829   1835   4747   4748     1  180.0000771  10.4600000  2
   1830   1829   1835   4747     1  180.0000771  0.0000000  2
   1830   1829   1835   1837     1  0.0000000  3.3472000  1
   1830   1829   1835   1837     1  0.0000000  0.0000000  2
   1830   1829   1835   1837     1  180.0000771  0.3347200  3
   1831   1829   1835   4747     1  180.0000771  0.0000000  2
   1831   1829   1835   1837     1  0.0000000  3.3472000  1
   1831   1829   1835   1837     1  0.0000000  0.0000000  2
   1831   1829   1835   1837     1  180.0000771  0.3347200  3
   1832   1836   4820   4821     1  180.0000771  10.4600000  2
   1833   1832   1836   1838     1  0.0000000  3.3472000  1
   1833   1832   1836   1838     1  0.0000000  0.0000000  2
   1833   1832   1836   1838     1  180.0000771  0.3347200  3
   1833   1832   1836   4820     1  180.0000771  0.0000000  2
   1834   1832   1836   1838     1  0.0000000  3.3472000  1
   1834   1832   1836   1838     1  0.0000000  0.0000000  2
   1834   1832   1836   1838     1  180.0000771  0.3347200  3
   1834   1832   1836   4820     1  180.0000771  0.0000000  2
   1835   4747   4749   4750     1  0.0000000  0.0000000  2
   1835   4747   4749   4752     1  0.0000000  0.0000000  2
   1836   4820   4822   4823     1  0.0000000  0.0000000  2
   1836   4820   4822   4825     1  0.0000000  0.0000000  2
   1837   1835   4747   4748     1  0.0000000  8.3680000  1
   1837   1835   4747   4748     1  180.0000771  10.4600000  2
   1838   1836   4820   4821     1  0.0000000  8.3680000  1
   1838   1836   4820   4821     1  180.0000771  10.4600000  2
   1841   1844   1864   1865     1  0.0000000  0.0000000  2
   1841   1847   1848   1849     1  0.0000000  1.2552000  3
   1841   1847   1848   1850     1  0.0000000  1.2552000  3
   1841   1847   1851   1852     1  0.0000000  1.2552000  3
   1841   1847   1851   1853     1  0.0000000  1.2552000  3
   1842   1841   1844   1864     1  0.0000000  0.6508444  3
   1842   1841   1844   1845     1  0.0000000  0.6508444  3
   1842   1841   1844   1846     1  0.0000000  0.6508444  3
   1842   1841   1847   1848     1  0.0000000  1.2552000  3
   1842   1841   1847   1851     1  0.0000000  1.2552000  3
   1843   1841   1844   1864     1  0.0000000  0.6508444  3
   1843   1841   1844   1845     1  0.0000000  0.6508444  3
   1843   1841   1844   1846     1  0.0000000  0.6508444  3
   1843   1841   1847   1848     1  0.0000000  1.2552000  3
   1843   1841   1847   1851     1  0.0000000  1.2552000  3
   1845   1844   1841   1847     1  0.0000000  0.6508444  3
   1845   1844   1864   1865     1  0.0000000  0.0000000  2
   1846   1844   1841   1847     1  0.0000000  0.6508444  3
   1846   1844   1864   1865     1  0.0000000  0.0000000  2
   1847   1848   1857   1858     1  0.0000000  0.6508444  3
   1847   1848   1857   1859     1  0.0000000  0.6508444  3
   1847   1851   1854   1855     1  0.0000000  0.6508444  3
   1847   1851   1854   1856     1  0.0000000  0.6508444  3
   1848   1847   1851   1852     1  0.0000000  1.2552000  3
   1848   1847   1851   1853     1  0.0000000  1.2552000  3
   1849   1848   1847   1851     1  0.0000000  1.2552000  3
   1849   1848   1857   1861     1  0.0000000  0.6508444  3
   1849   1848   1857   1858     1  0.0000000  0.6508444  3
   1849   1848   1857   1859     1  0.0000000  0.6508444  3
   1850   1848   1847   1851     1  0.0000000  1.2552000  3
   1850   1848   1857   1861     1  0.0000000  0.6508444  3
   1850   1848   1857   1858     1  0.0000000  0.6508444  3
   1850   1848   1857   1859     1  0.0000000  0.6508444  3
   1852   1851   1854   1860     1  0.0000000  0.6508444  3
   1852   1851   1854   1855     1  0.0000000  0.6508444  3
   1852   1851   1854   1856     1  0.0000000  0.6508444  3
   1853   1851   1854   1860     1  0.0000000  0.6508444  3
   1853   1851   1854   1855     1  0.0000000  0.6508444  3
   1853   1851   1854   1856     1  0.0000000  0.6508444  3
   1854   1860   4893   4894     1  180.0000771  10.4600000  2
   1855   1854   1860   4893     1  180.0000771  0.0000000  2
   1855   1854   1860   1862     1  0.0000000  3.3472000  1
   1855   1854   1860   1862     1  0.0000000  0.0000000  2
   1855   1854   1860   1862     1  180.0000771  0.3347200  3
   1856   1854   1860   4893     1  180.0000771  0.0000000  2
   1856   1854   1860   1862     1  0.0000000  3.3472000  1
   1856   1854   1860   1862     1  0.0000000  0.0000000  2
   1856   1854   1860   1862     1  180.0000771  0.3347200  3
   1857   1861   4966   4967     1  180.0000771  10.4600000  2
   1858   1857   1861   1863     1  0.0000000  3.3472000  1
   1858   1857   1861   1863     1  0.0000000  0.0000000  2
   1858   1857   1861   1863     1  180.0000771  0.3347200  3
   1858   1857   1861   4966     1  180.0000771  0.0000000  2
   1859   1857   1861   1863     1  0.0000000  3.3472000  1
   1859   1857   1861   1863     1  0.0000000  0.0000000  2
   1859   1857   1861   1863     1  180.0000771  0.3347200  3
   1859   1857   1861   4966     1  180.0000771  0.0000000  2
   1860   4893   4895   4896     1  0.0000000  0.0000000  2
   1860   4893   4895   4898     1  0.0000000  0.0000000  2
   1861   4966   4968   4969     1  0.0000000  0.0000000  2
   1861   4966   4968   4971     1  0.0000000  0.0000000  2
   1862   1860   4893   4894     1  0.0000000  8.3680000  1
   1862   1860   4893   4894     1  180.0000771  10.4600000  2
   1863   1861   4966   4967     1  0.0000000  8.3680000  1
   1863   1861   4966   4967     1  180.0000771  10.4600000  2
   1866   1869   1889   1890     1  0.0000000  0.0000000  2
   1866   1872   1873   1874     1  0.0000000  1.2552000  3
   1866   1872   1873   1875     1  0.0000000  1.2552000  3
   1866   1872   1876   1877     1  0.0000000  1.2552000  3
   1866   1872   1876   1878     1  0.0000000  1.2552000  3
   1867   1866   1869   1889     1  0.0000000  0.6508444  3
   1867   1866   1869   1870     1  0.0000000  0.6508444  3
   1867   1866   1869   1871     1  0.0000000  0.6508444  3
   1867   1866   1872   1873     1  0.0000000  1.2552000  3
   1867   1866   1872   1876     1  0.0000000  1.2552000  3
   1868   1866   1869   1889     1  0.0000000  0.6508444  3
   1868   1866   1869   1870     1  0.0000000  0.6508444  3
   1868   1866   1869   1871     1  0.0000000  0.6508444  3
   1868   1866   1872   1873     1  0.0000000  1.2552000  3
   1868   1866   1872   1876     1  0.0000000  1.2552000  3
   1870   1869   1866   1872     1  0.0000000  0.6508444  3
   1870   1869   1889   1890     1  0.0000000  0.0000000  2
   1871   1869   1866   1872     1  0.0000000  0.6508444  3
   1871   1869   1889   1890     1  0.0000000  0.0000000  2
   1872   1873   1882   1883     1  0.0000000  0.6508444  3
   1872   1873   1882   1884     1  0.0000000  0.6508444  3
   1872   1876   1879   1880     1  0.0000000  0.6508444  3
   1872   1876   1879   1881     1  0.0000000  0.6508444  3
   1873   1872   1876   1877     1  0.0000000  1.2552000  3
   1873   1872   1876   1878     1  0.0000000  1.2552000  3
   1874   1873   1872   1876     1  0.0000000  1.2552000  3
   1874   1873   1882   1886     1  0.0000000  0.6508444  3
   1874   1873   1882   1883     1  0.0000000  0.6508444  3
   1874   1873   1882   1884     1  0.0000000  0.6508444  3
   1875   1873   1872   1876     1  0.0000000  1.2552000  3
   1875   1873   1882   1886     1  0.0000000  0.6508444  3
   1875   1873   1882   1883     1  0.0000000  0.6508444  3
   1875   1873   1882   1884     1  0.0000000  0.6508444  3
   1877   1876   1879   1885     1  0.0000000  0.6508444  3
   1877   1876   1879   1880     1  0.0000000  0.6508444  3
   1877   1876   1879   1881     1  0.0000000  0.6508444  3
   1878   1876   1879   1885     1  0.0000000  0.6508444  3
   1878   1876   1879   1880     1  0.0000000  0.6508444  3
   1878   1876   1879   1881     1  0.0000000  0.6508444  3
   1879   1885   5039   5040     1  180.0000771  10.4600000  2
   1880   1879   1885   5039     1  180.0000771  0.0000000  2
   1880   1879   1885   1887     1  0.0000000  3.3472000  1
   1880   1879   1885   1887     1  0.0000000  0.0000000  2
   1880   1879   1885   1887     1  180.0000771  0.3347200  3
   1881   1879   1885   5039     1  180.0000771  0.0000000  2
   1881   1879   1885   1887     1  0.0000000  3.3472000  1
   1881   1879   1885   1887     1  0.0000000  0.0000000  2
   1881   1879   1885   1887     1  180.0000771  0.3347200  3
   1882   1886   5112   5113     1  180.0000771  10.4600000  2
   1883   1882   1886   1888     1  0.0000000  3.3472000  1
   1883   1882   1886   1888     1  0.0000000  0.0000000  2
   1883   1882   1886   1888     1  180.0000771  0.3347200  3
   1883   1882   1886   5112     1  180.0000771  0.0000000  2
   1884   1882   1886   1888     1  0.0000000  3.3472000  1
   1884   1882   1886   1888     1  0.0000000  0.0000000  2
   1884   1882   1886   1888     1  180.0000771  0.3347200  3
   1884   1882   1886   5112     1  180.0000771  0.0000000  2
   1885   5039   5041   5042     1  0.0000000  0.0000000  2
   1885   5039   5041   5044     1  0.0000000  0.0000000  2
   1886   5112   5114   5115     1  0.0000000  0.0000000  2
   1886   5112   5114   5117     1  0.0000000  0.0000000  2
   1887   1885   5039   5040     1  0.0000000  8.3680000  1
   1887   1885   5039   5040     1  180.0000771  10.4600000  2
   1888   1886   5112   5113     1  0.0000000  8.3680000  1
   1888   1886   5112   5113     1  180.0000771  10.4600000  2
   1891   1894   1914   1915     1  0.0000000  0.0000000  2
   1891   1897   1898   1899     1  0.0000000  1.2552000  3
   1891   1897   1898   1900     1  0.0000000  1.2552000  3
   1891   1897   1901   1902     1  0.0000000  1.2552000  3
   1891   1897   1901   1903     1  0.0000000  1.2552000  3
   1892   1891   1894   1914     1  0.0000000  0.6508444  3
   1892   1891   1894   1895     1  0.0000000  0.6508444  3
   1892   1891   1894   1896     1  0.0000000  0.6508444  3
   1892   1891   1897   1898     1  0.0000000  1.2552000  3
   1892   1891   1897   1901     1  0.0000000  1.2552000  3
   1893   1891   1894   1914     1  0.0000000  0.6508444  3
   1893   1891   1894   1895     1  0.0000000  0.6508444  3
   1893   1891   1894   1896     1  0.0000000  0.6508444  3
   1893   1891   1897   1898     1  0.0000000  1.2552000  3
   1893   1891   1897   1901     1  0.0000000  1.2552000  3
   1895   1894   1891   1897     1  0.0000000  0.6508444  3
   1895   1894   1914   1915     1  0.0000000  0.0000000  2
   1896   1894   1891   1897     1  0.0000000  0.6508444  3
   1896   1894   1914   1915     1  0.0000000  0.0000000  2
   1897   1898   1907   1908     1  0.0000000  0.6508444  3
   1897   1898   1907   1909     1  0.0000000  0.6508444  3
   1897   1901   1904   1905     1  0.0000000  0.6508444  3
   1897   1901   1904   1906     1  0.0000000  0.6508444  3
   1898   1897   1901   1902     1  0.0000000  1.2552000  3
   1898   1897   1901   1903     1  0.0000000  1.2552000  3
   1899   1898   1897   1901     1  0.0000000  1.2552000  3
   1899   1898   1907   1911     1  0.0000000  0.6508444  3
   1899   1898   1907   1908     1  0.0000000  0.6508444  3
   1899   1898   1907   1909     1  0.0000000  0.6508444  3
   1900   1898   1897   1901     1  0.0000000  1.2552000  3
   1900   1898   1907   1911     1  0.0000000  0.6508444  3
   1900   1898   1907   1908     1  0.0000000  0.6508444  3
   1900   1898   1907   1909     1  0.0000000  0.6508444  3
   1902   1901   1904   1910     1  0.0000000  0.6508444  3
   1902   1901   1904   1905     1  0.0000000  0.6508444  3
   1902   1901   1904   1906     1  0.0000000  0.6508444  3
   1903   1901   1904   1910     1  0.0000000  0.6508444  3
   1903   1901   1904   1905     1  0.0000000  0.6508444  3
   1903   1901   1904   1906     1  0.0000000  0.6508444  3
   1904   1910   5185   5186     1  180.0000771  10.4600000  2
   1905   1904   1910   5185     1  180.0000771  0.0000000  2
   1905   1904   1910   1912     1  0.0000000  3.3472000  1
   1905   1904   1910   1912     1  0.0000000  0.0000000  2
   1905   1904   1910   1912     1  180.0000771  0.3347200  3
   1906   1904   1910   5185     1  180.0000771  0.0000000  2
   1906   1904   1910   1912     1  0.0000000  3.3472000  1
   1906   1904   1910   1912     1  0.0000000  0.0000000  2
   1906   1904   1910   1912     1  180.0000771  0.3347200  3
   1907   1911   5258   5259     1  180.0000771  10.4600000  2
   1908   1907   1911   1913     1  0.0000000  3.3472000  1
   1908   1907   1911   1913     1  0.0000000  0.0000000  2
   1908   1907   1911   1913     1  180.0000771  0.3347200  3
   1908   1907   1911   5258     1  180.0000771  0.0000000  2
   1909   1907   1911   1913     1  0.0000000  3.3472000  1
   1909   1907   1911   1913     1  0.0000000  0.0000000  2
   1909   1907   1911   1913     1  180.0000771  0.3347200  3
   1909   1907   1911   5258     1  180.0000771  0.0000000  2
   1910   5185   5187   5188     1  0.0000000  0.0000000  2
   1910   5185   5187   5190     1  0.0000000  0.0000000  2
   1911   5258   5260   5261     1  0.0000000  0.0000000  2
   1911   5258   5260   5263     1  0.0000000  0.0000000  2
   1912   1910   5185   5186     1  0.0000000  8.3680000  1
   1912   1910   5185   5186     1  180.0000771  10.4600000  2
   1913   1911   5258   5259     1  0.0000000  8.3680000  1
   1913   1911   5258   5259     1  180.0000771  10.4600000  2
   1916   1919   1939   1940     1  0.0000000  0.0000000  2
   1916   1922   1923   1924     1  0.0000000  1.2552000  3
   1916   1922   1923   1925     1  0.0000000  1.2552000  3
   1916   1922   1926   1927     1  0.0000000  1.2552000  3
   1916   1922   1926   1928     1  0.0000000  1.2552000  3
   1917   1916   1919   1939     1  0.0000000  0.6508444  3
   1917   1916   1919   1920     1  0.0000000  0.6508444  3
   1917   1916   1919   1921     1  0.0000000  0.6508444  3
   1917   1916   1922   1923     1  0.0000000  1.2552000  3
   1917   1916   1922   1926     1  0.0000000  1.2552000  3
   1918   1916   1919   1939     1  0.0000000  0.6508444  3
   1918   1916   1919   1920     1  0.0000000  0.6508444  3
   1918   1916   1919   1921     1  0.0000000  0.6508444  3
   1918   1916   1922   1923     1  0.0000000  1.2552000  3
   1918   1916   1922   1926     1  0.0000000  1.2552000  3
   1920   1919   1916   1922     1  0.0000000  0.6508444  3
   1920   1919   1939   1940     1  0.0000000  0.0000000  2
   1921   1919   1916   1922     1  0.0000000  0.6508444  3
   1921   1919   1939   1940     1  0.0000000  0.0000000  2
   1922   1923   1932   1933     1  0.0000000  0.6508444  3
   1922   1923   1932   1934     1  0.0000000  0.6508444  3
   1922   1926   1929   1930     1  0.0000000  0.6508444  3
   1922   1926   1929   1931     1  0.0000000  0.6508444  3
   1923   1922   1926   1927     1  0.0000000  1.2552000  3
   1923   1922   1926   1928     1  0.0000000  1.2552000  3
   1924   1923   1922   1926     1  0.0000000  1.2552000  3
   1924   1923   1932   1936     1  0.0000000  0.6508444  3
   1924   1923   1932   1933     1  0.0000000  0.6508444  3
   1924   1923   1932   1934     1  0.0000000  0.6508444  3
   1925   1923   1922   1926     1  0.0000000  1.2552000  3
   1925   1923   1932   1936     1  0.0000000  0.6508444  3
   1925   1923   1932   1933     1  0.0000000  0.6508444  3
   1925   1923   1932   1934     1  0.0000000  0.6508444  3
   1927   1926   1929   1935     1  0.0000000  0.6508444  3
   1927   1926   1929   1930     1  0.0000000  0.6508444  3
   1927   1926   1929   1931     1  0.0000000  0.6508444  3
   1928   1926   1929   1935     1  0.0000000  0.6508444  3
   1928   1926   1929   1930     1  0.0000000  0.6508444  3
   1928   1926   1929   1931     1  0.0000000  0.6508444  3
   1929   1935   5331   5332     1  180.0000771  10.4600000  2
   1930   1929   1935   5331     1  180.0000771  0.0000000  2
   1930   1929   1935   1937     1  0.0000000  3.3472000  1
   1930   1929   1935   1937     1  0.0000000  0.0000000  2
   1930   1929   1935   1937     1  180.0000771  0.3347200  3
   1931   1929   1935   5331     1  180.0000771  0.0000000  2
   1931   1929   1935   1937     1  0.0000000  3.3472000  1
   1931   1929   1935   1937     1  0.0000000  0.0000000  2
   1931   1929   1935   1937     1  180.0000771  0.3347200  3
   1932   1936   5404   5405     1  180.0000771  10.4600000  2
   1933   1932   1936   1938     1  0.0000000  3.3472000  1
   1933   1932   1936   1938     1  0.0000000  0.0000000  2
   1933   1932   1936   1938     1  180.0000771  0.3347200  3
   1933   1932   1936   5404     1  180.0000771  0.0000000  2
   1934   1932   1936   1938     1  0.0000000  3.3472000  1
   1934   1932   1936   1938     1  0.0000000  0.0000000  2
   1934   1932   1936   1938     1  180.0000771  0.3347200  3
   1934   1932   1936   5404     1  180.0000771  0.0000000  2
   1935   5331   5333   5334     1  0.0000000  0.0000000  2
   1935   5331   5333   5336     1  0.0000000  0.0000000  2
   1936   5404   5406   5407     1  0.0000000  0.0000000  2
   1936   5404   5406   5409     1  0.0000000  0.0000000  2
   1937   1935   5331   5332     1  0.0000000  8.3680000  1
   1937   1935   5331   5332     1  180.0000771  10.4600000  2
   1938   1936   5404   5405     1  0.0000000  8.3680000  1
   1938   1936   5404   5405     1  180.0000771  10.4600000  2
   1941   1944   1964   1965     1  0.0000000  0.0000000  2
   1941   1947   1948   1949     1  0.0000000  1.2552000  3
   1941   1947   1948   1950     1  0.0000000  1.2552000  3
   1941   1947   1951   1952     1  0.0000000  1.2552000  3
   1941   1947   1951   1953     1  0.0000000  1.2552000  3
   1942   1941   1944   1964     1  0.0000000  0.6508444  3
   1942   1941   1944   1945     1  0.0000000  0.6508444  3
   1942   1941   1944   1946     1  0.0000000  0.6508444  3
   1942   1941   1947   1948     1  0.0000000  1.2552000  3
   1942   1941   1947   1951     1  0.0000000  1.2552000  3
   1943   1941   1944   1964     1  0.0000000  0.6508444  3
   1943   1941   1944   1945     1  0.0000000  0.6508444  3
   1943   1941   1944   1946     1  0.0000000  0.6508444  3
   1943   1941   1947   1948     1  0.0000000  1.2552000  3
   1943   1941   1947   1951     1  0.0000000  1.2552000  3
   1945   1944   1941   1947     1  0.0000000  0.6508444  3
   1945   1944   1964   1965     1  0.0000000  0.0000000  2
   1946   1944   1941   1947     1  0.0000000  0.6508444  3
   1946   1944   1964   1965     1  0.0000000  0.0000000  2
   1947   1948   1957   1958     1  0.0000000  0.6508444  3
   1947   1948   1957   1959     1  0.0000000  0.6508444  3
   1947   1951   1954   1955     1  0.0000000  0.6508444  3
   1947   1951   1954   1956     1  0.0000000  0.6508444  3
   1948   1947   1951   1952     1  0.0000000  1.2552000  3
   1948   1947   1951   1953     1  0.0000000  1.2552000  3
   1949   1948   1947   1951     1  0.0000000  1.2552000  3
   1949   1948   1957   1961     1  0.0000000  0.6508444  3
   1949   1948   1957   1958     1  0.0000000  0.6508444  3
   1949   1948   1957   1959     1  0.0000000  0.6508444  3
   1950   1948   1947   1951     1  0.0000000  1.2552000  3
   1950   1948   1957   1961     1  0.0000000  0.6508444  3
   1950   1948   1957   1958     1  0.0000000  0.6508444  3
   1950   1948   1957   1959     1  0.0000000  0.6508444  3
   1952   1951   1954   1960     1  0.0000000  0.6508444  3
   1952   1951   1954   1955     1  0.0000000  0.6508444  3
   1952   1951   1954   1956     1  0.0000000  0.6508444  3
   1953   1951   1954   1960     1  0.0000000  0.6508444  3
   1953   1951   1954   1955     1  0.0000000  0.6508444  3
   1953   1951   1954   1956     1  0.0000000  0.6508444  3
   1954   1960   5477   5478     1  180.0000771  10.4600000  2
   1955   1954   1960   5477     1  180.0000771  0.0000000  2
   1955   1954   1960   1962     1  0.0000000  3.3472000  1
   1955   1954   1960   1962     1  0.0000000  0.0000000  2
   1955   1954   1960   1962     1  180.0000771  0.3347200  3
   1956   1954   1960   5477     1  180.0000771  0.0000000  2
   1956   1954   1960   1962     1  0.0000000  3.3472000  1
   1956   1954   1960   1962     1  0.0000000  0.0000000  2
   1956   1954   1960   1962     1  180.0000771  0.3347200  3
   1957   1961   5550   5551     1  180.0000771  10.4600000  2
   1958   1957   1961   1963     1  0.0000000  3.3472000  1
   1958   1957   1961   1963     1  0.0000000  0.0000000  2
   1958   1957   1961   1963     1  180.0000771  0.3347200  3
   1958   1957   1961   5550     1  180.0000771  0.0000000  2
   1959   1957   1961   1963     1  0.0000000  3.3472000  1
   1959   1957   1961   1963     1  0.0000000  0.0000000  2
   1959   1957   1961   1963     1  180.0000771  0.3347200  3
   1959   1957   1961   5550     1  180.0000771  0.0000000  2
   1960   5477   5479   5480     1  0.0000000  0.0000000  2
   1960   5477   5479   5482     1  0.0000000  0.0000000  2
   1961   5550   5552   5553     1  0.0000000  0.0000000  2
   1961   5550   5552   5555     1  0.0000000  0.0000000  2
   1962   1960   5477   5478     1  0.0000000  8.3680000  1
   1962   1960   5477   5478     1  180.0000771  10.4600000  2
   1963   1961   5550   5551     1  0.0000000  8.3680000  1
   1963   1961   5550   5551     1  180.0000771  10.4600000  2
   1966   1969   1989   1990     1  0.0000000  0.0000000  2
   1966   1972   1973   1974     1  0.0000000  1.2552000  3
   1966   1972   1973   1975     1  0.0000000  1.2552000  3
   1966   1972   1976   1977     1  0.0000000  1.2552000  3
   1966   1972   1976   1978     1  0.0000000  1.2552000  3
   1967   1966   1969   1989     1  0.0000000  0.6508444  3
   1967   1966   1969   1970     1  0.0000000  0.6508444  3
   1967   1966   1969   1971     1  0.0000000  0.6508444  3
   1967   1966   1972   1973     1  0.0000000  1.2552000  3
   1967   1966   1972   1976     1  0.0000000  1.2552000  3
   1968   1966   1969   1989     1  0.0000000  0.6508444  3
   1968   1966   1969   1970     1  0.0000000  0.6508444  3
   1968   1966   1969   1971     1  0.0000000  0.6508444  3
   1968   1966   1972   1973     1  0.0000000  1.2552000  3
   1968   1966   1972   1976     1  0.0000000  1.2552000  3
   1970   1969   1966   1972     1  0.0000000  0.6508444  3
   1970   1969   1989   1990     1  0.0000000  0.0000000  2
   1971   1969   1966   1972     1  0.0000000  0.6508444  3
   1971   1969   1989   1990     1  0.0000000  0.0000000  2
   1972   1973   1982   1983     1  0.0000000  0.6508444  3
   1972   1973   1982   1984     1  0.0000000  0.6508444  3
   1972   1976   1979   1980     1  0.0000000  0.6508444  3
   1972   1976   1979   1981     1  0.0000000  0.6508444  3
   1973   1972   1976   1977     1  0.0000000  1.2552000  3
   1973   1972   1976   1978     1  0.0000000  1.2552000  3
   1974   1973   1972   1976     1  0.0000000  1.2552000  3
   1974   1973   1982   1986     1  0.0000000  0.6508444  3
   1974   1973   1982   1983     1  0.0000000  0.6508444  3
   1974   1973   1982   1984     1  0.0000000  0.6508444  3
   1975   1973   1972   1976     1  0.0000000  1.2552000  3
   1975   1973   1982   1986     1  0.0000000  0.6508444  3
   1975   1973   1982   1983     1  0.0000000  0.6508444  3
   1975   1973   1982   1984     1  0.0000000  0.6508444  3
   1977   1976   1979   1985     1  0.0000000  0.6508444  3
   1977   1976   1979   1980     1  0.0000000  0.6508444  3
   1977   1976   1979   1981     1  0.0000000  0.6508444  3
   1978   1976   1979   1985     1  0.0000000  0.6508444  3
   1978   1976   1979   1980     1  0.0000000  0.6508444  3
   1978   1976   1979   1981     1  0.0000000  0.6508444  3
   1979   1985   5623   5624     1  180.0000771  10.4600000  2
   1980   1979   1985   5623     1  180.0000771  0.0000000  2
   1980   1979   1985   1987     1  0.0000000  3.3472000  1
   1980   1979   1985   1987     1  0.0000000  0.0000000  2
   1980   1979   1985   1987     1  180.0000771  0.3347200  3
   1981   1979   1985   5623     1  180.0000771  0.0000000  2
   1981   1979   1985   1987     1  0.0000000  3.3472000  1
   1981   1979   1985   1987     1  0.0000000  0.0000000  2
   1981   1979   1985   1987     1  180.0000771  0.3347200  3
   1982   1986   5696   5697     1  180.0000771  10.4600000  2
   1983   1982   1986   1988     1  0.0000000  3.3472000  1
   1983   1982   1986   1988     1  0.0000000  0.0000000  2
   1983   1982   1986   1988     1  180.0000771  0.3347200  3
   1983   1982   1986   5696     1  180.0000771  0.0000000  2
   1984   1982   1986   1988     1  0.0000000  3.3472000  1
   1984   1982   1986   1988     1  0.0000000  0.0000000  2
   1984   1982   1986   1988     1  180.0000771  0.3347200  3
   1984   1982   1986   5696     1  180.0000771  0.0000000  2
   1985   5623   5625   5626     1  0.0000000  0.0000000  2
   1985   5623   5625   5628     1  0.0000000  0.0000000  2
   1986   5696   5698   5699     1  0.0000000  0.0000000  2
   1986   5696   5698   5701     1  0.0000000  0.0000000  2
   1987   1985   5623   5624     1  0.0000000  8.3680000  1
   1987   1985   5623   5624     1  180.0000771  10.4600000  2
   1988   1986   5696   5697     1  0.0000000  8.3680000  1
   1988   1986   5696   5697     1  180.0000771  10.4600000  2
   1991   1994   2014   2015     1  0.0000000  0.0000000  2
   1991   1997   1998   1999     1  0.0000000  1.2552000  3
   1991   1997   1998   2000     1  0.0000000  1.2552000  3
   1991   1997   2001   2002     1  0.0000000  1.2552000  3
   1991   1997   2001   2003     1  0.0000000  1.2552000  3
   1992   1991   1994   2014     1  0.0000000  0.6508444  3
   1992   1991   1994   1995     1  0.0000000  0.6508444  3
   1992   1991   1994   1996     1  0.0000000  0.6508444  3
   1992   1991   1997   1998     1  0.0000000  1.2552000  3
   1992   1991   1997   2001     1  0.0000000  1.2552000  3
   1993   1991   1994   2014     1  0.0000000  0.6508444  3
   1993   1991   1994   1995     1  0.0000000  0.6508444  3
   1993   1991   1994   1996     1  0.0000000  0.6508444  3
   1993   1991   1997   1998     1  0.0000000  1.2552000  3
   1993   1991   1997   2001     1  0.0000000  1.2552000  3
   1995   1994   1991   1997     1  0.0000000  0.6508444  3
   1995   1994   2014   2015     1  0.0000000  0.0000000  2
   1996   1994   1991   1997     1  0.0000000  0.6508444  3
   1996   1994   2014   2015     1  0.0000000  0.0000000  2
   1997   1998   2007   2008     1  0.0000000  0.6508444  3
   1997   1998   2007   2009     1  0.0000000  0.6508444  3
   1997   2001   2004   2005     1  0.0000000  0.6508444  3
   1997   2001   2004   2006     1  0.0000000  0.6508444  3
   1998   1997   2001   2002     1  0.0000000  1.2552000  3
   1998   1997   2001   2003     1  0.0000000  1.2552000  3
   1999   1998   1997   2001     1  0.0000000  1.2552000  3
   1999   1998   2007   2011     1  0.0000000  0.6508444  3
   1999   1998   2007   2008     1  0.0000000  0.6508444  3
   1999   1998   2007   2009     1  0.0000000  0.6508444  3
   2000   1998   1997   2001     1  0.0000000  1.2552000  3
   2000   1998   2007   2011     1  0.0000000  0.6508444  3
   2000   1998   2007   2008     1  0.0000000  0.6508444  3
   2000   1998   2007   2009     1  0.0000000  0.6508444  3
   2002   2001   2004   2010     1  0.0000000  0.6508444  3
   2002   2001   2004   2005     1  0.0000000  0.6508444  3
   2002   2001   2004   2006     1  0.0000000  0.6508444  3
   2003   2001   2004   2010     1  0.0000000  0.6508444  3
   2003   2001   2004   2005     1  0.0000000  0.6508444  3
   2003   2001   2004   2006     1  0.0000000  0.6508444  3
   2004   2010   5769   5770     1  180.0000771  10.4600000  2
   2005   2004   2010   5769     1  180.0000771  0.0000000  2
   2005   2004   2010   2012     1  0.0000000  3.3472000  1
   2005   2004   2010   2012     1  0.0000000  0.0000000  2
   2005   2004   2010   2012     1  180.0000771  0.3347200  3
   2006   2004   2010   5769     1  180.0000771  0.0000000  2
   2006   2004   2010   2012     1  0.0000000  3.3472000  1
   2006   2004   2010   2012     1  0.0000000  0.0000000  2
   2006   2004   2010   2012     1  180.0000771  0.3347200  3
   2007   2011   5842   5843     1  180.0000771  10.4600000  2
   2008   2007   2011   2013     1  0.0000000  3.3472000  1
   2008   2007   2011   2013     1  0.0000000  0.0000000  2
   2008   2007   2011   2013     1  180.0000771  0.3347200  3
   2008   2007   2011   5842     1  180.0000771  0.0000000  2
   2009   2007   2011   2013     1  0.0000000  3.3472000  1
   2009   2007   2011   2013     1  0.0000000  0.0000000  2
   2009   2007   2011   2013     1  180.0000771  0.3347200  3
   2009   2007   2011   5842     1  180.0000771  0.0000000  2
   2010   5769   5771   5772     1  0.0000000  0.0000000  2
   2010   5769   5771   5774     1  0.0000000  0.0000000  2
   2011   5842   5844   5845     1  0.0000000  0.0000000  2
   2011   5842   5844   5847     1  0.0000000  0.0000000  2
   2012   2010   5769   5770     1  0.0000000  8.3680000  1
   2012   2010   5769   5770     1  180.0000771  10.4600000  2
   2013   2011   5842   5843     1  0.0000000  8.3680000  1
   2013   2011   5842   5843     1  180.0000771  10.4600000  2
   2016   2019   2039   2040     1  0.0000000  0.0000000  2
   2016   2022   2023   2024     1  0.0000000  1.2552000  3
   2016   2022   2023   2025     1  0.0000000  1.2552000  3
   2016   2022   2026   2027     1  0.0000000  1.2552000  3
   2016   2022   2026   2028     1  0.0000000  1.2552000  3
   2017   2016   2019   2039     1  0.0000000  0.6508444  3
   2017   2016   2019   2020     1  0.0000000  0.6508444  3
   2017   2016   2019   2021     1  0.0000000  0.6508444  3
   2017   2016   2022   2023     1  0.0000000  1.2552000  3
   2017   2016   2022   2026     1  0.0000000  1.2552000  3
   2018   2016   2019   2039     1  0.0000000  0.6508444  3
   2018   2016   2019   2020     1  0.0000000  0.6508444  3
   2018   2016   2019   2021     1  0.0000000  0.6508444  3
   2018   2016   2022   2023     1  0.0000000  1.2552000  3
   2018   2016   2022   2026     1  0.0000000  1.2552000  3
   2020   2019   2016   2022     1  0.0000000  0.6508444  3
   2020   2019   2039   2040     1  0.0000000  0.0000000  2
   2021   2019   2016   2022     1  0.0000000  0.6508444  3
   2021   2019   2039   2040     1  0.0000000  0.0000000  2
   2022   2023   2032   2033     1  0.0000000  0.6508444  3
   2022   2023   2032   2034     1  0.0000000  0.6508444  3
   2022   2026   2029   2030     1  0.0000000  0.6508444  3
   2022   2026   2029   2031     1  0.0000000  0.6508444  3
   2023   2022   2026   2027     1  0.0000000  1.2552000  3
   2023   2022   2026   2028     1  0.0000000  1.2552000  3
   2024   2023   2022   2026     1  0.0000000  1.2552000  3
   2024   2023   2032   2036     1  0.0000000  0.6508444  3
   2024   2023   2032   2033     1  0.0000000  0.6508444  3
   2024   2023   2032   2034     1  0.0000000  0.6508444  3
   2025   2023   2022   2026     1  0.0000000  1.2552000  3
   2025   2023   2032   2036     1  0.0000000  0.6508444  3
   2025   2023   2032   2033     1  0.0000000  0.6508444  3
   2025   2023   2032   2034     1  0.0000000  0.6508444  3
   2027   2026   2029   2035     1  0.0000000  0.6508444  3
   2027   2026   2029   2030     1  0.0000000  0.6508444  3
   2027   2026   2029   2031     1  0.0000000  0.6508444  3
   2028   2026   2029   2035     1  0.0000000  0.6508444  3
   2028   2026   2029   2030     1  0.0000000  0.6508444  3
   2028   2026   2029   2031     1  0.0000000  0.6508444  3
   2029   2035   5915   5916     1  180.0000771  10.4600000  2
   2030   2029   2035   5915     1  180.0000771  0.0000000  2
   2030   2029   2035   2037     1  0.0000000  3.3472000  1
   2030   2029   2035   2037     1  0.0000000  0.0000000  2
   2030   2029   2035   2037     1  180.0000771  0.3347200  3
   2031   2029   2035   5915     1  180.0000771  0.0000000  2
   2031   2029   2035   2037     1  0.0000000  3.3472000  1
   2031   2029   2035   2037     1  0.0000000  0.0000000  2
   2031   2029   2035   2037     1  180.0000771  0.3347200  3
   2032   2036   5988   5989     1  180.0000771  10.4600000  2
   2033   2032   2036   2038     1  0.0000000  3.3472000  1
   2033   2032   2036   2038     1  0.0000000  0.0000000  2
   2033   2032   2036   2038     1  180.0000771  0.3347200  3
   2033   2032   2036   5988     1  180.0000771  0.0000000  2
   2034   2032   2036   2038     1  0.0000000  3.3472000  1
   2034   2032   2036   2038     1  0.0000000  0.0000000  2
   2034   2032   2036   2038     1  180.0000771  0.3347200  3
   2034   2032   2036   5988     1  180.0000771  0.0000000  2
   2035   5915   5917   5918     1  0.0000000  0.0000000  2
   2035   5915   5917   5920     1  0.0000000  0.0000000  2
   2036   5988   5990   5991     1  0.0000000  0.0000000  2
   2036   5988   5990   5993     1  0.0000000  0.0000000  2
   2037   2035   5915   5916     1  0.0000000  8.3680000  1
   2037   2035   5915   5916     1  180.0000771  10.4600000  2
   2038   2036   5988   5989     1  0.0000000  8.3680000  1
   2038   2036   5988   5989     1  180.0000771  10.4600000  2
   2041   2044   2064   2065     1  0.0000000  0.0000000  2
   2041   2047   2048   2049     1  0.0000000  1.2552000  3
   2041   2047   2048   2050     1  0.0000000  1.2552000  3
   2041   2047   2051   2052     1  0.0000000  1.2552000  3
   2041   2047   2051   2053     1  0.0000000  1.2552000  3
   2042   2041   2044   2064     1  0.0000000  0.6508444  3
   2042   2041   2044   2045     1  0.0000000  0.6508444  3
   2042   2041   2044   2046     1  0.0000000  0.6508444  3
   2042   2041   2047   2048     1  0.0000000  1.2552000  3
   2042   2041   2047   2051     1  0.0000000  1.2552000  3
   2043   2041   2044   2064     1  0.0000000  0.6508444  3
   2043   2041   2044   2045     1  0.0000000  0.6508444  3
   2043   2041   2044   2046     1  0.0000000  0.6508444  3
   2043   2041   2047   2048     1  0.0000000  1.2552000  3
   2043   2041   2047   2051     1  0.0000000  1.2552000  3
   2045   2044   2041   2047     1  0.0000000  0.6508444  3
   2045   2044   2064   2065     1  0.0000000  0.0000000  2
   2046   2044   2041   2047     1  0.0000000  0.6508444  3
   2046   2044   2064   2065     1  0.0000000  0.0000000  2
   2047   2048   2057   2058     1  0.0000000  0.6508444  3
   2047   2048   2057   2059     1  0.0000000  0.6508444  3
   2047   2051   2054   2055     1  0.0000000  0.6508444  3
   2047   2051   2054   2056     1  0.0000000  0.6508444  3
   2048   2047   2051   2052     1  0.0000000  1.2552000  3
   2048   2047   2051   2053     1  0.0000000  1.2552000  3
   2049   2048   2047   2051     1  0.0000000  1.2552000  3
   2049   2048   2057   2061     1  0.0000000  0.6508444  3
   2049   2048   2057   2058     1  0.0000000  0.6508444  3
   2049   2048   2057   2059     1  0.0000000  0.6508444  3
   2050   2048   2047   2051     1  0.0000000  1.2552000  3
   2050   2048   2057   2061     1  0.0000000  0.6508444  3
   2050   2048   2057   2058     1  0.0000000  0.6508444  3
   2050   2048   2057   2059     1  0.0000000  0.6508444  3
   2052   2051   2054   2060     1  0.0000000  0.6508444  3
   2052   2051   2054   2055     1  0.0000000  0.6508444  3
   2052   2051   2054   2056     1  0.0000000  0.6508444  3
   2053   2051   2054   2060     1  0.0000000  0.6508444  3
   2053   2051   2054   2055     1  0.0000000  0.6508444  3
   2053   2051   2054   2056     1  0.0000000  0.6508444  3
   2054   2060   6061   6062     1  180.0000771  10.4600000  2
   2055   2054   2060   6061     1  180.0000771  0.0000000  2
   2055   2054   2060   2062     1  0.0000000  3.3472000  1
   2055   2054   2060   2062     1  0.0000000  0.0000000  2
   2055   2054   2060   2062     1  180.0000771  0.3347200  3
   2056   2054   2060   6061     1  180.0000771  0.0000000  2
   2056   2054   2060   2062     1  0.0000000  3.3472000  1
   2056   2054   2060   2062     1  0.0000000  0.0000000  2
   2056   2054   2060   2062     1  180.0000771  0.3347200  3
   2057   2061   6134   6135     1  180.0000771  10.4600000  2
   2058   2057   2061   2063     1  0.0000000  3.3472000  1
   2058   2057   2061   2063     1  0.0000000  0.0000000  2
   2058   2057   2061   2063     1  180.0000771  0.3347200  3
   2058   2057   2061   6134     1  180.0000771  0.0000000  2
   2059   2057   2061   2063     1  0.0000000  3.3472000  1
   2059   2057   2061   2063     1  0.0000000  0.0000000  2
   2059   2057   2061   2063     1  180.0000771  0.3347200  3
   2059   2057   2061   6134     1  180.0000771  0.0000000  2
   2060   6061   6063   6064     1  0.0000000  0.0000000  2
   2060   6061   6063   6066     1  0.0000000  0.0000000  2
   2061   6134   6136   6137     1  0.0000000  0.0000000  2
   2061   6134   6136   6139     1  0.0000000  0.0000000  2
   2062   2060   6061   6062     1  0.0000000  8.3680000  1
   2062   2060   6061   6062     1  180.0000771  10.4600000  2
   2063   2061   6134   6135     1  0.0000000  8.3680000  1
   2063   2061   6134   6135     1  180.0000771  10.4600000  2
   2066   2069   2089   2090     1  0.0000000  0.0000000  2
   2066   2072   2073   2074     1  0.0000000  1.2552000  3
   2066   2072   2073   2075     1  0.0000000  1.2552000  3
   2066   2072   2076   2077     1  0.0000000  1.2552000  3
   2066   2072   2076   2078     1  0.0000000  1.2552000  3
   2067   2066   2069   2089     1  0.0000000  0.6508444  3
   2067   2066   2069   2070     1  0.0000000  0.6508444  3
   2067   2066   2069   2071     1  0.0000000  0.6508444  3
   2067   2066   2072   2073     1  0.0000000  1.2552000  3
   2067   2066   2072   2076     1  0.0000000  1.2552000  3
   2068   2066   2069   2089     1  0.0000000  0.6508444  3
   2068   2066   2069   2070     1  0.0000000  0.6508444  3
   2068   2066   2069   2071     1  0.0000000  0.6508444  3
   2068   2066   2072   2073     1  0.0000000  1.2552000  3
   2068   2066   2072   2076     1  0.0000000  1.2552000  3
   2070   2069   2066   2072     1  0.0000000  0.6508444  3
   2070   2069   2089   2090     1  0.0000000  0.0000000  2
   2071   2069   2066   2072     1  0.0000000  0.6508444  3
   2071   2069   2089   2090     1  0.0000000  0.0000000  2
   2072   2073   2082   2083     1  0.0000000  0.6508444  3
   2072   2073   2082   2084     1  0.0000000  0.6508444  3
   2072   2076   2079   2080     1  0.0000000  0.6508444  3
   2072   2076   2079   2081     1  0.0000000  0.6508444  3
   2073   2072   2076   2077     1  0.0000000  1.2552000  3
   2073   2072   2076   2078     1  0.0000000  1.2552000  3
   2074   2073   2072   2076     1  0.0000000  1.2552000  3
   2074   2073   2082   2086     1  0.0000000  0.6508444  3
   2074   2073   2082   2083     1  0.0000000  0.6508444  3
   2074   2073   2082   2084     1  0.0000000  0.6508444  3
   2075   2073   2072   2076     1  0.0000000  1.2552000  3
   2075   2073   2082   2086     1  0.0000000  0.6508444  3
   2075   2073   2082   2083     1  0.0000000  0.6508444  3
   2075   2073   2082   2084     1  0.0000000  0.6508444  3
   2077   2076   2079   2085     1  0.0000000  0.6508444  3
   2077   2076   2079   2080     1  0.0000000  0.6508444  3
   2077   2076   2079   2081     1  0.0000000  0.6508444  3
   2078   2076   2079   2085     1  0.0000000  0.6508444  3
   2078   2076   2079   2080     1  0.0000000  0.6508444  3
   2078   2076   2079   2081     1  0.0000000  0.6508444  3
   2079   2085   6207   6208     1  180.0000771  10.4600000  2
   2080   2079   2085   6207     1  180.0000771  0.0000000  2
   2080   2079   2085   2087     1  0.0000000  3.3472000  1
   2080   2079   2085   2087     1  0.0000000  0.0000000  2
   2080   2079   2085   2087     1  180.0000771  0.3347200  3
   2081   2079   2085   6207     1  180.0000771  0.0000000  2
   2081   2079   2085   2087     1  0.0000000  3.3472000  1
   2081   2079   2085   2087     1  0.0000000  0.0000000  2
   2081   2079   2085   2087     1  180.0000771  0.3347200  3
   2082   2086   6280   6281     1  180.0000771  10.4600000  2
   2083   2082   2086   2088     1  0.0000000  3.3472000  1
   2083   2082   2086   2088     1  0.0000000  0.0000000  2
   2083   2082   2086   2088     1  180.0000771  0.3347200  3
   2083   2082   2086   6280     1  180.0000771  0.0000000  2
   2084   2082   2086   2088     1  0.0000000  3.3472000  1
   2084   2082   2086   2088     1  0.0000000  0.0000000  2
   2084   2082   2086   2088     1  180.0000771  0.3347200  3
   2084   2082   2086   6280     1  180.0000771  0.0000000  2
   2085   6207   6209   6210     1  0.0000000  0.0000000  2
   2085   6207   6209   6212     1  0.0000000  0.0000000  2
   2086   6280   6282   6283     1  0.0000000  0.0000000  2
   2086   6280   6282   6285     1  0.0000000  0.0000000  2
   2087   2085   6207   6208     1  0.0000000  8.3680000  1
   2087   2085   6207   6208     1  180.0000771  10.4600000  2
   2088   2086   6280   6281     1  0.0000000  8.3680000  1
   2088   2086   6280   6281     1  180.0000771  10.4600000  2
   2091   2094   2114   2115     1  0.0000000  0.0000000  2
   2091   2097   2098   2099     1  0.0000000  1.2552000  3
   2091   2097   2098   2100     1  0.0000000  1.2552000  3
   2091   2097   2101   2102     1  0.0000000  1.2552000  3
   2091   2097   2101   2103     1  0.0000000  1.2552000  3
   2092   2091   2094   2114     1  0.0000000  0.6508444  3
   2092   2091   2094   2095     1  0.0000000  0.6508444  3
   2092   2091   2094   2096     1  0.0000000  0.6508444  3
   2092   2091   2097   2098     1  0.0000000  1.2552000  3
   2092   2091   2097   2101     1  0.0000000  1.2552000  3
   2093   2091   2094   2114     1  0.0000000  0.6508444  3
   2093   2091   2094   2095     1  0.0000000  0.6508444  3
   2093   2091   2094   2096     1  0.0000000  0.6508444  3
   2093   2091   2097   2098     1  0.0000000  1.2552000  3
   2093   2091   2097   2101     1  0.0000000  1.2552000  3
   2095   2094   2091   2097     1  0.0000000  0.6508444  3
   2095   2094   2114   2115     1  0.0000000  0.0000000  2
   2096   2094   2091   2097     1  0.0000000  0.6508444  3
   2096   2094   2114   2115     1  0.0000000  0.0000000  2
   2097   2098   2107   2108     1  0.0000000  0.6508444  3
   2097   2098   2107   2109     1  0.0000000  0.6508444  3
   2097   2101   2104   2105     1  0.0000000  0.6508444  3
   2097   2101   2104   2106     1  0.0000000  0.6508444  3
   2098   2097   2101   2102     1  0.0000000  1.2552000  3
   2098   2097   2101   2103     1  0.0000000  1.2552000  3
   2099   2098   2097   2101     1  0.0000000  1.2552000  3
   2099   2098   2107   2111     1  0.0000000  0.6508444  3
   2099   2098   2107   2108     1  0.0000000  0.6508444  3
   2099   2098   2107   2109     1  0.0000000  0.6508444  3
   2100   2098   2097   2101     1  0.0000000  1.2552000  3
   2100   2098   2107   2111     1  0.0000000  0.6508444  3
   2100   2098   2107   2108     1  0.0000000  0.6508444  3
   2100   2098   2107   2109     1  0.0000000  0.6508444  3
   2102   2101   2104   2110     1  0.0000000  0.6508444  3
   2102   2101   2104   2105     1  0.0000000  0.6508444  3
   2102   2101   2104   2106     1  0.0000000  0.6508444  3
   2103   2101   2104   2110     1  0.0000000  0.6508444  3
   2103   2101   2104   2105     1  0.0000000  0.6508444  3
   2103   2101   2104   2106     1  0.0000000  0.6508444  3
   2104   2110   6353   6354     1  180.0000771  10.4600000  2
   2105   2104   2110   6353     1  180.0000771  0.0000000  2
   2105   2104   2110   2112     1  0.0000000  3.3472000  1
   2105   2104   2110   2112     1  0.0000000  0.0000000  2
   2105   2104   2110   2112     1  180.0000771  0.3347200  3
   2106   2104   2110   6353     1  180.0000771  0.0000000  2
   2106   2104   2110   2112     1  0.0000000  3.3472000  1
   2106   2104   2110   2112     1  0.0000000  0.0000000  2
   2106   2104   2110   2112     1  180.0000771  0.3347200  3
   2107   2111   6426   6427     1  180.0000771  10.4600000  2
   2108   2107   2111   2113     1  0.0000000  3.3472000  1
   2108   2107   2111   2113     1  0.0000000  0.0000000  2
   2108   2107   2111   2113     1  180.0000771  0.3347200  3
   2108   2107   2111   6426     1  180.0000771  0.0000000  2
   2109   2107   2111   2113     1  0.0000000  3.3472000  1
   2109   2107   2111   2113     1  0.0000000  0.0000000  2
   2109   2107   2111   2113     1  180.0000771  0.3347200  3
   2109   2107   2111   6426     1  180.0000771  0.0000000  2
   2110   6353   6355   6356     1  0.0000000  0.0000000  2
   2110   6353   6355   6358     1  0.0000000  0.0000000  2
   2111   6426   6428   6429     1  0.0000000  0.0000000  2
   2111   6426   6428   6431     1  0.0000000  0.0000000  2
   2112   2110   6353   6354     1  0.0000000  8.3680000  1
   2112   2110   6353   6354     1  180.0000771  10.4600000  2
   2113   2111   6426   6427     1  0.0000000  8.3680000  1
   2113   2111   6426   6427     1  180.0000771  10.4600000  2
   2116   2119   2139   2140     1  0.0000000  0.0000000  2
   2116   2122   2123   2124     1  0.0000000  1.2552000  3
   2116   2122   2123   2125     1  0.0000000  1.2552000  3
   2116   2122   2126   2127     1  0.0000000  1.2552000  3
   2116   2122   2126   2128     1  0.0000000  1.2552000  3
   2117   2116   2119   2139     1  0.0000000  0.6508444  3
   2117   2116   2119   2120     1  0.0000000  0.6508444  3
   2117   2116   2119   2121     1  0.0000000  0.6508444  3
   2117   2116   2122   2123     1  0.0000000  1.2552000  3
   2117   2116   2122   2126     1  0.0000000  1.2552000  3
   2118   2116   2119   2139     1  0.0000000  0.6508444  3
   2118   2116   2119   2120     1  0.0000000  0.6508444  3
   2118   2116   2119   2121     1  0.0000000  0.6508444  3
   2118   2116   2122   2123     1  0.0000000  1.2552000  3
   2118   2116   2122   2126     1  0.0000000  1.2552000  3
   2120   2119   2116   2122     1  0.0000000  0.6508444  3
   2120   2119   2139   2140     1  0.0000000  0.0000000  2
   2121   2119   2116   2122     1  0.0000000  0.6508444  3
   2121   2119   2139   2140     1  0.0000000  0.0000000  2
   2122   2123   2132   2133     1  0.0000000  0.6508444  3
   2122   2123   2132   2134     1  0.0000000  0.6508444  3
   2122   2126   2129   2130     1  0.0000000  0.6508444  3
   2122   2126   2129   2131     1  0.0000000  0.6508444  3
   2123   2122   2126   2127     1  0.0000000  1.2552000  3
   2123   2122   2126   2128     1  0.0000000  1.2552000  3
   2124   2123   2122   2126     1  0.0000000  1.2552000  3
   2124   2123   2132   2136     1  0.0000000  0.6508444  3
   2124   2123   2132   2133     1  0.0000000  0.6508444  3
   2124   2123   2132   2134     1  0.0000000  0.6508444  3
   2125   2123   2122   2126     1  0.0000000  1.2552000  3
   2125   2123   2132   2136     1  0.0000000  0.6508444  3
   2125   2123   2132   2133     1  0.0000000  0.6508444  3
   2125   2123   2132   2134     1  0.0000000  0.6508444  3
   2127   2126   2129   2135     1  0.0000000  0.6508444  3
   2127   2126   2129   2130     1  0.0000000  0.6508444  3
   2127   2126   2129   2131     1  0.0000000  0.6508444  3
   2128   2126   2129   2135     1  0.0000000  0.6508444  3
   2128   2126   2129   2130     1  0.0000000  0.6508444  3
   2128   2126   2129   2131     1  0.0000000  0.6508444  3
   2129   2135   6499   6500     1  180.0000771  10.4600000  2
   2130   2129   2135   6499     1  180.0000771  0.0000000  2
   2130   2129   2135   2137     1  0.0000000  3.3472000  1
   2130   2129   2135   2137     1  0.0000000  0.0000000  2
   2130   2129   2135   2137     1  180.0000771  0.3347200  3
   2131   2129   2135   6499     1  180.0000771  0.0000000  2
   2131   2129   2135   2137     1  0.0000000  3.3472000  1
   2131   2129   2135   2137     1  0.0000000  0.0000000  2
   2131   2129   2135   2137     1  180.0000771  0.3347200  3
   2132   2136   6572   6573     1  180.0000771  10.4600000  2
   2133   2132   2136   2138     1  0.0000000  3.3472000  1
   2133   2132   2136   2138     1  0.0000000  0.0000000  2
   2133   2132   2136   2138     1  180.0000771  0.3347200  3
   2133   2132   2136   6572     1  180.0000771  0.0000000  2
   2134   2132   2136   2138     1  0.0000000  3.3472000  1
   2134   2132   2136   2138     1  0.0000000  0.0000000  2
   2134   2132   2136   2138     1  180.0000771  0.3347200  3
   2134   2132   2136   6572     1  180.0000771  0.0000000  2
   2135   6499   6501   6502     1  0.0000000  0.0000000  2
   2135   6499   6501   6504     1  0.0000000  0.0000000  2
   2136   6572   6574   6575     1  0.0000000  0.0000000  2
   2136   6572   6574   6577     1  0.0000000  0.0000000  2
   2137   2135   6499   6500     1  0.0000000  8.3680000  1
   2137   2135   6499   6500     1  180.0000771  10.4600000  2
   2138   2136   6572   6573     1  0.0000000  8.3680000  1
   2138   2136   6572   6573     1  180.0000771  10.4600000  2
   2141   2144   2164   2165     1  0.0000000  0.0000000  2
   2141   2147   2148   2149     1  0.0000000  1.2552000  3
   2141   2147   2148   2150     1  0.0000000  1.2552000  3
   2141   2147   2151   2152     1  0.0000000  1.2552000  3
   2141   2147   2151   2153     1  0.0000000  1.2552000  3
   2142   2141   2144   2164     1  0.0000000  0.6508444  3
   2142   2141   2144   2145     1  0.0000000  0.6508444  3
   2142   2141   2144   2146     1  0.0000000  0.6508444  3
   2142   2141   2147   2148     1  0.0000000  1.2552000  3
   2142   2141   2147   2151     1  0.0000000  1.2552000  3
   2143   2141   2144   2164     1  0.0000000  0.6508444  3
   2143   2141   2144   2145     1  0.0000000  0.6508444  3
   2143   2141   2144   2146     1  0.0000000  0.6508444  3
   2143   2141   2147   2148     1  0.0000000  1.2552000  3
   2143   2141   2147   2151     1  0.0000000  1.2552000  3
   2145   2144   2141   2147     1  0.0000000  0.6508444  3
   2145   2144   2164   2165     1  0.0000000  0.0000000  2
   2146   2144   2141   2147     1  0.0000000  0.6508444  3
   2146   2144   2164   2165     1  0.0000000  0.0000000  2
   2147   2148   2157   2158     1  0.0000000  0.6508444  3
   2147   2148   2157   2159     1  0.0000000  0.6508444  3
   2147   2151   2154   2155     1  0.0000000  0.6508444  3
   2147   2151   2154   2156     1  0.0000000  0.6508444  3
   2148   2147   2151   2152     1  0.0000000  1.2552000  3
   2148   2147   2151   2153     1  0.0000000  1.2552000  3
   2149   2148   2147   2151     1  0.0000000  1.2552000  3
   2149   2148   2157   2161     1  0.0000000  0.6508444  3
   2149   2148   2157   2158     1  0.0000000  0.6508444  3
   2149   2148   2157   2159     1  0.0000000  0.6508444  3
   2150   2148   2147   2151     1  0.0000000  1.2552000  3
   2150   2148   2157   2161     1  0.0000000  0.6508444  3
   2150   2148   2157   2158     1  0.0000000  0.6508444  3
   2150   2148   2157   2159     1  0.0000000  0.6508444  3
   2152   2151   2154   2160     1  0.0000000  0.6508444  3
   2152   2151   2154   2155     1  0.0000000  0.6508444  3
   2152   2151   2154   2156     1  0.0000000  0.6508444  3
   2153   2151   2154   2160     1  0.0000000  0.6508444  3
   2153   2151   2154   2155     1  0.0000000  0.6508444  3
   2153   2151   2154   2156     1  0.0000000  0.6508444  3
   2154   2160   6645   6646     1  180.0000771  10.4600000  2
   2155   2154   2160   6645     1  180.0000771  0.0000000  2
   2155   2154   2160   2162     1  0.0000000  3.3472000  1
   2155   2154   2160   2162     1  0.0000000  0.0000000  2
   2155   2154   2160   2162     1  180.0000771  0.3347200  3
   2156   2154   2160   6645     1  180.0000771  0.0000000  2
   2156   2154   2160   2162     1  0.0000000  3.3472000  1
   2156   2154   2160   2162     1  0.0000000  0.0000000  2
   2156   2154   2160   2162     1  180.0000771  0.3347200  3
   2157   2161   6718   6719     1  180.0000771  10.4600000  2
   2158   2157   2161   2163     1  0.0000000  3.3472000  1
   2158   2157   2161   2163     1  0.0000000  0.0000000  2
   2158   2157   2161   2163     1  180.0000771  0.3347200  3
   2158   2157   2161   6718     1  180.0000771  0.0000000  2
   2159   2157   2161   2163     1  0.0000000  3.3472000  1
   2159   2157   2161   2163     1  0.0000000  0.0000000  2
   2159   2157   2161   2163     1  180.0000771  0.3347200  3
   2159   2157   2161   6718     1  180.0000771  0.0000000  2
   2160   6645   6647   6648     1  0.0000000  0.0000000  2
   2160   6645   6647   6650     1  0.0000000  0.0000000  2
   2161   6718   6720   6721     1  0.0000000  0.0000000  2
   2161   6718   6720   6723     1  0.0000000  0.0000000  2
   2162   2160   6645   6646     1  0.0000000  8.3680000  1
   2162   2160   6645   6646     1  180.0000771  10.4600000  2
   2163   2161   6718   6719     1  0.0000000  8.3680000  1
   2163   2161   6718   6719     1  180.0000771  10.4600000  2
   2166   2169   2189   2190     1  0.0000000  0.0000000  2
   2166   2172   2173   2174     1  0.0000000  1.2552000  3
   2166   2172   2173   2175     1  0.0000000  1.2552000  3
   2166   2172   2176   2177     1  0.0000000  1.2552000  3
   2166   2172   2176   2178     1  0.0000000  1.2552000  3
   2167   2166   2169   2189     1  0.0000000  0.6508444  3
   2167   2166   2169   2170     1  0.0000000  0.6508444  3
   2167   2166   2169   2171     1  0.0000000  0.6508444  3
   2167   2166   2172   2173     1  0.0000000  1.2552000  3
   2167   2166   2172   2176     1  0.0000000  1.2552000  3
   2168   2166   2169   2189     1  0.0000000  0.6508444  3
   2168   2166   2169   2170     1  0.0000000  0.6508444  3
   2168   2166   2169   2171     1  0.0000000  0.6508444  3
   2168   2166   2172   2173     1  0.0000000  1.2552000  3
   2168   2166   2172   2176     1  0.0000000  1.2552000  3
   2170   2169   2166   2172     1  0.0000000  0.6508444  3
   2170   2169   2189   2190     1  0.0000000  0.0000000  2
   2171   2169   2166   2172     1  0.0000000  0.6508444  3
   2171   2169   2189   2190     1  0.0000000  0.0000000  2
   2172   2173   2182   2183     1  0.0000000  0.6508444  3
   2172   2173   2182   2184     1  0.0000000  0.6508444  3
   2172   2176   2179   2180     1  0.0000000  0.6508444  3
   2172   2176   2179   2181     1  0.0000000  0.6508444  3
   2173   2172   2176   2177     1  0.0000000  1.2552000  3
   2173   2172   2176   2178     1  0.0000000  1.2552000  3
   2174   2173   2172   2176     1  0.0000000  1.2552000  3
   2174   2173   2182   2186     1  0.0000000  0.6508444  3
   2174   2173   2182   2183     1  0.0000000  0.6508444  3
   2174   2173   2182   2184     1  0.0000000  0.6508444  3
   2175   2173   2172   2176     1  0.0000000  1.2552000  3
   2175   2173   2182   2186     1  0.0000000  0.6508444  3
   2175   2173   2182   2183     1  0.0000000  0.6508444  3
   2175   2173   2182   2184     1  0.0000000  0.6508444  3
   2177   2176   2179   2185     1  0.0000000  0.6508444  3
   2177   2176   2179   2180     1  0.0000000  0.6508444  3
   2177   2176   2179   2181     1  0.0000000  0.6508444  3
   2178   2176   2179   2185     1  0.0000000  0.6508444  3
   2178   2176   2179   2180     1  0.0000000  0.6508444  3
   2178   2176   2179   2181     1  0.0000000  0.6508444  3
   2179   2185   6791   6792     1  180.0000771  10.4600000  2
   2180   2179   2185   6791     1  180.0000771  0.0000000  2
   2180   2179   2185   2187     1  0.0000000  3.3472000  1
   2180   2179   2185   2187     1  0.0000000  0.0000000  2
   2180   2179   2185   2187     1  180.0000771  0.3347200  3
   2181   2179   2185   6791     1  180.0000771  0.0000000  2
   2181   2179   2185   2187     1  0.0000000  3.3472000  1
   2181   2179   2185   2187     1  0.0000000  0.0000000  2
   2181   2179   2185   2187     1  180.0000771  0.3347200  3
   2182   2186   6864   6865     1  180.0000771  10.4600000  2
   2183   2182   2186   2188     1  0.0000000  3.3472000  1
   2183   2182   2186   2188     1  0.0000000  0.0000000  2
   2183   2182   2186   2188     1  180.0000771  0.3347200  3
   2183   2182   2186   6864     1  180.0000771  0.0000000  2
   2184   2182   2186   2188     1  0.0000000  3.3472000  1
   2184   2182   2186   2188     1  0.0000000  0.0000000  2
   2184   2182   2186   2188     1  180.0000771  0.3347200  3
   2184   2182   2186   6864     1  180.0000771  0.0000000  2
   2185   6791   6793   6794     1  0.0000000  0.0000000  2
   2185   6791   6793   6796     1  0.0000000  0.0000000  2
   2186   6864   6866   6867     1  0.0000000  0.0000000  2
   2186   6864   6866   6869     1  0.0000000  0.0000000  2
   2187   2185   6791   6792     1  0.0000000  8.3680000  1
   2187   2185   6791   6792     1  180.0000771  10.4600000  2
   2188   2186   6864   6865     1  0.0000000  8.3680000  1
   2188   2186   6864   6865     1  180.0000771  10.4600000  2
   2191   2194   2214   2215     1  0.0000000  0.0000000  2
   2191   2197   2198   2199     1  0.0000000  1.2552000  3
   2191   2197   2198   2200     1  0.0000000  1.2552000  3
   2191   2197   2201   2202     1  0.0000000  1.2552000  3
   2191   2197   2201   2203     1  0.0000000  1.2552000  3
   2192   2191   2194   2214     1  0.0000000  0.6508444  3
   2192   2191   2194   2195     1  0.0000000  0.6508444  3
   2192   2191   2194   2196     1  0.0000000  0.6508444  3
   2192   2191   2197   2198     1  0.0000000  1.2552000  3
   2192   2191   2197   2201     1  0.0000000  1.2552000  3
   2193   2191   2194   2214     1  0.0000000  0.6508444  3
   2193   2191   2194   2195     1  0.0000000  0.6508444  3
   2193   2191   2194   2196     1  0.0000000  0.6508444  3
   2193   2191   2197   2198     1  0.0000000  1.2552000  3
   2193   2191   2197   2201     1  0.0000000  1.2552000  3
   2195   2194   2191   2197     1  0.0000000  0.6508444  3
   2195   2194   2214   2215     1  0.0000000  0.0000000  2
   2196   2194   2191   2197     1  0.0000000  0.6508444  3
   2196   2194   2214   2215     1  0.0000000  0.0000000  2
   2197   2198   2207   2208     1  0.0000000  0.6508444  3
   2197   2198   2207   2209     1  0.0000000  0.6508444  3
   2197   2201   2204   2205     1  0.0000000  0.6508444  3
   2197   2201   2204   2206     1  0.0000000  0.6508444  3
   2198   2197   2201   2202     1  0.0000000  1.2552000  3
   2198   2197   2201   2203     1  0.0000000  1.2552000  3
   2199   2198   2197   2201     1  0.0000000  1.2552000  3
   2199   2198   2207   2211     1  0.0000000  0.6508444  3
   2199   2198   2207   2208     1  0.0000000  0.6508444  3
   2199   2198   2207   2209     1  0.0000000  0.6508444  3
   2200   2198   2197   2201     1  0.0000000  1.2552000  3
   2200   2198   2207   2211     1  0.0000000  0.6508444  3
   2200   2198   2207   2208     1  0.0000000  0.6508444  3
   2200   2198   2207   2209     1  0.0000000  0.6508444  3
   2202   2201   2204   2210     1  0.0000000  0.6508444  3
   2202   2201   2204   2205     1  0.0000000  0.6508444  3
   2202   2201   2204   2206     1  0.0000000  0.6508444  3
   2203   2201   2204   2210     1  0.0000000  0.6508444  3
   2203   2201   2204   2205     1  0.0000000  0.6508444  3
   2203   2201   2204   2206     1  0.0000000  0.6508444  3
   2204   2210   6937   6938     1  180.0000771  10.4600000  2
   2205   2204   2210   6937     1  180.0000771  0.0000000  2
   2205   2204   2210   2212     1  0.0000000  3.3472000  1
   2205   2204   2210   2212     1  0.0000000  0.0000000  2
   2205   2204   2210   2212     1  180.0000771  0.3347200  3
   2206   2204   2210   6937     1  180.0000771  0.0000000  2
   2206   2204   2210   2212     1  0.0000000  3.3472000  1
   2206   2204   2210   2212     1  0.0000000  0.0000000  2
   2206   2204   2210   2212     1  180.0000771  0.3347200  3
   2207   2211   7010   7011     1  180.0000771  10.4600000  2
   2208   2207   2211   2213     1  0.0000000  3.3472000  1
   2208   2207   2211   2213     1  0.0000000  0.0000000  2
   2208   2207   2211   2213     1  180.0000771  0.3347200  3
   2208   2207   2211   7010     1  180.0000771  0.0000000  2
   2209   2207   2211   2213     1  0.0000000  3.3472000  1
   2209   2207   2211   2213     1  0.0000000  0.0000000  2
   2209   2207   2211   2213     1  180.0000771  0.3347200  3
   2209   2207   2211   7010     1  180.0000771  0.0000000  2
   2210   6937   6939   6940     1  0.0000000  0.0000000  2
   2210   6937   6939   6942     1  0.0000000  0.0000000  2
   2211   7010   7012   7013     1  0.0000000  0.0000000  2
   2211   7010   7012   7015     1  0.0000000  0.0000000  2
   2212   2210   6937   6938     1  0.0000000  8.3680000  1
   2212   2210   6937   6938     1  180.0000771  10.4600000  2
   2213   2211   7010   7011     1  0.0000000  8.3680000  1
   2213   2211   7010   7011     1  180.0000771  10.4600000  2
   2216   2219   2239   2240     1  0.0000000  0.0000000  2
   2216   2222   2223   2224     1  0.0000000  1.2552000  3
   2216   2222   2223   2225     1  0.0000000  1.2552000  3
   2216   2222   2226   2227     1  0.0000000  1.2552000  3
   2216   2222   2226   2228     1  0.0000000  1.2552000  3
   2217   2216   2219   2239     1  0.0000000  0.6508444  3
   2217   2216   2219   2220     1  0.0000000  0.6508444  3
   2217   2216   2219   2221     1  0.0000000  0.6508444  3
   2217   2216   2222   2223     1  0.0000000  1.2552000  3
   2217   2216   2222   2226     1  0.0000000  1.2552000  3
   2218   2216   2219   2239     1  0.0000000  0.6508444  3
   2218   2216   2219   2220     1  0.0000000  0.6508444  3
   2218   2216   2219   2221     1  0.0000000  0.6508444  3
   2218   2216   2222   2223     1  0.0000000  1.2552000  3
   2218   2216   2222   2226     1  0.0000000  1.2552000  3
   2220   2219   2216   2222     1  0.0000000  0.6508444  3
   2220   2219   2239   2240     1  0.0000000  0.0000000  2
   2221   2219   2216   2222     1  0.0000000  0.6508444  3
   2221   2219   2239   2240     1  0.0000000  0.0000000  2
   2222   2223   2232   2233     1  0.0000000  0.6508444  3
   2222   2223   2232   2234     1  0.0000000  0.6508444  3
   2222   2226   2229   2230     1  0.0000000  0.6508444  3
   2222   2226   2229   2231     1  0.0000000  0.6508444  3
   2223   2222   2226   2227     1  0.0000000  1.2552000  3
   2223   2222   2226   2228     1  0.0000000  1.2552000  3
   2224   2223   2222   2226     1  0.0000000  1.2552000  3
   2224   2223   2232   2236     1  0.0000000  0.6508444  3
   2224   2223   2232   2233     1  0.0000000  0.6508444  3
   2224   2223   2232   2234     1  0.0000000  0.6508444  3
   2225   2223   2222   2226     1  0.0000000  1.2552000  3
   2225   2223   2232   2236     1  0.0000000  0.6508444  3
   2225   2223   2232   2233     1  0.0000000  0.6508444  3
   2225   2223   2232   2234     1  0.0000000  0.6508444  3
   2227   2226   2229   2235     1  0.0000000  0.6508444  3
   2227   2226   2229   2230     1  0.0000000  0.6508444  3
   2227   2226   2229   2231     1  0.0000000  0.6508444  3
   2228   2226   2229   2235     1  0.0000000  0.6508444  3
   2228   2226   2229   2230     1  0.0000000  0.6508444  3
   2228   2226   2229   2231     1  0.0000000  0.6508444  3
   2229   2235   7083   7084     1  180.0000771  10.4600000  2
   2230   2229   2235   7083     1  180.0000771  0.0000000  2
   2230   2229   2235   2237     1  0.0000000  3.3472000  1
   2230   2229   2235   2237     1  0.0000000  0.0000000  2
   2230   2229   2235   2237     1  180.0000771  0.3347200  3
   2231   2229   2235   7083     1  180.0000771  0.0000000  2
   2231   2229   2235   2237     1  0.0000000  3.3472000  1
   2231   2229   2235   2237     1  0.0000000  0.0000000  2
   2231   2229   2235   2237     1  180.0000771  0.3347200  3
   2232   2236   7156   7157     1  180.0000771  10.4600000  2
   2233   2232   2236   2238     1  0.0000000  3.3472000  1
   2233   2232   2236   2238     1  0.0000000  0.0000000  2
   2233   2232   2236   2238     1  180.0000771  0.3347200  3
   2233   2232   2236   7156     1  180.0000771  0.0000000  2
   2234   2232   2236   2238     1  0.0000000  3.3472000  1
   2234   2232   2236   2238     1  0.0000000  0.0000000  2
   2234   2232   2236   2238     1  180.0000771  0.3347200  3
   2234   2232   2236   7156     1  180.0000771  0.0000000  2
   2235   7083   7085   7086     1  0.0000000  0.0000000  2
   2235   7083   7085   7088     1  0.0000000  0.0000000  2
   2236   7156   7158   7159     1  0.0000000  0.0000000  2
   2236   7156   7158   7161     1  0.0000000  0.0000000  2
   2237   2235   7083   7084     1  0.0000000  8.3680000  1
   2237   2235   7083   7084     1  180.0000771  10.4600000  2
   2238   2236   7156   7157     1  0.0000000  8.3680000  1
   2238   2236   7156   7157     1  180.0000771  10.4600000  2
   2241   2244   2264   2265     1  0.0000000  0.0000000  2
   2241   2247   2248   2249     1  0.0000000  1.2552000  3
   2241   2247   2248   2250     1  0.0000000  1.2552000  3
   2241   2247   2251   2252     1  0.0000000  1.2552000  3
   2241   2247   2251   2253     1  0.0000000  1.2552000  3
   2242   2241   2244   2264     1  0.0000000  0.6508444  3
   2242   2241   2244   2245     1  0.0000000  0.6508444  3
   2242   2241   2244   2246     1  0.0000000  0.6508444  3
   2242   2241   2247   2248     1  0.0000000  1.2552000  3
   2242   2241   2247   2251     1  0.0000000  1.2552000  3
   2243   2241   2244   2264     1  0.0000000  0.6508444  3
   2243   2241   2244   2245     1  0.0000000  0.6508444  3
   2243   2241   2244   2246     1  0.0000000  0.6508444  3
   2243   2241   2247   2248     1  0.0000000  1.2552000  3
   2243   2241   2247   2251     1  0.0000000  1.2552000  3
   2245   2244   2241   2247     1  0.0000000  0.6508444  3
   2245   2244   2264   2265     1  0.0000000  0.0000000  2
   2246   2244   2241   2247     1  0.0000000  0.6508444  3
   2246   2244   2264   2265     1  0.0000000  0.0000000  2
   2247   2248   2257   2258     1  0.0000000  0.6508444  3
   2247   2248   2257   2259     1  0.0000000  0.6508444  3
   2247   2251   2254   2255     1  0.0000000  0.6508444  3
   2247   2251   2254   2256     1  0.0000000  0.6508444  3
   2248   2247   2251   2252     1  0.0000000  1.2552000  3
   2248   2247   2251   2253     1  0.0000000  1.2552000  3
   2249   2248   2247   2251     1  0.0000000  1.2552000  3
   2249   2248   2257   2261     1  0.0000000  0.6508444  3
   2249   2248   2257   2258     1  0.0000000  0.6508444  3
   2249   2248   2257   2259     1  0.0000000  0.6508444  3
   2250   2248   2247   2251     1  0.0000000  1.2552000  3
   2250   2248   2257   2261     1  0.0000000  0.6508444  3
   2250   2248   2257   2258     1  0.0000000  0.6508444  3
   2250   2248   2257   2259     1  0.0000000  0.6508444  3
   2252   2251   2254   2260     1  0.0000000  0.6508444  3
   2252   2251   2254   2255     1  0.0000000  0.6508444  3
   2252   2251   2254   2256     1  0.0000000  0.6508444  3
   2253   2251   2254   2260     1  0.0000000  0.6508444  3
   2253   2251   2254   2255     1  0.0000000  0.6508444  3
   2253   2251   2254   2256     1  0.0000000  0.6508444  3
   2254   2260   7229   7230     1  180.0000771  10.4600000  2
   2255   2254   2260   7229     1  180.0000771  0.0000000  2
   2255   2254   2260   2262     1  0.0000000  3.3472000  1
   2255   2254   2260   2262     1  0.0000000  0.0000000  2
   2255   2254   2260   2262     1  180.0000771  0.3347200  3
   2256   2254   2260   7229     1  180.0000771  0.0000000  2
   2256   2254   2260   2262     1  0.0000000  3.3472000  1
   2256   2254   2260   2262     1  0.0000000  0.0000000  2
   2256   2254   2260   2262     1  180.0000771  0.3347200  3
   2257   2261   7302   7303     1  180.0000771  10.4600000  2
   2258   2257   2261   2263     1  0.0000000  3.3472000  1
   2258   2257   2261   2263     1  0.0000000  0.0000000  2
   2258   2257   2261   2263     1  180.0000771  0.3347200  3
   2258   2257   2261   7302     1  180.0000771  0.0000000  2
   2259   2257   2261   2263     1  0.0000000  3.3472000  1
   2259   2257   2261   2263     1  0.0000000  0.0000000  2
   2259   2257   2261   2263     1  180.0000771  0.3347200  3
   2259   2257   2261   7302     1  180.0000771  0.0000000  2
   2260   7229   7231   7232     1  0.0000000  0.0000000  2
   2260   7229   7231   7234     1  0.0000000  0.0000000  2
   2261   7302   7304   7305     1  0.0000000  0.0000000  2
   2261   7302   7304   7307     1  0.0000000  0.0000000  2
   2262   2260   7229   7230     1  0.0000000  8.3680000  1
   2262   2260   7229   7230     1  180.0000771  10.4600000  2
   2263   2261   7302   7303     1  0.0000000  8.3680000  1
   2263   2261   7302   7303     1  180.0000771  10.4600000  2
   2266   2269   2289   2290     1  0.0000000  0.0000000  2
   2266   2272   2273   2274     1  0.0000000  1.2552000  3
   2266   2272   2273   2275     1  0.0000000  1.2552000  3
   2266   2272   2276   2277     1  0.0000000  1.2552000  3
   2266   2272   2276   2278     1  0.0000000  1.2552000  3
   2267   2266   2269   2289     1  0.0000000  0.6508444  3
   2267   2266   2269   2270     1  0.0000000  0.6508444  3
   2267   2266   2269   2271     1  0.0000000  0.6508444  3
   2267   2266   2272   2273     1  0.0000000  1.2552000  3
   2267   2266   2272   2276     1  0.0000000  1.2552000  3
   2268   2266   2269   2289     1  0.0000000  0.6508444  3
   2268   2266   2269   2270     1  0.0000000  0.6508444  3
   2268   2266   2269   2271     1  0.0000000  0.6508444  3
   2268   2266   2272   2273     1  0.0000000  1.2552000  3
   2268   2266   2272   2276     1  0.0000000  1.2552000  3
   2270   2269   2266   2272     1  0.0000000  0.6508444  3
   2270   2269   2289   2290     1  0.0000000  0.0000000  2
   2271   2269   2266   2272     1  0.0000000  0.6508444  3
   2271   2269   2289   2290     1  0.0000000  0.0000000  2
   2272   2273   2282   2283     1  0.0000000  0.6508444  3
   2272   2273   2282   2284     1  0.0000000  0.6508444  3
   2272   2276   2279   2280     1  0.0000000  0.6508444  3
   2272   2276   2279   2281     1  0.0000000  0.6508444  3
   2273   2272   2276   2277     1  0.0000000  1.2552000  3
   2273   2272   2276   2278     1  0.0000000  1.2552000  3
   2274   2273   2272   2276     1  0.0000000  1.2552000  3
   2274   2273   2282   2286     1  0.0000000  0.6508444  3
   2274   2273   2282   2283     1  0.0000000  0.6508444  3
   2274   2273   2282   2284     1  0.0000000  0.6508444  3
   2275   2273   2272   2276     1  0.0000000  1.2552000  3
   2275   2273   2282   2286     1  0.0000000  0.6508444  3
   2275   2273   2282   2283     1  0.0000000  0.6508444  3
   2275   2273   2282   2284     1  0.0000000  0.6508444  3
   2277   2276   2279   2285     1  0.0000000  0.6508444  3
   2277   2276   2279   2280     1  0.0000000  0.6508444  3
   2277   2276   2279   2281     1  0.0000000  0.6508444  3
   2278   2276   2279   2285     1  0.0000000  0.6508444  3
   2278   2276   2279   2280     1  0.0000000  0.6508444  3
   2278   2276   2279   2281     1  0.0000000  0.6508444  3
   2279   2285   7375   7376     1  180.0000771  10.4600000  2
   2280   2279   2285   7375     1  180.0000771  0.0000000  2
   2280   2279   2285   2287     1  0.0000000  3.3472000  1
   2280   2279   2285   2287     1  0.0000000  0.0000000  2
   2280   2279   2285   2287     1  180.0000771  0.3347200  3
   2281   2279   2285   7375     1  180.0000771  0.0000000  2
   2281   2279   2285   2287     1  0.0000000  3.3472000  1
   2281   2279   2285   2287     1  0.0000000  0.0000000  2
   2281   2279   2285   2287     1  180.0000771  0.3347200  3
   2282   2286   7448   7449     1  180.0000771  10.4600000  2
   2283   2282   2286   2288     1  0.0000000  3.3472000  1
   2283   2282   2286   2288     1  0.0000000  0.0000000  2
   2283   2282   2286   2288     1  180.0000771  0.3347200  3
   2283   2282   2286   7448     1  180.0000771  0.0000000  2
   2284   2282   2286   2288     1  0.0000000  3.3472000  1
   2284   2282   2286   2288     1  0.0000000  0.0000000  2
   2284   2282   2286   2288     1  180.0000771  0.3347200  3
   2284   2282   2286   7448     1  180.0000771  0.0000000  2
   2285   7375   7377   7378     1  0.0000000  0.0000000  2
   2285   7375   7377   7380     1  0.0000000  0.0000000  2
   2286   7448   7450   7451     1  0.0000000  0.0000000  2
   2286   7448   7450   7453     1  0.0000000  0.0000000  2
   2287   2285   7375   7376     1  0.0000000  8.3680000  1
   2287   2285   7375   7376     1  180.0000771  10.4600000  2
   2288   2286   7448   7449     1  0.0000000  8.3680000  1
   2288   2286   7448   7449     1  180.0000771  10.4600000  2
   2291   2294   2314   2315     1  0.0000000  0.0000000  2
   2291   2297   2298   2299     1  0.0000000  1.2552000  3
   2291   2297   2298   2300     1  0.0000000  1.2552000  3
   2291   2297   2301   2302     1  0.0000000  1.2552000  3
   2291   2297   2301   2303     1  0.0000000  1.2552000  3
   2292   2291   2294   2314     1  0.0000000  0.6508444  3
   2292   2291   2294   2295     1  0.0000000  0.6508444  3
   2292   2291   2294   2296     1  0.0000000  0.6508444  3
   2292   2291   2297   2298     1  0.0000000  1.2552000  3
   2292   2291   2297   2301     1  0.0000000  1.2552000  3
   2293   2291   2294   2314     1  0.0000000  0.6508444  3
   2293   2291   2294   2295     1  0.0000000  0.6508444  3
   2293   2291   2294   2296     1  0.0000000  0.6508444  3
   2293   2291   2297   2298     1  0.0000000  1.2552000  3
   2293   2291   2297   2301     1  0.0000000  1.2552000  3
   2295   2294   2291   2297     1  0.0000000  0.6508444  3
   2295   2294   2314   2315     1  0.0000000  0.0000000  2
   2296   2294   2291   2297     1  0.0000000  0.6508444  3
   2296   2294   2314   2315     1  0.0000000  0.0000000  2
   2297   2298   2307   2308     1  0.0000000  0.6508444  3
   2297   2298   2307   2309     1  0.0000000  0.6508444  3
   2297   2301   2304   2305     1  0.0000000  0.6508444  3
   2297   2301   2304   2306     1  0.0000000  0.6508444  3
   2298   2297   2301   2302     1  0.0000000  1.2552000  3
   2298   2297   2301   2303     1  0.0000000  1.2552000  3
   2299   2298   2297   2301     1  0.0000000  1.2552000  3
   2299   2298   2307   2311     1  0.0000000  0.6508444  3
   2299   2298   2307   2308     1  0.0000000  0.6508444  3
   2299   2298   2307   2309     1  0.0000000  0.6508444  3
   2300   2298   2297   2301     1  0.0000000  1.2552000  3
   2300   2298   2307   2311     1  0.0000000  0.6508444  3
   2300   2298   2307   2308     1  0.0000000  0.6508444  3
   2300   2298   2307   2309     1  0.0000000  0.6508444  3
   2302   2301   2304   2310     1  0.0000000  0.6508444  3
   2302   2301   2304   2305     1  0.0000000  0.6508444  3
   2302   2301   2304   2306     1  0.0000000  0.6508444  3
   2303   2301   2304   2310     1  0.0000000  0.6508444  3
   2303   2301   2304   2305     1  0.0000000  0.6508444  3
   2303   2301   2304   2306     1  0.0000000  0.6508444  3
   2304   2310   7521   7522     1  180.0000771  10.4600000  2
   2305   2304   2310   7521     1  180.0000771  0.0000000  2
   2305   2304   2310   2312     1  0.0000000  3.3472000  1
   2305   2304   2310   2312     1  0.0000000  0.0000000  2
   2305   2304   2310   2312     1  180.0000771  0.3347200  3
   2306   2304   2310   7521     1  180.0000771  0.0000000  2
   2306   2304   2310   2312     1  0.0000000  3.3472000  1
   2306   2304   2310   2312     1  0.0000000  0.0000000  2
   2306   2304   2310   2312     1  180.0000771  0.3347200  3
   2307   2311   7594   7595     1  180.0000771  10.4600000  2
   2308   2307   2311   2313     1  0.0000000  3.3472000  1
   2308   2307   2311   2313     1  0.0000000  0.0000000  2
   2308   2307   2311   2313     1  180.0000771  0.3347200  3
   2308   2307   2311   7594     1  180.0000771  0.0000000  2
   2309   2307   2311   2313     1  0.0000000  3.3472000  1
   2309   2307   2311   2313     1  0.0000000  0.0000000  2
   2309   2307   2311   2313     1  180.0000771  0.3347200  3
   2309   2307   2311   7594     1  180.0000771  0.0000000  2
   2310   7521   7523   7524     1  0.0000000  0.0000000  2
   2310   7521   7523   7526     1  0.0000000  0.0000000  2
   2311   7594   7596   7597     1  0.0000000  0.0000000  2
   2311   7594   7596   7599     1  0.0000000  0.0000000  2
   2312   2310   7521   7522     1  0.0000000  8.3680000  1
   2312   2310   7521   7522     1  180.0000771  10.4600000  2
   2313   2311   7594   7595     1  0.0000000  8.3680000  1
   2313   2311   7594   7595     1  180.0000771  10.4600000  2
   2316   2319   2339   2340     1  0.0000000  0.0000000  2
   2316   2322   2323   2324     1  0.0000000  1.2552000  3
   2316   2322   2323   2325     1  0.0000000  1.2552000  3
   2316   2322   2326   2327     1  0.0000000  1.2552000  3
   2316   2322   2326   2328     1  0.0000000  1.2552000  3
   2317   2316   2319   2339     1  0.0000000  0.6508444  3
   2317   2316   2319   2320     1  0.0000000  0.6508444  3
   2317   2316   2319   2321     1  0.0000000  0.6508444  3
   2317   2316   2322   2323     1  0.0000000  1.2552000  3
   2317   2316   2322   2326     1  0.0000000  1.2552000  3
   2318   2316   2319   2339     1  0.0000000  0.6508444  3
   2318   2316   2319   2320     1  0.0000000  0.6508444  3
   2318   2316   2319   2321     1  0.0000000  0.6508444  3
   2318   2316   2322   2323     1  0.0000000  1.2552000  3
   2318   2316   2322   2326     1  0.0000000  1.2552000  3
   2320   2319   2316   2322     1  0.0000000  0.6508444  3
   2320   2319   2339   2340     1  0.0000000  0.0000000  2
   2321   2319   2316   2322     1  0.0000000  0.6508444  3
   2321   2319   2339   2340     1  0.0000000  0.0000000  2
   2322   2323   2332   2333     1  0.0000000  0.6508444  3
   2322   2323   2332   2334     1  0.0000000  0.6508444  3
   2322   2326   2329   2330     1  0.0000000  0.6508444  3
   2322   2326   2329   2331     1  0.0000000  0.6508444  3
   2323   2322   2326   2327     1  0.0000000  1.2552000  3
   2323   2322   2326   2328     1  0.0000000  1.2552000  3
   2324   2323   2322   2326     1  0.0000000  1.2552000  3
   2324   2323   2332   2336     1  0.0000000  0.6508444  3
   2324   2323   2332   2333     1  0.0000000  0.6508444  3
   2324   2323   2332   2334     1  0.0000000  0.6508444  3
   2325   2323   2322   2326     1  0.0000000  1.2552000  3
   2325   2323   2332   2336     1  0.0000000  0.6508444  3
   2325   2323   2332   2333     1  0.0000000  0.6508444  3
   2325   2323   2332   2334     1  0.0000000  0.6508444  3
   2327   2326   2329   2335     1  0.0000000  0.6508444  3
   2327   2326   2329   2330     1  0.0000000  0.6508444  3
   2327   2326   2329   2331     1  0.0000000  0.6508444  3
   2328   2326   2329   2335     1  0.0000000  0.6508444  3
   2328   2326   2329   2330     1  0.0000000  0.6508444  3
   2328   2326   2329   2331     1  0.0000000  0.6508444  3
   2329   2335   7667   7668     1  180.0000771  10.4600000  2
   2330   2329   2335   7667     1  180.0000771  0.0000000  2
   2330   2329   2335   2337     1  0.0000000  3.3472000  1
   2330   2329   2335   2337     1  0.0000000  0.0000000  2
   2330   2329   2335   2337     1  180.0000771  0.3347200  3
   2331   2329   2335   7667     1  180.0000771  0.0000000  2
   2331   2329   2335   2337     1  0.0000000  3.3472000  1
   2331   2329   2335   2337     1  0.0000000  0.0000000  2
   2331   2329   2335   2337     1  180.0000771  0.3347200  3
   2332   2336   7740   7741     1  180.0000771  10.4600000  2
   2333   2332   2336   2338     1  0.0000000  3.3472000  1
   2333   2332   2336   2338     1  0.0000000  0.0000000  2
   2333   2332   2336   2338     1  180.0000771  0.3347200  3
   2333   2332   2336   7740     1  180.0000771  0.0000000  2
   2334   2332   2336   2338     1  0.0000000  3.3472000  1
   2334   2332   2336   2338     1  0.0000000  0.0000000  2
   2334   2332   2336   2338     1  180.0000771  0.3347200  3
   2334   2332   2336   7740     1  180.0000771  0.0000000  2
   2335   7667   7669   7670     1  0.0000000  0.0000000  2
   2335   7667   7669   7672     1  0.0000000  0.0000000  2
   2336   7740   7742   7743     1  0.0000000  0.0000000  2
   2336   7740   7742   7745     1  0.0000000  0.0000000  2
   2337   2335   7667   7668     1  0.0000000  8.3680000  1
   2337   2335   7667   7668     1  180.0000771  10.4600000  2
   2338   2336   7740   7741     1  0.0000000  8.3680000  1
   2338   2336   7740   7741     1  180.0000771  10.4600000  2
   2341   2344   2364   2365     1  0.0000000  0.0000000  2
   2341   2347   2348   2349     1  0.0000000  1.2552000  3
   2341   2347   2348   2350     1  0.0000000  1.2552000  3
   2341   2347   2351   2352     1  0.0000000  1.2552000  3
   2341   2347   2351   2353     1  0.0000000  1.2552000  3
   2342   2341   2344   2364     1  0.0000000  0.6508444  3
   2342   2341   2344   2345     1  0.0000000  0.6508444  3
   2342   2341   2344   2346     1  0.0000000  0.6508444  3
   2342   2341   2347   2348     1  0.0000000  1.2552000  3
   2342   2341   2347   2351     1  0.0000000  1.2552000  3
   2343   2341   2344   2364     1  0.0000000  0.6508444  3
   2343   2341   2344   2345     1  0.0000000  0.6508444  3
   2343   2341   2344   2346     1  0.0000000  0.6508444  3
   2343   2341   2347   2348     1  0.0000000  1.2552000  3
   2343   2341   2347   2351     1  0.0000000  1.2552000  3
   2345   2344   2341   2347     1  0.0000000  0.6508444  3
   2345   2344   2364   2365     1  0.0000000  0.0000000  2
   2346   2344   2341   2347     1  0.0000000  0.6508444  3
   2346   2344   2364   2365     1  0.0000000  0.0000000  2
   2347   2348   2357   2358     1  0.0000000  0.6508444  3
   2347   2348   2357   2359     1  0.0000000  0.6508444  3
   2347   2351   2354   2355     1  0.0000000  0.6508444  3
   2347   2351   2354   2356     1  0.0000000  0.6508444  3
   2348   2347   2351   2352     1  0.0000000  1.2552000  3
   2348   2347   2351   2353     1  0.0000000  1.2552000  3
   2349   2348   2347   2351     1  0.0000000  1.2552000  3
   2349   2348   2357   2361     1  0.0000000  0.6508444  3
   2349   2348   2357   2358     1  0.0000000  0.6508444  3
   2349   2348   2357   2359     1  0.0000000  0.6508444  3
   2350   2348   2347   2351     1  0.0000000  1.2552000  3
   2350   2348   2357   2361     1  0.0000000  0.6508444  3
   2350   2348   2357   2358     1  0.0000000  0.6508444  3
   2350   2348   2357   2359     1  0.0000000  0.6508444  3
   2352   2351   2354   2360     1  0.0000000  0.6508444  3
   2352   2351   2354   2355     1  0.0000000  0.6508444  3
   2352   2351   2354   2356     1  0.0000000  0.6508444  3
   2353   2351   2354   2360     1  0.0000000  0.6508444  3
   2353   2351   2354   2355     1  0.0000000  0.6508444  3
   2353   2351   2354   2356     1  0.0000000  0.6508444  3
   2354   2360   7813   7814     1  180.0000771  10.4600000  2
   2355   2354   2360   7813     1  180.0000771  0.0000000  2
   2355   2354   2360   2362     1  0.0000000  3.3472000  1
   2355   2354   2360   2362     1  0.0000000  0.0000000  2
   2355   2354   2360   2362     1  180.0000771  0.3347200  3
   2356   2354   2360   7813     1  180.0000771  0.0000000  2
   2356   2354   2360   2362     1  0.0000000  3.3472000  1
   2356   2354   2360   2362     1  0.0000000  0.0000000  2
   2356   2354   2360   2362     1  180.0000771  0.3347200  3
   2357   2361   7886   7887     1  180.0000771  10.4600000  2
   2358   2357   2361   2363     1  0.0000000  3.3472000  1
   2358   2357   2361   2363     1  0.0000000  0.0000000  2
   2358   2357   2361   2363     1  180.0000771  0.3347200  3
   2358   2357   2361   7886     1  180.0000771  0.0000000  2
   2359   2357   2361   2363     1  0.0000000  3.3472000  1
   2359   2357   2361   2363     1  0.0000000  0.0000000  2
   2359   2357   2361   2363     1  180.0000771  0.3347200  3
   2359   2357   2361   7886     1  180.0000771  0.0000000  2
   2360   7813   7815   7816     1  0.0000000  0.0000000  2
   2360   7813   7815   7818     1  0.0000000  0.0000000  2
   2361   7886   7888   7889     1  0.0000000  0.0000000  2
   2361   7886   7888   7891     1  0.0000000  0.0000000  2
   2362   2360   7813   7814     1  0.0000000  8.3680000  1
   2362   2360   7813   7814     1  180.0000771  10.4600000  2
   2363   2361   7886   7887     1  0.0000000  8.3680000  1
   2363   2361   7886   7887     1  180.0000771  10.4600000  2
   2366   2369   2389   2390     1  0.0000000  0.0000000  2
   2366   2372   2373   2374     1  0.0000000  1.2552000  3
   2366   2372   2373   2375     1  0.0000000  1.2552000  3
   2366   2372   2376   2377     1  0.0000000  1.2552000  3
   2366   2372   2376   2378     1  0.0000000  1.2552000  3
   2367   2366   2369   2389     1  0.0000000  0.6508444  3
   2367   2366   2369   2370     1  0.0000000  0.6508444  3
   2367   2366   2369   2371     1  0.0000000  0.6508444  3
   2367   2366   2372   2373     1  0.0000000  1.2552000  3
   2367   2366   2372   2376     1  0.0000000  1.2552000  3
   2368   2366   2369   2389     1  0.0000000  0.6508444  3
   2368   2366   2369   2370     1  0.0000000  0.6508444  3
   2368   2366   2369   2371     1  0.0000000  0.6508444  3
   2368   2366   2372   2373     1  0.0000000  1.2552000  3
   2368   2366   2372   2376     1  0.0000000  1.2552000  3
   2370   2369   2366   2372     1  0.0000000  0.6508444  3
   2370   2369   2389   2390     1  0.0000000  0.0000000  2
   2371   2369   2366   2372     1  0.0000000  0.6508444  3
   2371   2369   2389   2390     1  0.0000000  0.0000000  2
   2372   2373   2382   2383     1  0.0000000  0.6508444  3
   2372   2373   2382   2384     1  0.0000000  0.6508444  3
   2372   2376   2379   2380     1  0.0000000  0.6508444  3
   2372   2376   2379   2381     1  0.0000000  0.6508444  3
   2373   2372   2376   2377     1  0.0000000  1.2552000  3
   2373   2372   2376   2378     1  0.0000000  1.2552000  3
   2374   2373   2372   2376     1  0.0000000  1.2552000  3
   2374   2373   2382   2386     1  0.0000000  0.6508444  3
   2374   2373   2382   2383     1  0.0000000  0.6508444  3
   2374   2373   2382   2384     1  0.0000000  0.6508444  3
   2375   2373   2372   2376     1  0.0000000  1.2552000  3
   2375   2373   2382   2386     1  0.0000000  0.6508444  3
   2375   2373   2382   2383     1  0.0000000  0.6508444  3
   2375   2373   2382   2384     1  0.0000000  0.6508444  3
   2377   2376   2379   2385     1  0.0000000  0.6508444  3
   2377   2376   2379   2380     1  0.0000000  0.6508444  3
   2377   2376   2379   2381     1  0.0000000  0.6508444  3
   2378   2376   2379   2385     1  0.0000000  0.6508444  3
   2378   2376   2379   2380     1  0.0000000  0.6508444  3
   2378   2376   2379   2381     1  0.0000000  0.6508444  3
   2379   2385   7959   7960     1  180.0000771  10.4600000  2
   2380   2379   2385   7959     1  180.0000771  0.0000000  2
   2380   2379   2385   2387     1  0.0000000  3.3472000  1
   2380   2379   2385   2387     1  0.0000000  0.0000000  2
   2380   2379   2385   2387     1  180.0000771  0.3347200  3
   2381   2379   2385   7959     1  180.0000771  0.0000000  2
   2381   2379   2385   2387     1  0.0000000  3.3472000  1
   2381   2379   2385   2387     1  0.0000000  0.0000000  2
   2381   2379   2385   2387     1  180.0000771  0.3347200  3
   2382   2386   8032   8033     1  180.0000771  10.4600000  2
   2383   2382   2386   2388     1  0.0000000  3.3472000  1
   2383   2382   2386   2388     1  0.0000000  0.0000000  2
   2383   2382   2386   2388     1  180.0000771  0.3347200  3
   2383   2382   2386   8032     1  180.0000771  0.0000000  2
   2384   2382   2386   2388     1  0.0000000  3.3472000  1
   2384   2382   2386   2388     1  0.0000000  0.0000000  2
   2384   2382   2386   2388     1  180.0000771  0.3347200  3
   2384   2382   2386   8032     1  180.0000771  0.0000000  2
   2385   7959   7961   7962     1  0.0000000  0.0000000  2
   2385   7959   7961   7964     1  0.0000000  0.0000000  2
   2386   8032   8034   8035     1  0.0000000  0.0000000  2
   2386   8032   8034   8037     1  0.0000000  0.0000000  2
   2387   2385   7959   7960     1  0.0000000  8.3680000  1
   2387   2385   7959   7960     1  180.0000771  10.4600000  2
   2388   2386   8032   8033     1  0.0000000  8.3680000  1
   2388   2386   8032   8033     1  180.0000771  10.4600000  2
   2391   2394   2414   2415     1  0.0000000  0.0000000  2
   2391   2397   2398   2399     1  0.0000000  1.2552000  3
   2391   2397   2398   2400     1  0.0000000  1.2552000  3
   2391   2397   2401   2402     1  0.0000000  1.2552000  3
   2391   2397   2401   2403     1  0.0000000  1.2552000  3
   2392   2391   2394   2414     1  0.0000000  0.6508444  3
   2392   2391   2394   2395     1  0.0000000  0.6508444  3
   2392   2391   2394   2396     1  0.0000000  0.6508444  3
   2392   2391   2397   2398     1  0.0000000  1.2552000  3
   2392   2391   2397   2401     1  0.0000000  1.2552000  3
   2393   2391   2394   2414     1  0.0000000  0.6508444  3
   2393   2391   2394   2395     1  0.0000000  0.6508444  3
   2393   2391   2394   2396     1  0.0000000  0.6508444  3
   2393   2391   2397   2398     1  0.0000000  1.2552000  3
   2393   2391   2397   2401     1  0.0000000  1.2552000  3
   2395   2394   2391   2397     1  0.0000000  0.6508444  3
   2395   2394   2414   2415     1  0.0000000  0.0000000  2
   2396   2394   2391   2397     1  0.0000000  0.6508444  3
   2396   2394   2414   2415     1  0.0000000  0.0000000  2
   2397   2398   2407   2408     1  0.0000000  0.6508444  3
   2397   2398   2407   2409     1  0.0000000  0.6508444  3
   2397   2401   2404   2405     1  0.0000000  0.6508444  3
   2397   2401   2404   2406     1  0.0000000  0.6508444  3
   2398   2397   2401   2402     1  0.0000000  1.2552000  3
   2398   2397   2401   2403     1  0.0000000  1.2552000  3
   2399   2398   2397   2401     1  0.0000000  1.2552000  3
   2399   2398   2407   2411     1  0.0000000  0.6508444  3
   2399   2398   2407   2408     1  0.0000000  0.6508444  3
   2399   2398   2407   2409     1  0.0000000  0.6508444  3
   2400   2398   2397   2401     1  0.0000000  1.2552000  3
   2400   2398   2407   2411     1  0.0000000  0.6508444  3
   2400   2398   2407   2408     1  0.0000000  0.6508444  3
   2400   2398   2407   2409     1  0.0000000  0.6508444  3
   2402   2401   2404   2410     1  0.0000000  0.6508444  3
   2402   2401   2404   2405     1  0.0000000  0.6508444  3
   2402   2401   2404   2406     1  0.0000000  0.6508444  3
   2403   2401   2404   2410     1  0.0000000  0.6508444  3
   2403   2401   2404   2405     1  0.0000000  0.6508444  3
   2403   2401   2404   2406     1  0.0000000  0.6508444  3
   2404   2410   8105   8106     1  180.0000771  10.4600000  2
   2405   2404   2410   8105     1  180.0000771  0.0000000  2
   2405   2404   2410   2412     1  0.0000000  3.3472000  1
   2405   2404   2410   2412     1  0.0000000  0.0000000  2
   2405   2404   2410   2412     1  180.0000771  0.3347200  3
   2406   2404   2410   8105     1  180.0000771  0.0000000  2
   2406   2404   2410   2412     1  0.0000000  3.3472000  1
   2406   2404   2410   2412     1  0.0000000  0.0000000  2
   2406   2404   2410   2412     1  180.0000771  0.3347200  3
   2407   2411   8178   8179     1  180.0000771  10.4600000  2
   2408   2407   2411   2413     1  0.0000000  3.3472000  1
   2408   2407   2411   2413     1  0.0000000  0.0000000  2
   2408   2407   2411   2413     1  180.0000771  0.3347200  3
   2408   2407   2411   8178     1  180.0000771  0.0000000  2
   2409   2407   2411   2413     1  0.0000000  3.3472000  1
   2409   2407   2411   2413     1  0.0000000  0.0000000  2
   2409   2407   2411   2413     1  180.0000771  0.3347200  3
   2409   2407   2411   8178     1  180.0000771  0.0000000  2
   2410   8105   8107   8108     1  0.0000000  0.0000000  2
   2410   8105   8107   8110     1  0.0000000  0.0000000  2
   2411   8178   8180   8181     1  0.0000000  0.0000000  2
   2411   8178   8180   8183     1  0.0000000  0.0000000  2
   2412   2410   8105   8106     1  0.0000000  8.3680000  1
   2412   2410   8105   8106     1  180.0000771  10.4600000  2
   2413   2411   8178   8179     1  0.0000000  8.3680000  1
   2413   2411   8178   8179     1  180.0000771  10.4600000  2
   2416   2419   2439   2440     1  0.0000000  0.0000000  2
   2416   2422   2423   2424     1  0.0000000  1.2552000  3
   2416   2422   2423   2425     1  0.0000000  1.2552000  3
   2416   2422   2426   2427     1  0.0000000  1.2552000  3
   2416   2422   2426   2428     1  0.0000000  1.2552000  3
   2417   2416   2419   2439     1  0.0000000  0.6508444  3
   2417   2416   2419   2420     1  0.0000000  0.6508444  3
   2417   2416   2419   2421     1  0.0000000  0.6508444  3
   2417   2416   2422   2423     1  0.0000000  1.2552000  3
   2417   2416   2422   2426     1  0.0000000  1.2552000  3
   2418   2416   2419   2439     1  0.0000000  0.6508444  3
   2418   2416   2419   2420     1  0.0000000  0.6508444  3
   2418   2416   2419   2421     1  0.0000000  0.6508444  3
   2418   2416   2422   2423     1  0.0000000  1.2552000  3
   2418   2416   2422   2426     1  0.0000000  1.2552000  3
   2420   2419   2416   2422     1  0.0000000  0.6508444  3
   2420   2419   2439   2440     1  0.0000000  0.0000000  2
   2421   2419   2416   2422     1  0.0000000  0.6508444  3
   2421   2419   2439   2440     1  0.0000000  0.0000000  2
   2422   2423   2432   2433     1  0.0000000  0.6508444  3
   2422   2423   2432   2434     1  0.0000000  0.6508444  3
   2422   2426   2429   2430     1  0.0000000  0.6508444  3
   2422   2426   2429   2431     1  0.0000000  0.6508444  3
   2423   2422   2426   2427     1  0.0000000  1.2552000  3
   2423   2422   2426   2428     1  0.0000000  1.2552000  3
   2424   2423   2422   2426     1  0.0000000  1.2552000  3
   2424   2423   2432   2436     1  0.0000000  0.6508444  3
   2424   2423   2432   2433     1  0.0000000  0.6508444  3
   2424   2423   2432   2434     1  0.0000000  0.6508444  3
   2425   2423   2422   2426     1  0.0000000  1.2552000  3
   2425   2423   2432   2436     1  0.0000000  0.6508444  3
   2425   2423   2432   2433     1  0.0000000  0.6508444  3
   2425   2423   2432   2434     1  0.0000000  0.6508444  3
   2427   2426   2429   2435     1  0.0000000  0.6508444  3
   2427   2426   2429   2430     1  0.0000000  0.6508444  3
   2427   2426   2429   2431     1  0.0000000  0.6508444  3
   2428   2426   2429   2435     1  0.0000000  0.6508444  3
   2428   2426   2429   2430     1  0.0000000  0.6508444  3
   2428   2426   2429   2431     1  0.0000000  0.6508444  3
   2429   2435   8251   8252     1  180.0000771  10.4600000  2
   2430   2429   2435   8251     1  180.0000771  0.0000000  2
   2430   2429   2435   2437     1  0.0000000  3.3472000  1
   2430   2429   2435   2437     1  0.0000000  0.0000000  2
   2430   2429   2435   2437     1  180.0000771  0.3347200  3
   2431   2429   2435   8251     1  180.0000771  0.0000000  2
   2431   2429   2435   2437     1  0.0000000  3.3472000  1
   2431   2429   2435   2437     1  0.0000000  0.0000000  2
   2431   2429   2435   2437     1  180.0000771  0.3347200  3
   2432   2436   8324   8325     1  180.0000771  10.4600000  2
   2433   2432   2436   2438     1  0.0000000  3.3472000  1
   2433   2432   2436   2438     1  0.0000000  0.0000000  2
   2433   2432   2436   2438     1  180.0000771  0.3347200  3
   2433   2432   2436   8324     1  180.0000771  0.0000000  2
   2434   2432   2436   2438     1  0.0000000  3.3472000  1
   2434   2432   2436   2438     1  0.0000000  0.0000000  2
   2434   2432   2436   2438     1  180.0000771  0.3347200  3
   2434   2432   2436   8324     1  180.0000771  0.0000000  2
   2435   8251   8253   8254     1  0.0000000  0.0000000  2
   2435   8251   8253   8256     1  0.0000000  0.0000000  2
   2436   8324   8326   8327     1  0.0000000  0.0000000  2
   2436   8324   8326   8329     1  0.0000000  0.0000000  2
   2437   2435   8251   8252     1  0.0000000  8.3680000  1
   2437   2435   8251   8252     1  180.0000771  10.4600000  2
   2438   2436   8324   8325     1  0.0000000  8.3680000  1
   2438   2436   8324   8325     1  180.0000771  10.4600000  2
   2441   2444   2464   2465     1  0.0000000  0.0000000  2
   2441   2447   2448   2449     1  0.0000000  1.2552000  3
   2441   2447   2448   2450     1  0.0000000  1.2552000  3
   2441   2447   2451   2452     1  0.0000000  1.2552000  3
   2441   2447   2451   2453     1  0.0000000  1.2552000  3
   2442   2441   2444   2464     1  0.0000000  0.6508444  3
   2442   2441   2444   2445     1  0.0000000  0.6508444  3
   2442   2441   2444   2446     1  0.0000000  0.6508444  3
   2442   2441   2447   2448     1  0.0000000  1.2552000  3
   2442   2441   2447   2451     1  0.0000000  1.2552000  3
   2443   2441   2444   2464     1  0.0000000  0.6508444  3
   2443   2441   2444   2445     1  0.0000000  0.6508444  3
   2443   2441   2444   2446     1  0.0000000  0.6508444  3
   2443   2441   2447   2448     1  0.0000000  1.2552000  3
   2443   2441   2447   2451     1  0.0000000  1.2552000  3
   2445   2444   2441   2447     1  0.0000000  0.6508444  3
   2445   2444   2464   2465     1  0.0000000  0.0000000  2
   2446   2444   2441   2447     1  0.0000000  0.6508444  3
   2446   2444   2464   2465     1  0.0000000  0.0000000  2
   2447   2448   2457   2458     1  0.0000000  0.6508444  3
   2447   2448   2457   2459     1  0.0000000  0.6508444  3
   2447   2451   2454   2455     1  0.0000000  0.6508444  3
   2447   2451   2454   2456     1  0.0000000  0.6508444  3
   2448   2447   2451   2452     1  0.0000000  1.2552000  3
   2448   2447   2451   2453     1  0.0000000  1.2552000  3
   2449   2448   2447   2451     1  0.0000000  1.2552000  3
   2449   2448   2457   2461     1  0.0000000  0.6508444  3
   2449   2448   2457   2458     1  0.0000000  0.6508444  3
   2449   2448   2457   2459     1  0.0000000  0.6508444  3
   2450   2448   2447   2451     1  0.0000000  1.2552000  3
   2450   2448   2457   2461     1  0.0000000  0.6508444  3
   2450   2448   2457   2458     1  0.0000000  0.6508444  3
   2450   2448   2457   2459     1  0.0000000  0.6508444  3
   2452   2451   2454   2460     1  0.0000000  0.6508444  3
   2452   2451   2454   2455     1  0.0000000  0.6508444  3
   2452   2451   2454   2456     1  0.0000000  0.6508444  3
   2453   2451   2454   2460     1  0.0000000  0.6508444  3
   2453   2451   2454   2455     1  0.0000000  0.6508444  3
   2453   2451   2454   2456     1  0.0000000  0.6508444  3
   2454   2460   8397   8398     1  180.0000771  10.4600000  2
   2455   2454   2460   8397     1  180.0000771  0.0000000  2
   2455   2454   2460   2462     1  0.0000000  3.3472000  1
   2455   2454   2460   2462     1  0.0000000  0.0000000  2
   2455   2454   2460   2462     1  180.0000771  0.3347200  3
   2456   2454   2460   8397     1  180.0000771  0.0000000  2
   2456   2454   2460   2462     1  0.0000000  3.3472000  1
   2456   2454   2460   2462     1  0.0000000  0.0000000  2
   2456   2454   2460   2462     1  180.0000771  0.3347200  3
   2457   2461   8470   8471     1  180.0000771  10.4600000  2
   2458   2457   2461   2463     1  0.0000000  3.3472000  1
   2458   2457   2461   2463     1  0.0000000  0.0000000  2
   2458   2457   2461   2463     1  180.0000771  0.3347200  3
   2458   2457   2461   8470     1  180.0000771  0.0000000  2
   2459   2457   2461   2463     1  0.0000000  3.3472000  1
   2459   2457   2461   2463     1  0.0000000  0.0000000  2
   2459   2457   2461   2463     1  180.0000771  0.3347200  3
   2459   2457   2461   8470     1  180.0000771  0.0000000  2
   2460   8397   8399   8400     1  0.0000000  0.0000000  2
   2460   8397   8399   8402     1  0.0000000  0.0000000  2
   2461   8470   8472   8473     1  0.0000000  0.0000000  2
   2461   8470   8472   8475     1  0.0000000  0.0000000  2
   2462   2460   8397   8398     1  0.0000000  8.3680000  1
   2462   2460   8397   8398     1  180.0000771  10.4600000  2
   2463   2461   8470   8471     1  0.0000000  8.3680000  1
   2463   2461   8470   8471     1  180.0000771  10.4600000  2
   2466   2469   2489   2490     1  0.0000000  0.0000000  2
   2466   2472   2473   2474     1  0.0000000  1.2552000  3
   2466   2472   2473   2475     1  0.0000000  1.2552000  3
   2466   2472   2476   2477     1  0.0000000  1.2552000  3
   2466   2472   2476   2478     1  0.0000000  1.2552000  3
   2467   2466   2469   2489     1  0.0000000  0.6508444  3
   2467   2466   2469   2470     1  0.0000000  0.6508444  3
   2467   2466   2469   2471     1  0.0000000  0.6508444  3
   2467   2466   2472   2473     1  0.0000000  1.2552000  3
   2467   2466   2472   2476     1  0.0000000  1.2552000  3
   2468   2466   2469   2489     1  0.0000000  0.6508444  3
   2468   2466   2469   2470     1  0.0000000  0.6508444  3
   2468   2466   2469   2471     1  0.0000000  0.6508444  3
   2468   2466   2472   2473     1  0.0000000  1.2552000  3
   2468   2466   2472   2476     1  0.0000000  1.2552000  3
   2470   2469   2466   2472     1  0.0000000  0.6508444  3
   2470   2469   2489   2490     1  0.0000000  0.0000000  2
   2471   2469   2466   2472     1  0.0000000  0.6508444  3
   2471   2469   2489   2490     1  0.0000000  0.0000000  2
   2472   2473   2482   2483     1  0.0000000  0.6508444  3
   2472   2473   2482   2484     1  0.0000000  0.6508444  3
   2472   2476   2479   2480     1  0.0000000  0.6508444  3
   2472   2476   2479   2481     1  0.0000000  0.6508444  3
   2473   2472   2476   2477     1  0.0000000  1.2552000  3
   2473   2472   2476   2478     1  0.0000000  1.2552000  3
   2474   2473   2472   2476     1  0.0000000  1.2552000  3
   2474   2473   2482   2486     1  0.0000000  0.6508444  3
   2474   2473   2482   2483     1  0.0000000  0.6508444  3
   2474   2473   2482   2484     1  0.0000000  0.6508444  3
   2475   2473   2472   2476     1  0.0000000  1.2552000  3
   2475   2473   2482   2486     1  0.0000000  0.6508444  3
   2475   2473   2482   2483     1  0.0000000  0.6508444  3
   2475   2473   2482   2484     1  0.0000000  0.6508444  3
   2477   2476   2479   2485     1  0.0000000  0.6508444  3
   2477   2476   2479   2480     1  0.0000000  0.6508444  3
   2477   2476   2479   2481     1  0.0000000  0.6508444  3
   2478   2476   2479   2485     1  0.0000000  0.6508444  3
   2478   2476   2479   2480     1  0.0000000  0.6508444  3
   2478   2476   2479   2481     1  0.0000000  0.6508444  3
   2479   2485   8543   8544     1  180.0000771  10.4600000  2
   2480   2479   2485   8543     1  180.0000771  0.0000000  2
   2480   2479   2485   2487     1  0.0000000  3.3472000  1
   2480   2479   2485   2487     1  0.0000000  0.0000000  2
   2480   2479   2485   2487     1  180.0000771  0.3347200  3
   2481   2479   2485   8543     1  180.0000771  0.0000000  2
   2481   2479   2485   2487     1  0.0000000  3.3472000  1
   2481   2479   2485   2487     1  0.0000000  0.0000000  2
   2481   2479   2485   2487     1  180.0000771  0.3347200  3
   2482   2486   8616   8617     1  180.0000771  10.4600000  2
   2483   2482   2486   2488     1  0.0000000  3.3472000  1
   2483   2482   2486   2488     1  0.0000000  0.0000000  2
   2483   2482   2486   2488     1  180.0000771  0.3347200  3
   2483   2482   2486   8616     1  180.0000771  0.0000000  2
   2484   2482   2486   2488     1  0.0000000  3.3472000  1
   2484   2482   2486   2488     1  0.0000000  0.0000000  2
   2484   2482   2486   2488     1  180.0000771  0.3347200  3
   2484   2482   2486   8616     1  180.0000771  0.0000000  2
   2485   8543   8545   8546     1  0.0000000  0.0000000  2
   2485   8543   8545   8548     1  0.0000000  0.0000000  2
   2486   8616   8618   8619     1  0.0000000  0.0000000  2
   2486   8616   8618   8621     1  0.0000000  0.0000000  2
   2487   2485   8543   8544     1  0.0000000  8.3680000  1
   2487   2485   8543   8544     1  180.0000771  10.4600000  2
   2488   2486   8616   8617     1  0.0000000  8.3680000  1
   2488   2486   8616   8617     1  180.0000771  10.4600000  2
   2491   2494   2514   2515     1  0.0000000  0.0000000  2
   2491   2497   2498   2499     1  0.0000000  1.2552000  3
   2491   2497   2498   2500     1  0.0000000  1.2552000  3
   2491   2497   2501   2502     1  0.0000000  1.2552000  3
   2491   2497   2501   2503     1  0.0000000  1.2552000  3
   2492   2491   2494   2514     1  0.0000000  0.6508444  3
   2492   2491   2494   2495     1  0.0000000  0.6508444  3
   2492   2491   2494   2496     1  0.0000000  0.6508444  3
   2492   2491   2497   2498     1  0.0000000  1.2552000  3
   2492   2491   2497   2501     1  0.0000000  1.2552000  3
   2493   2491   2494   2514     1  0.0000000  0.6508444  3
   2493   2491   2494   2495     1  0.0000000  0.6508444  3
   2493   2491   2494   2496     1  0.0000000  0.6508444  3
   2493   2491   2497   2498     1  0.0000000  1.2552000  3
   2493   2491   2497   2501     1  0.0000000  1.2552000  3
   2495   2494   2491   2497     1  0.0000000  0.6508444  3
   2495   2494   2514   2515     1  0.0000000  0.0000000  2
   2496   2494   2491   2497     1  0.0000000  0.6508444  3
   2496   2494   2514   2515     1  0.0000000  0.0000000  2
   2497   2498   2507   2508     1  0.0000000  0.6508444  3
   2497   2498   2507   2509     1  0.0000000  0.6508444  3
   2497   2501   2504   2505     1  0.0000000  0.6508444  3
   2497   2501   2504   2506     1  0.0000000  0.6508444  3
   2498   2497   2501   2502     1  0.0000000  1.2552000  3
   2498   2497   2501   2503     1  0.0000000  1.2552000  3
   2499   2498   2497   2501     1  0.0000000  1.2552000  3
   2499   2498   2507   2511     1  0.0000000  0.6508444  3
   2499   2498   2507   2508     1  0.0000000  0.6508444  3
   2499   2498   2507   2509     1  0.0000000  0.6508444  3
   2500   2498   2497   2501     1  0.0000000  1.2552000  3
   2500   2498   2507   2511     1  0.0000000  0.6508444  3
   2500   2498   2507   2508     1  0.0000000  0.6508444  3
   2500   2498   2507   2509     1  0.0000000  0.6508444  3
   2502   2501   2504   2510     1  0.0000000  0.6508444  3
   2502   2501   2504   2505     1  0.0000000  0.6508444  3
   2502   2501   2504   2506     1  0.0000000  0.6508444  3
   2503   2501   2504   2510     1  0.0000000  0.6508444  3
   2503   2501   2504   2505     1  0.0000000  0.6508444  3
   2503   2501   2504   2506     1  0.0000000  0.6508444  3
   2504   2510   8689   8690     1  180.0000771  10.4600000  2
   2505   2504   2510   8689     1  180.0000771  0.0000000  2
   2505   2504   2510   2512     1  0.0000000  3.3472000  1
   2505   2504   2510   2512     1  0.0000000  0.0000000  2
   2505   2504   2510   2512     1  180.0000771  0.3347200  3
   2506   2504   2510   8689     1  180.0000771  0.0000000  2
   2506   2504   2510   2512     1  0.0000000  3.3472000  1
   2506   2504   2510   2512     1  0.0000000  0.0000000  2
   2506   2504   2510   2512     1  180.0000771  0.3347200  3
   2507   2511   8762   8763     1  180.0000771  10.4600000  2
   2508   2507   2511   2513     1  0.0000000  3.3472000  1
   2508   2507   2511   2513     1  0.0000000  0.0000000  2
   2508   2507   2511   2513     1  180.0000771  0.3347200  3
   2508   2507   2511   8762     1  180.0000771  0.0000000  2
   2509   2507   2511   2513     1  0.0000000  3.3472000  1
   2509   2507   2511   2513     1  0.0000000  0.0000000  2
   2509   2507   2511   2513     1  180.0000771  0.3347200  3
   2509   2507   2511   8762     1  180.0000771  0.0000000  2
   2510   8689   8691   8692     1  0.0000000  0.0000000  2
   2510   8689   8691   8694     1  0.0000000  0.0000000  2
   2511   8762   8764   8765     1  0.0000000  0.0000000  2
   2511   8762   8764   8767     1  0.0000000  0.0000000  2
   2512   2510   8689   8690     1  0.0000000  8.3680000  1
   2512   2510   8689   8690     1  180.0000771  10.4600000  2
   2513   2511   8762   8763     1  0.0000000  8.3680000  1
   2513   2511   8762   8763     1  180.0000771  10.4600000  2
   2516   2519   2539   2540     1  0.0000000  0.0000000  2
   2516   2522   2523   2524     1  0.0000000  1.2552000  3
   2516   2522   2523   2525     1  0.0000000  1.2552000  3
   2516   2522   2526   2527     1  0.0000000  1.2552000  3
   2516   2522   2526   2528     1  0.0000000  1.2552000  3
   2517   2516   2519   2539     1  0.0000000  0.6508444  3
   2517   2516   2519   2520     1  0.0000000  0.6508444  3
   2517   2516   2519   2521     1  0.0000000  0.6508444  3
   2517   2516   2522   2523     1  0.0000000  1.2552000  3
   2517   2516   2522   2526     1  0.0000000  1.2552000  3
   2518   2516   2519   2539     1  0.0000000  0.6508444  3
   2518   2516   2519   2520     1  0.0000000  0.6508444  3
   2518   2516   2519   2521     1  0.0000000  0.6508444  3
   2518   2516   2522   2523     1  0.0000000  1.2552000  3
   2518   2516   2522   2526     1  0.0000000  1.2552000  3
   2520   2519   2516   2522     1  0.0000000  0.6508444  3
   2520   2519   2539   2540     1  0.0000000  0.0000000  2
   2521   2519   2516   2522     1  0.0000000  0.6508444  3
   2521   2519   2539   2540     1  0.0000000  0.0000000  2
   2522   2523   2532   2533     1  0.0000000  0.6508444  3
   2522   2523   2532   2534     1  0.0000000  0.6508444  3
   2522   2526   2529   2530     1  0.0000000  0.6508444  3
   2522   2526   2529   2531     1  0.0000000  0.6508444  3
   2523   2522   2526   2527     1  0.0000000  1.2552000  3
   2523   2522   2526   2528     1  0.0000000  1.2552000  3
   2524   2523   2522   2526     1  0.0000000  1.2552000  3
   2524   2523   2532   2536     1  0.0000000  0.6508444  3
   2524   2523   2532   2533     1  0.0000000  0.6508444  3
   2524   2523   2532   2534     1  0.0000000  0.6508444  3
   2525   2523   2522   2526     1  0.0000000  1.2552000  3
   2525   2523   2532   2536     1  0.0000000  0.6508444  3
   2525   2523   2532   2533     1  0.0000000  0.6508444  3
   2525   2523   2532   2534     1  0.0000000  0.6508444  3
   2527   2526   2529   2535     1  0.0000000  0.6508444  3
   2527   2526   2529   2530     1  0.0000000  0.6508444  3
   2527   2526   2529   2531     1  0.0000000  0.6508444  3
   2528   2526   2529   2535     1  0.0000000  0.6508444  3
   2528   2526   2529   2530     1  0.0000000  0.6508444  3
   2528   2526   2529   2531     1  0.0000000  0.6508444  3
   2529   2535   8835   8836     1  180.0000771  10.4600000  2
   2530   2529   2535   8835     1  180.0000771  0.0000000  2
   2530   2529   2535   2537     1  0.0000000  3.3472000  1
   2530   2529   2535   2537     1  0.0000000  0.0000000  2
   2530   2529   2535   2537     1  180.0000771  0.3347200  3
   2531   2529   2535   8835     1  180.0000771  0.0000000  2
   2531   2529   2535   2537     1  0.0000000  3.3472000  1
   2531   2529   2535   2537     1  0.0000000  0.0000000  2
   2531   2529   2535   2537     1  180.0000771  0.3347200  3
   2532   2536   8908   8909     1  180.0000771  10.4600000  2
   2533   2532   2536   2538     1  0.0000000  3.3472000  1
   2533   2532   2536   2538     1  0.0000000  0.0000000  2
   2533   2532   2536   2538     1  180.0000771  0.3347200  3
   2533   2532   2536   8908     1  180.0000771  0.0000000  2
   2534   2532   2536   2538     1  0.0000000  3.3472000  1
   2534   2532   2536   2538     1  0.0000000  0.0000000  2
   2534   2532   2536   2538     1  180.0000771  0.3347200  3
   2534   2532   2536   8908     1  180.0000771  0.0000000  2
   2535   8835   8837   8838     1  0.0000000  0.0000000  2
   2535   8835   8837   8840     1  0.0000000  0.0000000  2
   2536   8908   8910   8911     1  0.0000000  0.0000000  2
   2536   8908   8910   8913     1  0.0000000  0.0000000  2
   2537   2535   8835   8836     1  0.0000000  8.3680000  1
   2537   2535   8835   8836     1  180.0000771  10.4600000  2
   2538   2536   8908   8909     1  0.0000000  8.3680000  1
   2538   2536   8908   8909     1  180.0000771  10.4600000  2
   2541   2544   2564   2565     1  0.0000000  0.0000000  2
   2541   2547   2548   2549     1  0.0000000  1.2552000  3
   2541   2547   2548   2550     1  0.0000000  1.2552000  3
   2541   2547   2551   2552     1  0.0000000  1.2552000  3
   2541   2547   2551   2553     1  0.0000000  1.2552000  3
   2542   2541   2544   2564     1  0.0000000  0.6508444  3
   2542   2541   2544   2545     1  0.0000000  0.6508444  3
   2542   2541   2544   2546     1  0.0000000  0.6508444  3
   2542   2541   2547   2548     1  0.0000000  1.2552000  3
   2542   2541   2547   2551     1  0.0000000  1.2552000  3
   2543   2541   2544   2564     1  0.0000000  0.6508444  3
   2543   2541   2544   2545     1  0.0000000  0.6508444  3
   2543   2541   2544   2546     1  0.0000000  0.6508444  3
   2543   2541   2547   2548     1  0.0000000  1.2552000  3
   2543   2541   2547   2551     1  0.0000000  1.2552000  3
   2545   2544   2541   2547     1  0.0000000  0.6508444  3
   2545   2544   2564   2565     1  0.0000000  0.0000000  2
   2546   2544   2541   2547     1  0.0000000  0.6508444  3
   2546   2544   2564   2565     1  0.0000000  0.0000000  2
   2547   2548   2557   2558     1  0.0000000  0.6508444  3
   2547   2548   2557   2559     1  0.0000000  0.6508444  3
   2547   2551   2554   2555     1  0.0000000  0.6508444  3
   2547   2551   2554   2556     1  0.0000000  0.6508444  3
   2548   2547   2551   2552     1  0.0000000  1.2552000  3
   2548   2547   2551   2553     1  0.0000000  1.2552000  3
   2549   2548   2547   2551     1  0.0000000  1.2552000  3
   2549   2548   2557   2561     1  0.0000000  0.6508444  3
   2549   2548   2557   2558     1  0.0000000  0.6508444  3
   2549   2548   2557   2559     1  0.0000000  0.6508444  3
   2550   2548   2547   2551     1  0.0000000  1.2552000  3
   2550   2548   2557   2561     1  0.0000000  0.6508444  3
   2550   2548   2557   2558     1  0.0000000  0.6508444  3
   2550   2548   2557   2559     1  0.0000000  0.6508444  3
   2552   2551   2554   2560     1  0.0000000  0.6508444  3
   2552   2551   2554   2555     1  0.0000000  0.6508444  3
   2552   2551   2554   2556     1  0.0000000  0.6508444  3
   2553   2551   2554   2560     1  0.0000000  0.6508444  3
   2553   2551   2554   2555     1  0.0000000  0.6508444  3
   2553   2551   2554   2556     1  0.0000000  0.6508444  3
   2554   2560   8981   8982     1  180.0000771  10.4600000  2
   2555   2554   2560   8981     1  180.0000771  0.0000000  2
   2555   2554   2560   2562     1  0.0000000  3.3472000  1
   2555   2554   2560   2562     1  0.0000000  0.0000000  2
   2555   2554   2560   2562     1  180.0000771  0.3347200  3
   2556   2554   2560   8981     1  180.0000771  0.0000000  2
   2556   2554   2560   2562     1  0.0000000  3.3472000  1
   2556   2554   2560   2562     1  0.0000000  0.0000000  2
   2556   2554   2560   2562     1  180.0000771  0.3347200  3
   2557   2561   9054   9055     1  180.0000771  10.4600000  2
   2558   2557   2561   2563     1  0.0000000  3.3472000  1
   2558   2557   2561   2563     1  0.0000000  0.0000000  2
   2558   2557   2561   2563     1  180.0000771  0.3347200  3
   2558   2557   2561   9054     1  180.0000771  0.0000000  2
   2559   2557   2561   2563     1  0.0000000  3.3472000  1
   2559   2557   2561   2563     1  0.0000000  0.0000000  2
   2559   2557   2561   2563     1  180.0000771  0.3347200  3
   2559   2557   2561   9054     1  180.0000771  0.0000000  2
   2560   8981   8983   8984     1  0.0000000  0.0000000  2
   2560   8981   8983   8986     1  0.0000000  0.0000000  2
   2561   9054   9056   9057     1  0.0000000  0.0000000  2
   2561   9054   9056   9059     1  0.0000000  0.0000000  2
   2562   2560   8981   8982     1  0.0000000  8.3680000  1
   2562   2560   8981   8982     1  180.0000771  10.4600000  2
   2563   2561   9054   9055     1  0.0000000  8.3680000  1
   2563   2561   9054   9055     1  180.0000771  10.4600000  2
   2566   2569   2589   2590     1  0.0000000  0.0000000  2
   2566   2572   2573   2574     1  0.0000000  1.2552000  3
   2566   2572   2573   2575     1  0.0000000  1.2552000  3
   2566   2572   2576   2577     1  0.0000000  1.2552000  3
   2566   2572   2576   2578     1  0.0000000  1.2552000  3
   2567   2566   2569   2589     1  0.0000000  0.6508444  3
   2567   2566   2569   2570     1  0.0000000  0.6508444  3
   2567   2566   2569   2571     1  0.0000000  0.6508444  3
   2567   2566   2572   2573     1  0.0000000  1.2552000  3
   2567   2566   2572   2576     1  0.0000000  1.2552000  3
   2568   2566   2569   2589     1  0.0000000  0.6508444  3
   2568   2566   2569   2570     1  0.0000000  0.6508444  3
   2568   2566   2569   2571     1  0.0000000  0.6508444  3
   2568   2566   2572   2573     1  0.0000000  1.2552000  3
   2568   2566   2572   2576     1  0.0000000  1.2552000  3
   2570   2569   2566   2572     1  0.0000000  0.6508444  3
   2570   2569   2589   2590     1  0.0000000  0.0000000  2
   2571   2569   2566   2572     1  0.0000000  0.6508444  3
   2571   2569   2589   2590     1  0.0000000  0.0000000  2
   2572   2573   2582   2583     1  0.0000000  0.6508444  3
   2572   2573   2582   2584     1  0.0000000  0.6508444  3
   2572   2576   2579   2580     1  0.0000000  0.6508444  3
   2572   2576   2579   2581     1  0.0000000  0.6508444  3
   2573   2572   2576   2577     1  0.0000000  1.2552000  3
   2573   2572   2576   2578     1  0.0000000  1.2552000  3
   2574   2573   2572   2576     1  0.0000000  1.2552000  3
   2574   2573   2582   2586     1  0.0000000  0.6508444  3
   2574   2573   2582   2583     1  0.0000000  0.6508444  3
   2574   2573   2582   2584     1  0.0000000  0.6508444  3
   2575   2573   2572   2576     1  0.0000000  1.2552000  3
   2575   2573   2582   2586     1  0.0000000  0.6508444  3
   2575   2573   2582   2583     1  0.0000000  0.6508444  3
   2575   2573   2582   2584     1  0.0000000  0.6508444  3
   2577   2576   2579   2585     1  0.0000000  0.6508444  3
   2577   2576   2579   2580     1  0.0000000  0.6508444  3
   2577   2576   2579   2581     1  0.0000000  0.6508444  3
   2578   2576   2579   2585     1  0.0000000  0.6508444  3
   2578   2576   2579   2580     1  0.0000000  0.6508444  3
   2578   2576   2579   2581     1  0.0000000  0.6508444  3
   2579   2585   9127   9128     1  180.0000771  10.4600000  2
   2580   2579   2585   9127     1  180.0000771  0.0000000  2
   2580   2579   2585   2587     1  0.0000000  3.3472000  1
   2580   2579   2585   2587     1  0.0000000  0.0000000  2
   2580   2579   2585   2587     1  180.0000771  0.3347200  3
   2581   2579   2585   9127     1  180.0000771  0.0000000  2
   2581   2579   2585   2587     1  0.0000000  3.3472000  1
   2581   2579   2585   2587     1  0.0000000  0.0000000  2
   2581   2579   2585   2587     1  180.0000771  0.3347200  3
   2582   2586   9200   9201     1  180.0000771  10.4600000  2
   2583   2582   2586   2588     1  0.0000000  3.3472000  1
   2583   2582   2586   2588     1  0.0000000  0.0000000  2
   2583   2582   2586   2588     1  180.0000771  0.3347200  3
   2583   2582   2586   9200     1  180.0000771  0.0000000  2
   2584   2582   2586   2588     1  0.0000000  3.3472000  1
   2584   2582   2586   2588     1  0.0000000  0.0000000  2
   2584   2582   2586   2588     1  180.0000771  0.3347200  3
   2584   2582   2586   9200     1  180.0000771  0.0000000  2
   2585   9127   9129   9130     1  0.0000000  0.0000000  2
   2585   9127   9129   9132     1  0.0000000  0.0000000  2
   2586   9200   9202   9203     1  0.0000000  0.0000000  2
   2586   9200   9202   9205     1  0.0000000  0.0000000  2
   2587   2585   9127   9128     1  0.0000000  8.3680000  1
   2587   2585   9127   9128     1  180.0000771  10.4600000  2
   2588   2586   9200   9201     1  0.0000000  8.3680000  1
   2588   2586   9200   9201     1  180.0000771  10.4600000  2
   2591   2594   2614   2615     1  0.0000000  0.0000000  2
   2591   2597   2598   2599     1  0.0000000  1.2552000  3
   2591   2597   2598   2600     1  0.0000000  1.2552000  3
   2591   2597   2601   2602     1  0.0000000  1.2552000  3
   2591   2597   2601   2603     1  0.0000000  1.2552000  3
   2592   2591   2594   2614     1  0.0000000  0.6508444  3
   2592   2591   2594   2595     1  0.0000000  0.6508444  3
   2592   2591   2594   2596     1  0.0000000  0.6508444  3
   2592   2591   2597   2598     1  0.0000000  1.2552000  3
   2592   2591   2597   2601     1  0.0000000  1.2552000  3
   2593   2591   2594   2614     1  0.0000000  0.6508444  3
   2593   2591   2594   2595     1  0.0000000  0.6508444  3
   2593   2591   2594   2596     1  0.0000000  0.6508444  3
   2593   2591   2597   2598     1  0.0000000  1.2552000  3
   2593   2591   2597   2601     1  0.0000000  1.2552000  3
   2595   2594   2591   2597     1  0.0000000  0.6508444  3
   2595   2594   2614   2615     1  0.0000000  0.0000000  2
   2596   2594   2591   2597     1  0.0000000  0.6508444  3
   2596   2594   2614   2615     1  0.0000000  0.0000000  2
   2597   2598   2607   2608     1  0.0000000  0.6508444  3
   2597   2598   2607   2609     1  0.0000000  0.6508444  3
   2597   2601   2604   2605     1  0.0000000  0.6508444  3
   2597   2601   2604   2606     1  0.0000000  0.6508444  3
   2598   2597   2601   2602     1  0.0000000  1.2552000  3
   2598   2597   2601   2603     1  0.0000000  1.2552000  3
   2599   2598   2597   2601     1  0.0000000  1.2552000  3
   2599   2598   2607   2611     1  0.0000000  0.6508444  3
   2599   2598   2607   2608     1  0.0000000  0.6508444  3
   2599   2598   2607   2609     1  0.0000000  0.6508444  3
   2600   2598   2597   2601     1  0.0000000  1.2552000  3
   2600   2598   2607   2611     1  0.0000000  0.6508444  3
   2600   2598   2607   2608     1  0.0000000  0.6508444  3
   2600   2598   2607   2609     1  0.0000000  0.6508444  3
   2602   2601   2604   2610     1  0.0000000  0.6508444  3
   2602   2601   2604   2605     1  0.0000000  0.6508444  3
   2602   2601   2604   2606     1  0.0000000  0.6508444  3
   2603   2601   2604   2610     1  0.0000000  0.6508444  3
   2603   2601   2604   2605     1  0.0000000  0.6508444  3
   2603   2601   2604   2606     1  0.0000000  0.6508444  3
   2604   2610   9273   9274     1  180.0000771  10.4600000  2
   2605   2604   2610   9273     1  180.0000771  0.0000000  2
   2605   2604   2610   2612     1  0.0000000  3.3472000  1
   2605   2604   2610   2612     1  0.0000000  0.0000000  2
   2605   2604   2610   2612     1  180.0000771  0.3347200  3
   2606   2604   2610   9273     1  180.0000771  0.0000000  2
   2606   2604   2610   2612     1  0.0000000  3.3472000  1
   2606   2604   2610   2612     1  0.0000000  0.0000000  2
   2606   2604   2610   2612     1  180.0000771  0.3347200  3
   2607   2611   9346   9347     1  180.0000771  10.4600000  2
   2608   2607   2611   2613     1  0.0000000  3.3472000  1
   2608   2607   2611   2613     1  0.0000000  0.0000000  2
   2608   2607   2611   2613     1  180.0000771  0.3347200  3
   2608   2607   2611   9346     1  180.0000771  0.0000000  2
   2609   2607   2611   2613     1  0.0000000  3.3472000  1
   2609   2607   2611   2613     1  0.0000000  0.0000000  2
   2609   2607   2611   2613     1  180.0000771  0.3347200  3
   2609   2607   2611   9346     1  180.0000771  0.0000000  2
   2610   9273   9275   9276     1  0.0000000  0.0000000  2
   2610   9273   9275   9278     1  0.0000000  0.0000000  2
   2611   9346   9348   9349     1  0.0000000  0.0000000  2
   2611   9346   9348   9351     1  0.0000000  0.0000000  2
   2612   2610   9273   9274     1  0.0000000  8.3680000  1
   2612   2610   9273   9274     1  180.0000771  10.4600000  2
   2613   2611   9346   9347     1  0.0000000  8.3680000  1
   2613   2611   9346   9347     1  180.0000771  10.4600000  2
   2616   2619   2639   2640     1  0.0000000  0.0000000  2
   2616   2622   2623   2624     1  0.0000000  1.2552000  3
   2616   2622   2623   2625     1  0.0000000  1.2552000  3
   2616   2622   2626   2627     1  0.0000000  1.2552000  3
   2616   2622   2626   2628     1  0.0000000  1.2552000  3
   2617   2616   2619   2639     1  0.0000000  0.6508444  3
   2617   2616   2619   2620     1  0.0000000  0.6508444  3
   2617   2616   2619   2621     1  0.0000000  0.6508444  3
   2617   2616   2622   2623     1  0.0000000  1.2552000  3
   2617   2616   2622   2626     1  0.0000000  1.2552000  3
   2618   2616   2619   2639     1  0.0000000  0.6508444  3
   2618   2616   2619   2620     1  0.0000000  0.6508444  3
   2618   2616   2619   2621     1  0.0000000  0.6508444  3
   2618   2616   2622   2623     1  0.0000000  1.2552000  3
   2618   2616   2622   2626     1  0.0000000  1.2552000  3
   2620   2619   2616   2622     1  0.0000000  0.6508444  3
   2620   2619   2639   2640     1  0.0000000  0.0000000  2
   2621   2619   2616   2622     1  0.0000000  0.6508444  3
   2621   2619   2639   2640     1  0.0000000  0.0000000  2
   2622   2623   2632   2633     1  0.0000000  0.6508444  3
   2622   2623   2632   2634     1  0.0000000  0.6508444  3
   2622   2626   2629   2630     1  0.0000000  0.6508444  3
   2622   2626   2629   2631     1  0.0000000  0.6508444  3
   2623   2622   2626   2627     1  0.0000000  1.2552000  3
   2623   2622   2626   2628     1  0.0000000  1.2552000  3
   2624   2623   2622   2626     1  0.0000000  1.2552000  3
   2624   2623   2632   2636     1  0.0000000  0.6508444  3
   2624   2623   2632   2633     1  0.0000000  0.6508444  3
   2624   2623   2632   2634     1  0.0000000  0.6508444  3
   2625   2623   2622   2626     1  0.0000000  1.2552000  3
   2625   2623   2632   2636     1  0.0000000  0.6508444  3
   2625   2623   2632   2633     1  0.0000000  0.6508444  3
   2625   2623   2632   2634     1  0.0000000  0.6508444  3
   2627   2626   2629   2635     1  0.0000000  0.6508444  3
   2627   2626   2629   2630     1  0.0000000  0.6508444  3
   2627   2626   2629   2631     1  0.0000000  0.6508444  3
   2628   2626   2629   2635     1  0.0000000  0.6508444  3
   2628   2626   2629   2630     1  0.0000000  0.6508444  3
   2628   2626   2629   2631     1  0.0000000  0.6508444  3
   2629   2635   9419   9420     1  180.0000771  10.4600000  2
   2630   2629   2635   9419     1  180.0000771  0.0000000  2
   2630   2629   2635   2637     1  0.0000000  3.3472000  1
   2630   2629   2635   2637     1  0.0000000  0.0000000  2
   2630   2629   2635   2637     1  180.0000771  0.3347200  3
   2631   2629   2635   9419     1  180.0000771  0.0000000  2
   2631   2629   2635   2637     1  0.0000000  3.3472000  1
   2631   2629   2635   2637     1  0.0000000  0.0000000  2
   2631   2629   2635   2637     1  180.0000771  0.3347200  3
   2632   2636   9492   9493     1  180.0000771  10.4600000  2
   2633   2632   2636   2638     1  0.0000000  3.3472000  1
   2633   2632   2636   2638     1  0.0000000  0.0000000  2
   2633   2632   2636   2638     1  180.0000771  0.3347200  3
   2633   2632   2636   9492     1  180.0000771  0.0000000  2
   2634   2632   2636   2638     1  0.0000000  3.3472000  1
   2634   2632   2636   2638     1  0.0000000  0.0000000  2
   2634   2632   2636   2638     1  180.0000771  0.3347200  3
   2634   2632   2636   9492     1  180.0000771  0.0000000  2
   2635   9419   9421   9422     1  0.0000000  0.0000000  2
   2635   9419   9421   9424     1  0.0000000  0.0000000  2
   2636   9492   9494   9495     1  0.0000000  0.0000000  2
   2636   9492   9494   9497     1  0.0000000  0.0000000  2
   2637   2635   9419   9420     1  0.0000000  8.3680000  1
   2637   2635   9419   9420     1  180.0000771  10.4600000  2
   2638   2636   9492   9493     1  0.0000000  8.3680000  1
   2638   2636   9492   9493     1  180.0000771  10.4600000  2
   2641   2644   2664   2665     1  0.0000000  0.0000000  2
   2641   2647   2648   2649     1  0.0000000  1.2552000  3
   2641   2647   2648   2650     1  0.0000000  1.2552000  3
   2641   2647   2651   2652     1  0.0000000  1.2552000  3
   2641   2647   2651   2653     1  0.0000000  1.2552000  3
   2642   2641   2644   2664     1  0.0000000  0.6508444  3
   2642   2641   2644   2645     1  0.0000000  0.6508444  3
   2642   2641   2644   2646     1  0.0000000  0.6508444  3
   2642   2641   2647   2648     1  0.0000000  1.2552000  3
   2642   2641   2647   2651     1  0.0000000  1.2552000  3
   2643   2641   2644   2664     1  0.0000000  0.6508444  3
   2643   2641   2644   2645     1  0.0000000  0.6508444  3
   2643   2641   2644   2646     1  0.0000000  0.6508444  3
   2643   2641   2647   2648     1  0.0000000  1.2552000  3
   2643   2641   2647   2651     1  0.0000000  1.2552000  3
   2645   2644   2641   2647     1  0.0000000  0.6508444  3
   2645   2644   2664   2665     1  0.0000000  0.0000000  2
   2646   2644   2641   2647     1  0.0000000  0.6508444  3
   2646   2644   2664   2665     1  0.0000000  0.0000000  2
   2647   2648   2657   2658     1  0.0000000  0.6508444  3
   2647   2648   2657   2659     1  0.0000000  0.6508444  3
   2647   2651   2654   2655     1  0.0000000  0.6508444  3
   2647   2651   2654   2656     1  0.0000000  0.6508444  3
   2648   2647   2651   2652     1  0.0000000  1.2552000  3
   2648   2647   2651   2653     1  0.0000000  1.2552000  3
   2649   2648   2647   2651     1  0.0000000  1.2552000  3
   2649   2648   2657   2661     1  0.0000000  0.6508444  3
   2649   2648   2657   2658     1  0.0000000  0.6508444  3
   2649   2648   2657   2659     1  0.0000000  0.6508444  3
   2650   2648   2647   2651     1  0.0000000  1.2552000  3
   2650   2648   2657   2661     1  0.0000000  0.6508444  3
   2650   2648   2657   2658     1  0.0000000  0.6508444  3
   2650   2648   2657   2659     1  0.0000000  0.6508444  3
   2652   2651   2654   2660     1  0.0000000  0.6508444  3
   2652   2651   2654   2655     1  0.0000000  0.6508444  3
   2652   2651   2654   2656     1  0.0000000  0.6508444  3
   2653   2651   2654   2660     1  0.0000000  0.6508444  3
   2653   2651   2654   2655     1  0.0000000  0.6508444  3
   2653   2651   2654   2656     1  0.0000000  0.6508444  3
   2654   2660   9565   9566     1  180.0000771  10.4600000  2
   2655   2654   2660   9565     1  180.0000771  0.0000000  2
   2655   2654   2660   2662     1  0.0000000  3.3472000  1
   2655   2654   2660   2662     1  0.0000000  0.0000000  2
   2655   2654   2660   2662     1  180.0000771  0.3347200  3
   2656   2654   2660   9565     1  180.0000771  0.0000000  2
   2656   2654   2660   2662     1  0.0000000  3.3472000  1
   2656   2654   2660   2662     1  0.0000000  0.0000000  2
   2656   2654   2660   2662     1  180.0000771  0.3347200  3
   2657   2661   9638   9639     1  180.0000771  10.4600000  2
   2658   2657   2661   2663     1  0.0000000  3.3472000  1
   2658   2657   2661   2663     1  0.0000000  0.0000000  2
   2658   2657   2661   2663     1  180.0000771  0.3347200  3
   2658   2657   2661   9638     1  180.0000771  0.0000000  2
   2659   2657   2661   2663     1  0.0000000  3.3472000  1
   2659   2657   2661   2663     1  0.0000000  0.0000000  2
   2659   2657   2661   2663     1  180.0000771  0.3347200  3
   2659   2657   2661   9638     1  180.0000771  0.0000000  2
   2660   9565   9567   9568     1  0.0000000  0.0000000  2
   2660   9565   9567   9570     1  0.0000000  0.0000000  2
   2661   9638   9640   9641     1  0.0000000  0.0000000  2
   2661   9638   9640   9643     1  0.0000000  0.0000000  2
   2662   2660   9565   9566     1  0.0000000  8.3680000  1
   2662   2660   9565   9566     1  180.0000771  10.4600000  2
   2663   2661   9638   9639     1  0.0000000  8.3680000  1
   2663   2661   9638   9639     1  180.0000771  10.4600000  2
   2666   2669   2689   2690     1  0.0000000  0.0000000  2
   2666   2672   2673   2674     1  0.0000000  1.2552000  3
   2666   2672   2673   2675     1  0.0000000  1.2552000  3
   2666   2672   2676   2677     1  0.0000000  1.2552000  3
   2666   2672   2676   2678     1  0.0000000  1.2552000  3
   2667   2666   2669   2689     1  0.0000000  0.6508444  3
   2667   2666   2669   2670     1  0.0000000  0.6508444  3
   2667   2666   2669   2671     1  0.0000000  0.6508444  3
   2667   2666   2672   2673     1  0.0000000  1.2552000  3
   2667   2666   2672   2676     1  0.0000000  1.2552000  3
   2668   2666   2669   2689     1  0.0000000  0.6508444  3
   2668   2666   2669   2670     1  0.0000000  0.6508444  3
   2668   2666   2669   2671     1  0.0000000  0.6508444  3
   2668   2666   2672   2673     1  0.0000000  1.2552000  3
   2668   2666   2672   2676     1  0.0000000  1.2552000  3
   2670   2669   2666   2672     1  0.0000000  0.6508444  3
   2670   2669   2689   2690     1  0.0000000  0.0000000  2
   2671   2669   2666   2672     1  0.0000000  0.6508444  3
   2671   2669   2689   2690     1  0.0000000  0.0000000  2
   2672   2673   2682   2683     1  0.0000000  0.6508444  3
   2672   2673   2682   2684     1  0.0000000  0.6508444  3
   2672   2676   2679   2680     1  0.0000000  0.6508444  3
   2672   2676   2679   2681     1  0.0000000  0.6508444  3
   2673   2672   2676   2677     1  0.0000000  1.2552000  3
   2673   2672   2676   2678     1  0.0000000  1.2552000  3
   2674   2673   2672   2676     1  0.0000000  1.2552000  3
   2674   2673   2682   2686     1  0.0000000  0.6508444  3
   2674   2673   2682   2683     1  0.0000000  0.6508444  3
   2674   2673   2682   2684     1  0.0000000  0.6508444  3
   2675   2673   2672   2676     1  0.0000000  1.2552000  3
   2675   2673   2682   2686     1  0.0000000  0.6508444  3
   2675   2673   2682   2683     1  0.0000000  0.6508444  3
   2675   2673   2682   2684     1  0.0000000  0.6508444  3
   2677   2676   2679   2685     1  0.0000000  0.6508444  3
   2677   2676   2679   2680     1  0.0000000  0.6508444  3
   2677   2676   2679   2681     1  0.0000000  0.6508444  3
   2678   2676   2679   2685     1  0.0000000  0.6508444  3
   2678   2676   2679   2680     1  0.0000000  0.6508444  3
   2678   2676   2679   2681     1  0.0000000  0.6508444  3
   2679   2685   9711   9712     1  180.0000771  10.4600000  2
   2680   2679   2685   9711     1  180.0000771  0.0000000  2
   2680   2679   2685   2687     1  0.0000000  3.3472000  1
   2680   2679   2685   2687     1  0.0000000  0.0000000  2
   2680   2679   2685   2687     1  180.0000771  0.3347200  3
   2681   2679   2685   9711     1  180.0000771  0.0000000  2
   2681   2679   2685   2687     1  0.0000000  3.3472000  1
   2681   2679   2685   2687     1  0.0000000  0.0000000  2
   2681   2679   2685   2687     1  180.0000771  0.3347200  3
   2682   2686   9784   9785     1  180.0000771  10.4600000  2
   2683   2682   2686   2688     1  0.0000000  3.3472000  1
   2683   2682   2686   2688     1  0.0000000  0.0000000  2
   2683   2682   2686   2688     1  180.0000771  0.3347200  3
   2683   2682   2686   9784     1  180.0000771  0.0000000  2
   2684   2682   2686   2688     1  0.0000000  3.3472000  1
   2684   2682   2686   2688     1  0.0000000  0.0000000  2
   2684   2682   2686   2688     1  180.0000771  0.3347200  3
   2684   2682   2686   9784     1  180.0000771  0.0000000  2
   2685   9711   9713   9714     1  0.0000000  0.0000000  2
   2685   9711   9713   9716     1  0.0000000  0.0000000  2
   2686   9784   9786   9787     1  0.0000000  0.0000000  2
   2686   9784   9786   9789     1  0.0000000  0.0000000  2
   2687   2685   9711   9712     1  0.0000000  8.3680000  1
   2687   2685   9711   9712     1  180.0000771  10.4600000  2
   2688   2686   9784   9785     1  0.0000000  8.3680000  1
   2688   2686   9784   9785     1  180.0000771  10.4600000  2
   2691   2694   2714   2715     1  0.0000000  0.0000000  2
   2691   2697   2698   2699     1  0.0000000  1.2552000  3
   2691   2697   2698   2700     1  0.0000000  1.2552000  3
   2691   2697   2701   2702     1  0.0000000  1.2552000  3
   2691   2697   2701   2703     1  0.0000000  1.2552000  3
   2692   2691   2694   2714     1  0.0000000  0.6508444  3
   2692   2691   2694   2695     1  0.0000000  0.6508444  3
   2692   2691   2694   2696     1  0.0000000  0.6508444  3
   2692   2691   2697   2698     1  0.0000000  1.2552000  3
   2692   2691   2697   2701     1  0.0000000  1.2552000  3
   2693   2691   2694   2714     1  0.0000000  0.6508444  3
   2693   2691   2694   2695     1  0.0000000  0.6508444  3
   2693   2691   2694   2696     1  0.0000000  0.6508444  3
   2693   2691   2697   2698     1  0.0000000  1.2552000  3
   2693   2691   2697   2701     1  0.0000000  1.2552000  3
   2695   2694   2691   2697     1  0.0000000  0.6508444  3
   2695   2694   2714   2715     1  0.0000000  0.0000000  2
   2696   2694   2691   2697     1  0.0000000  0.6508444  3
   2696   2694   2714   2715     1  0.0000000  0.0000000  2
   2697   2698   2707   2708     1  0.0000000  0.6508444  3
   2697   2698   2707   2709     1  0.0000000  0.6508444  3
   2697   2701   2704   2705     1  0.0000000  0.6508444  3
   2697   2701   2704   2706     1  0.0000000  0.6508444  3
   2698   2697   2701   2702     1  0.0000000  1.2552000  3
   2698   2697   2701   2703     1  0.0000000  1.2552000  3
   2699   2698   2697   2701     1  0.0000000  1.2552000  3
   2699   2698   2707   2711     1  0.0000000  0.6508444  3
   2699   2698   2707   2708     1  0.0000000  0.6508444  3
   2699   2698   2707   2709     1  0.0000000  0.6508444  3
   2700   2698   2697   2701     1  0.0000000  1.2552000  3
   2700   2698   2707   2711     1  0.0000000  0.6508444  3
   2700   2698   2707   2708     1  0.0000000  0.6508444  3
   2700   2698   2707   2709     1  0.0000000  0.6508444  3
   2702   2701   2704   2710     1  0.0000000  0.6508444  3
   2702   2701   2704   2705     1  0.0000000  0.6508444  3
   2702   2701   2704   2706     1  0.0000000  0.6508444  3
   2703   2701   2704   2710     1  0.0000000  0.6508444  3
   2703   2701   2704   2705     1  0.0000000  0.6508444  3
   2703   2701   2704   2706     1  0.0000000  0.6508444  3
   2704   2710   9857   9858     1  180.0000771  10.4600000  2
   2705   2704   2710   9857     1  180.0000771  0.0000000  2
   2705   2704   2710   2712     1  0.0000000  3.3472000  1
   2705   2704   2710   2712     1  0.0000000  0.0000000  2
   2705   2704   2710   2712     1  180.0000771  0.3347200  3
   2706   2704   2710   9857     1  180.0000771  0.0000000  2
   2706   2704   2710   2712     1  0.0000000  3.3472000  1
   2706   2704   2710   2712     1  0.0000000  0.0000000  2
   2706   2704   2710   2712     1  180.0000771  0.3347200  3
   2707   2711   9930   9931     1  180.0000771  10.4600000  2
   2708   2707   2711   2713     1  0.0000000  3.3472000  1
   2708   2707   2711   2713     1  0.0000000  0.0000000  2
   2708   2707   2711   2713     1  180.0000771  0.3347200  3
   2708   2707   2711   9930     1  180.0000771  0.0000000  2
   2709   2707   2711   2713     1  0.0000000  3.3472000  1
   2709   2707   2711   2713     1  0.0000000  0.0000000  2
   2709   2707   2711   2713     1  180.0000771  0.3347200  3
   2709   2707   2711   9930     1  180.0000771  0.0000000  2
   2710   9857   9859   9860     1  0.0000000  0.0000000  2
   2710   9857   9859   9862     1  0.0000000  0.0000000  2
   2711   9930   9932   9933     1  0.0000000  0.0000000  2
   2711   9930   9932   9935     1  0.0000000  0.0000000  2
   2712   2710   9857   9858     1  0.0000000  8.3680000  1
   2712   2710   9857   9858     1  180.0000771  10.4600000  2
   2713   2711   9930   9931     1  0.0000000  8.3680000  1
   2713   2711   9930   9931     1  180.0000771  10.4600000  2
   2716   2719   2739   2740     1  0.0000000  0.0000000  2
   2716   2722   2723   2724     1  0.0000000  1.2552000  3
   2716   2722   2723   2725     1  0.0000000  1.2552000  3
   2716   2722   2726   2727     1  0.0000000  1.2552000  3
   2716   2722   2726   2728     1  0.0000000  1.2552000  3
   2717   2716   2719   2739     1  0.0000000  0.6508444  3
   2717   2716   2719   2720     1  0.0000000  0.6508444  3
   2717   2716   2719   2721     1  0.0000000  0.6508444  3
   2717   2716   2722   2723     1  0.0000000  1.2552000  3
   2717   2716   2722   2726     1  0.0000000  1.2552000  3
   2718   2716   2719   2739     1  0.0000000  0.6508444  3
   2718   2716   2719   2720     1  0.0000000  0.6508444  3
   2718   2716   2719   2721     1  0.0000000  0.6508444  3
   2718   2716   2722   2723     1  0.0000000  1.2552000  3
   2718   2716   2722   2726     1  0.0000000  1.2552000  3
   2720   2719   2716   2722     1  0.0000000  0.6508444  3
   2720   2719   2739   2740     1  0.0000000  0.0000000  2
   2721   2719   2716   2722     1  0.0000000  0.6508444  3
   2721   2719   2739   2740     1  0.0000000  0.0000000  2
   2722   2723   2732   2733     1  0.0000000  0.6508444  3
   2722   2723   2732   2734     1  0.0000000  0.6508444  3
   2722   2726   2729   2730     1  0.0000000  0.6508444  3
   2722   2726   2729   2731     1  0.0000000  0.6508444  3
   2723   2722   2726   2727     1  0.0000000  1.2552000  3
   2723   2722   2726   2728     1  0.0000000  1.2552000  3
   2724   2723   2722   2726     1  0.0000000  1.2552000  3
   2724   2723   2732   2736     1  0.0000000  0.6508444  3
   2724   2723   2732   2733     1  0.0000000  0.6508444  3
   2724   2723   2732   2734     1  0.0000000  0.6508444  3
   2725   2723   2722   2726     1  0.0000000  1.2552000  3
   2725   2723   2732   2736     1  0.0000000  0.6508444  3
   2725   2723   2732   2733     1  0.0000000  0.6508444  3
   2725   2723   2732   2734     1  0.0000000  0.6508444  3
   2727   2726   2729   2735     1  0.0000000  0.6508444  3
   2727   2726   2729   2730     1  0.0000000  0.6508444  3
   2727   2726   2729   2731     1  0.0000000  0.6508444  3
   2728   2726   2729   2735     1  0.0000000  0.6508444  3
   2728   2726   2729   2730     1  0.0000000  0.6508444  3
   2728   2726   2729   2731     1  0.0000000  0.6508444  3
   2729   2735  10003  10004     1  180.0000771  10.4600000  2
   2730   2729   2735  10003     1  180.0000771  0.0000000  2
   2730   2729   2735   2737     1  0.0000000  3.3472000  1
   2730   2729   2735   2737     1  0.0000000  0.0000000  2
   2730   2729   2735   2737     1  180.0000771  0.3347200  3
   2731   2729   2735  10003     1  180.0000771  0.0000000  2
   2731   2729   2735   2737     1  0.0000000  3.3472000  1
   2731   2729   2735   2737     1  0.0000000  0.0000000  2
   2731   2729   2735   2737     1  180.0000771  0.3347200  3
   2732   2736  10076  10077     1  180.0000771  10.4600000  2
   2733   2732   2736   2738     1  0.0000000  3.3472000  1
   2733   2732   2736   2738     1  0.0000000  0.0000000  2
   2733   2732   2736   2738     1  180.0000771  0.3347200  3
   2733   2732   2736  10076     1  180.0000771  0.0000000  2
   2734   2732   2736   2738     1  0.0000000  3.3472000  1
   2734   2732   2736   2738     1  0.0000000  0.0000000  2
   2734   2732   2736   2738     1  180.0000771  0.3347200  3
   2734   2732   2736  10076     1  180.0000771  0.0000000  2
   2735  10003  10005  10006     1  0.0000000  0.0000000  2
   2735  10003  10005  10008     1  0.0000000  0.0000000  2
   2736  10076  10078  10079     1  0.0000000  0.0000000  2
   2736  10076  10078  10081     1  0.0000000  0.0000000  2
   2737   2735  10003  10004     1  0.0000000  8.3680000  1
   2737   2735  10003  10004     1  180.0000771  10.4600000  2
   2738   2736  10076  10077     1  0.0000000  8.3680000  1
   2738   2736  10076  10077     1  180.0000771  10.4600000  2
   2741   2744   2764   2765     1  0.0000000  0.0000000  2
   2741   2747   2748   2749     1  0.0000000  1.2552000  3
   2741   2747   2748   2750     1  0.0000000  1.2552000  3
   2741   2747   2751   2752     1  0.0000000  1.2552000  3
   2741   2747   2751   2753     1  0.0000000  1.2552000  3
   2742   2741   2744   2764     1  0.0000000  0.6508444  3
   2742   2741   2744   2745     1  0.0000000  0.6508444  3
   2742   2741   2744   2746     1  0.0000000  0.6508444  3
   2742   2741   2747   2748     1  0.0000000  1.2552000  3
   2742   2741   2747   2751     1  0.0000000  1.2552000  3
   2743   2741   2744   2764     1  0.0000000  0.6508444  3
   2743   2741   2744   2745     1  0.0000000  0.6508444  3
   2743   2741   2744   2746     1  0.0000000  0.6508444  3
   2743   2741   2747   2748     1  0.0000000  1.2552000  3
   2743   2741   2747   2751     1  0.0000000  1.2552000  3
   2745   2744   2741   2747     1  0.0000000  0.6508444  3
   2745   2744   2764   2765     1  0.0000000  0.0000000  2
   2746   2744   2741   2747     1  0.0000000  0.6508444  3
   2746   2744   2764   2765     1  0.0000000  0.0000000  2
   2747   2748   2757   2758     1  0.0000000  0.6508444  3
   2747   2748   2757   2759     1  0.0000000  0.6508444  3
   2747   2751   2754   2755     1  0.0000000  0.6508444  3
   2747   2751   2754   2756     1  0.0000000  0.6508444  3
   2748   2747   2751   2752     1  0.0000000  1.2552000  3
   2748   2747   2751   2753     1  0.0000000  1.2552000  3
   2749   2748   2747   2751     1  0.0000000  1.2552000  3
   2749   2748   2757   2761     1  0.0000000  0.6508444  3
   2749   2748   2757   2758     1  0.0000000  0.6508444  3
   2749   2748   2757   2759     1  0.0000000  0.6508444  3
   2750   2748   2747   2751     1  0.0000000  1.2552000  3
   2750   2748   2757   2761     1  0.0000000  0.6508444  3
   2750   2748   2757   2758     1  0.0000000  0.6508444  3
   2750   2748   2757   2759     1  0.0000000  0.6508444  3
   2752   2751   2754   2760     1  0.0000000  0.6508444  3
   2752   2751   2754   2755     1  0.0000000  0.6508444  3
   2752   2751   2754   2756     1  0.0000000  0.6508444  3
   2753   2751   2754   2760     1  0.0000000  0.6508444  3
   2753   2751   2754   2755     1  0.0000000  0.6508444  3
   2753   2751   2754   2756     1  0.0000000  0.6508444  3
   2754   2760  10149  10150     1  180.0000771  10.4600000  2
   2755   2754   2760  10149     1  180.0000771  0.0000000  2
   2755   2754   2760   2762     1  0.0000000  3.3472000  1
   2755   2754   2760   2762     1  0.0000000  0.0000000  2
   2755   2754   2760   2762     1  180.0000771  0.3347200  3
   2756   2754   2760  10149     1  180.0000771  0.0000000  2
   2756   2754   2760   2762     1  0.0000000  3.3472000  1
   2756   2754   2760   2762     1  0.0000000  0.0000000  2
   2756   2754   2760   2762     1  180.0000771  0.3347200  3
   2757   2761  10222  10223     1  180.0000771  10.4600000  2
   2758   2757   2761   2763     1  0.0000000  3.3472000  1
   2758   2757   2761   2763     1  0.0000000  0.0000000  2
   2758   2757   2761   2763     1  180.0000771  0.3347200  3
   2758   2757   2761  10222     1  180.0000771  0.0000000  2
   2759   2757   2761   2763     1  0.0000000  3.3472000  1
   2759   2757   2761   2763     1  0.0000000  0.0000000  2
   2759   2757   2761   2763     1  180.0000771  0.3347200  3
   2759   2757   2761  10222     1  180.0000771  0.0000000  2
   2760  10149  10151  10152     1  0.0000000  0.0000000  2
   2760  10149  10151  10154     1  0.0000000  0.0000000  2
   2761  10222  10224  10225     1  0.0000000  0.0000000  2
   2761  10222  10224  10227     1  0.0000000  0.0000000  2
   2762   2760  10149  10150     1  0.0000000  8.3680000  1
   2762   2760  10149  10150     1  180.0000771  10.4600000  2
   2763   2761  10222  10223     1  0.0000000  8.3680000  1
   2763   2761  10222  10223     1  180.0000771  10.4600000  2
   2766   2769   2789   2790     1  0.0000000  0.0000000  2
   2766   2772   2773   2774     1  0.0000000  1.2552000  3
   2766   2772   2773   2775     1  0.0000000  1.2552000  3
   2766   2772   2776   2777     1  0.0000000  1.2552000  3
   2766   2772   2776   2778     1  0.0000000  1.2552000  3
   2767   2766   2769   2789     1  0.0000000  0.6508444  3
   2767   2766   2769   2770     1  0.0000000  0.6508444  3
   2767   2766   2769   2771     1  0.0000000  0.6508444  3
   2767   2766   2772   2773     1  0.0000000  1.2552000  3
   2767   2766   2772   2776     1  0.0000000  1.2552000  3
   2768   2766   2769   2789     1  0.0000000  0.6508444  3
   2768   2766   2769   2770     1  0.0000000  0.6508444  3
   2768   2766   2769   2771     1  0.0000000  0.6508444  3
   2768   2766   2772   2773     1  0.0000000  1.2552000  3
   2768   2766   2772   2776     1  0.0000000  1.2552000  3
   2770   2769   2766   2772     1  0.0000000  0.6508444  3
   2770   2769   2789   2790     1  0.0000000  0.0000000  2
   2771   2769   2766   2772     1  0.0000000  0.6508444  3
   2771   2769   2789   2790     1  0.0000000  0.0000000  2
   2772   2773   2782   2783     1  0.0000000  0.6508444  3
   2772   2773   2782   2784     1  0.0000000  0.6508444  3
   2772   2776   2779   2780     1  0.0000000  0.6508444  3
   2772   2776   2779   2781     1  0.0000000  0.6508444  3
   2773   2772   2776   2777     1  0.0000000  1.2552000  3
   2773   2772   2776   2778     1  0.0000000  1.2552000  3
   2774   2773   2772   2776     1  0.0000000  1.2552000  3
   2774   2773   2782   2786     1  0.0000000  0.6508444  3
   2774   2773   2782   2783     1  0.0000000  0.6508444  3
   2774   2773   2782   2784     1  0.0000000  0.6508444  3
   2775   2773   2772   2776     1  0.0000000  1.2552000  3
   2775   2773   2782   2786     1  0.0000000  0.6508444  3
   2775   2773   2782   2783     1  0.0000000  0.6508444  3
   2775   2773   2782   2784     1  0.0000000  0.6508444  3
   2777   2776   2779   2785     1  0.0000000  0.6508444  3
   2777   2776   2779   2780     1  0.0000000  0.6508444  3
   2777   2776   2779   2781     1  0.0000000  0.6508444  3
   2778   2776   2779   2785     1  0.0000000  0.6508444  3
   2778   2776   2779   2780     1  0.0000000  0.6508444  3
   2778   2776   2779   2781     1  0.0000000  0.6508444  3
   2779   2785  10295  10296     1  180.0000771  10.4600000  2
   2780   2779   2785  10295     1  180.0000771  0.0000000  2
   2780   2779   2785   2787     1  0.0000000  3.3472000  1
   2780   2779   2785   2787     1  0.0000000  0.0000000  2
   2780   2779   2785   2787     1  180.0000771  0.3347200  3
   2781   2779   2785  10295     1  180.0000771  0.0000000  2
   2781   2779   2785   2787     1  0.0000000  3.3472000  1
   2781   2779   2785   2787     1  0.0000000  0.0000000  2
   2781   2779   2785   2787     1  180.0000771  0.3347200  3
   2782   2786  10368  10369     1  180.0000771  10.4600000  2
   2783   2782   2786   2788     1  0.0000000  3.3472000  1
   2783   2782   2786   2788     1  0.0000000  0.0000000  2
   2783   2782   2786   2788     1  180.0000771  0.3347200  3
   2783   2782   2786  10368     1  180.0000771  0.0000000  2
   2784   2782   2786   2788     1  0.0000000  3.3472000  1
   2784   2782   2786   2788     1  0.0000000  0.0000000  2
   2784   2782   2786   2788     1  180.0000771  0.3347200  3
   2784   2782   2786  10368     1  180.0000771  0.0000000  2
   2785  10295  10297  10298     1  0.0000000  0.0000000  2
   2785  10295  10297  10300     1  0.0000000  0.0000000  2
   2786  10368  10370  10371     1  0.0000000  0.0000000  2
   2786  10368  10370  10373     1  0.0000000  0.0000000  2
   2787   2785  10295  10296     1  0.0000000  8.3680000  1
   2787   2785  10295  10296     1  180.0000771  10.4600000  2
   2788   2786  10368  10369     1  0.0000000  8.3680000  1
   2788   2786  10368  10369     1  180.0000771  10.4600000  2
   2791   2794   2814   2815     1  0.0000000  0.0000000  2
   2791   2797   2798   2799     1  0.0000000  1.2552000  3
   2791   2797   2798   2800     1  0.0000000  1.2552000  3
   2791   2797   2801   2802     1  0.0000000  1.2552000  3
   2791   2797   2801   2803     1  0.0000000  1.2552000  3
   2792   2791   2794   2814     1  0.0000000  0.6508444  3
   2792   2791   2794   2795     1  0.0000000  0.6508444  3
   2792   2791   2794   2796     1  0.0000000  0.6508444  3
   2792   2791   2797   2798     1  0.0000000  1.2552000  3
   2792   2791   2797   2801     1  0.0000000  1.2552000  3
   2793   2791   2794   2814     1  0.0000000  0.6508444  3
   2793   2791   2794   2795     1  0.0000000  0.6508444  3
   2793   2791   2794   2796     1  0.0000000  0.6508444  3
   2793   2791   2797   2798     1  0.0000000  1.2552000  3
   2793   2791   2797   2801     1  0.0000000  1.2552000  3
   2795   2794   2791   2797     1  0.0000000  0.6508444  3
   2795   2794   2814   2815     1  0.0000000  0.0000000  2
   2796   2794   2791   2797     1  0.0000000  0.6508444  3
   2796   2794   2814   2815     1  0.0000000  0.0000000  2
   2797   2798   2807   2808     1  0.0000000  0.6508444  3
   2797   2798   2807   2809     1  0.0000000  0.6508444  3
   2797   2801   2804   2805     1  0.0000000  0.6508444  3
   2797   2801   2804   2806     1  0.0000000  0.6508444  3
   2798   2797   2801   2802     1  0.0000000  1.2552000  3
   2798   2797   2801   2803     1  0.0000000  1.2552000  3
   2799   2798   2797   2801     1  0.0000000  1.2552000  3
   2799   2798   2807   2811     1  0.0000000  0.6508444  3
   2799   2798   2807   2808     1  0.0000000  0.6508444  3
   2799   2798   2807   2809     1  0.0000000  0.6508444  3
   2800   2798   2797   2801     1  0.0000000  1.2552000  3
   2800   2798   2807   2811     1  0.0000000  0.6508444  3
   2800   2798   2807   2808     1  0.0000000  0.6508444  3
   2800   2798   2807   2809     1  0.0000000  0.6508444  3
   2802   2801   2804   2810     1  0.0000000  0.6508444  3
   2802   2801   2804   2805     1  0.0000000  0.6508444  3
   2802   2801   2804   2806     1  0.0000000  0.6508444  3
   2803   2801   2804   2810     1  0.0000000  0.6508444  3
   2803   2801   2804   2805     1  0.0000000  0.6508444  3
   2803   2801   2804   2806     1  0.0000000  0.6508444  3
   2804   2810  10441  10442     1  180.0000771  10.4600000  2
   2805   2804   2810  10441     1  180.0000771  0.0000000  2
   2805   2804   2810   2812     1  0.0000000  3.3472000  1
   2805   2804   2810   2812     1  0.0000000  0.0000000  2
   2805   2804   2810   2812     1  180.0000771  0.3347200  3
   2806   2804   2810  10441     1  180.0000771  0.0000000  2
   2806   2804   2810   2812     1  0.0000000  3.3472000  1
   2806   2804   2810   2812     1  0.0000000  0.0000000  2
   2806   2804   2810   2812     1  180.0000771  0.3347200  3
   2807   2811  10514  10515     1  180.0000771  10.4600000  2
   2808   2807   2811   2813     1  0.0000000  3.3472000  1
   2808   2807   2811   2813     1  0.0000000  0.0000000  2
   2808   2807   2811   2813     1  180.0000771  0.3347200  3
   2808   2807   2811  10514     1  180.0000771  0.0000000  2
   2809   2807   2811   2813     1  0.0000000  3.3472000  1
   2809   2807   2811   2813     1  0.0000000  0.0000000  2
   2809   2807   2811   2813     1  180.0000771  0.3347200  3
   2809   2807   2811  10514     1  180.0000771  0.0000000  2
   2810  10441  10443  10444     1  0.0000000  0.0000000  2
   2810  10441  10443  10446     1  0.0000000  0.0000000  2
   2811  10514  10516  10517     1  0.0000000  0.0000000  2
   2811  10514  10516  10519     1  0.0000000  0.0000000  2
   2812   2810  10441  10442     1  0.0000000  8.3680000  1
   2812   2810  10441  10442     1  180.0000771  10.4600000  2
   2813   2811  10514  10515     1  0.0000000  8.3680000  1
   2813   2811  10514  10515     1  180.0000771  10.4600000  2
   2816   2819   2839   2840     1  0.0000000  0.0000000  2
   2816   2822   2823   2824     1  0.0000000  1.2552000  3
   2816   2822   2823   2825     1  0.0000000  1.2552000  3
   2816   2822   2826   2827     1  0.0000000  1.2552000  3
   2816   2822   2826   2828     1  0.0000000  1.2552000  3
   2817   2816   2819   2839     1  0.0000000  0.6508444  3
   2817   2816   2819   2820     1  0.0000000  0.6508444  3
   2817   2816   2819   2821     1  0.0000000  0.6508444  3
   2817   2816   2822   2823     1  0.0000000  1.2552000  3
   2817   2816   2822   2826     1  0.0000000  1.2552000  3
   2818   2816   2819   2839     1  0.0000000  0.6508444  3
   2818   2816   2819   2820     1  0.0000000  0.6508444  3
   2818   2816   2819   2821     1  0.0000000  0.6508444  3
   2818   2816   2822   2823     1  0.0000000  1.2552000  3
   2818   2816   2822   2826     1  0.0000000  1.2552000  3
   2820   2819   2816   2822     1  0.0000000  0.6508444  3
   2820   2819   2839   2840     1  0.0000000  0.0000000  2
   2821   2819   2816   2822     1  0.0000000  0.6508444  3
   2821   2819   2839   2840     1  0.0000000  0.0000000  2
   2822   2823   2832   2833     1  0.0000000  0.6508444  3
   2822   2823   2832   2834     1  0.0000000  0.6508444  3
   2822   2826   2829   2830     1  0.0000000  0.6508444  3
   2822   2826   2829   2831     1  0.0000000  0.6508444  3
   2823   2822   2826   2827     1  0.0000000  1.2552000  3
   2823   2822   2826   2828     1  0.0000000  1.2552000  3
   2824   2823   2822   2826     1  0.0000000  1.2552000  3
   2824   2823   2832   2836     1  0.0000000  0.6508444  3
   2824   2823   2832   2833     1  0.0000000  0.6508444  3
   2824   2823   2832   2834     1  0.0000000  0.6508444  3
   2825   2823   2822   2826     1  0.0000000  1.2552000  3
   2825   2823   2832   2836     1  0.0000000  0.6508444  3
   2825   2823   2832   2833     1  0.0000000  0.6508444  3
   2825   2823   2832   2834     1  0.0000000  0.6508444  3
   2827   2826   2829   2835     1  0.0000000  0.6508444  3
   2827   2826   2829   2830     1  0.0000000  0.6508444  3
   2827   2826   2829   2831     1  0.0000000  0.6508444  3
   2828   2826   2829   2835     1  0.0000000  0.6508444  3
   2828   2826   2829   2830     1  0.0000000  0.6508444  3
   2828   2826   2829   2831     1  0.0000000  0.6508444  3
   2829   2835  10587  10588     1  180.0000771  10.4600000  2
   2830   2829   2835  10587     1  180.0000771  0.0000000  2
   2830   2829   2835   2837     1  0.0000000  3.3472000  1
   2830   2829   2835   2837     1  0.0000000  0.0000000  2
   2830   2829   2835   2837     1  180.0000771  0.3347200  3
   2831   2829   2835  10587     1  180.0000771  0.0000000  2
   2831   2829   2835   2837     1  0.0000000  3.3472000  1
   2831   2829   2835   2837     1  0.0000000  0.0000000  2
   2831   2829   2835   2837     1  180.0000771  0.3347200  3
   2832   2836  10660  10661     1  180.0000771  10.4600000  2
   2833   2832   2836   2838     1  0.0000000  3.3472000  1
   2833   2832   2836   2838     1  0.0000000  0.0000000  2
   2833   2832   2836   2838     1  180.0000771  0.3347200  3
   2833   2832   2836  10660     1  180.0000771  0.0000000  2
   2834   2832   2836   2838     1  0.0000000  3.3472000  1
   2834   2832   2836   2838     1  0.0000000  0.0000000  2
   2834   2832   2836   2838     1  180.0000771  0.3347200  3
   2834   2832   2836  10660     1  180.0000771  0.0000000  2
   2835  10587  10589  10590     1  0.0000000  0.0000000  2
   2835  10587  10589  10592     1  0.0000000  0.0000000  2
   2836  10660  10662  10663     1  0.0000000  0.0000000  2
   2836  10660  10662  10665     1  0.0000000  0.0000000  2
   2837   2835  10587  10588     1  0.0000000  8.3680000  1
   2837   2835  10587  10588     1  180.0000771  10.4600000  2
   2838   2836  10660  10661     1  0.0000000  8.3680000  1
   2838   2836  10660  10661     1  180.0000771  10.4600000  2
   2841   2844   2864   2865     1  0.0000000  0.0000000  2
   2841   2847   2848   2849     1  0.0000000  1.2552000  3
   2841   2847   2848   2850     1  0.0000000  1.2552000  3
   2841   2847   2851   2852     1  0.0000000  1.2552000  3
   2841   2847   2851   2853     1  0.0000000  1.2552000  3
   2842   2841   2844   2864     1  0.0000000  0.6508444  3
   2842   2841   2844   2845     1  0.0000000  0.6508444  3
   2842   2841   2844   2846     1  0.0000000  0.6508444  3
   2842   2841   2847   2848     1  0.0000000  1.2552000  3
   2842   2841   2847   2851     1  0.0000000  1.2552000  3
   2843   2841   2844   2864     1  0.0000000  0.6508444  3
   2843   2841   2844   2845     1  0.0000000  0.6508444  3
   2843   2841   2844   2846     1  0.0000000  0.6508444  3
   2843   2841   2847   2848     1  0.0000000  1.2552000  3
   2843   2841   2847   2851     1  0.0000000  1.2552000  3
   2845   2844   2841   2847     1  0.0000000  0.6508444  3
   2845   2844   2864   2865     1  0.0000000  0.0000000  2
   2846   2844   2841   2847     1  0.0000000  0.6508444  3
   2846   2844   2864   2865     1  0.0000000  0.0000000  2
   2847   2848   2857   2858     1  0.0000000  0.6508444  3
   2847   2848   2857   2859     1  0.0000000  0.6508444  3
   2847   2851   2854   2855     1  0.0000000  0.6508444  3
   2847   2851   2854   2856     1  0.0000000  0.6508444  3
   2848   2847   2851   2852     1  0.0000000  1.2552000  3
   2848   2847   2851   2853     1  0.0000000  1.2552000  3
   2849   2848   2847   2851     1  0.0000000  1.2552000  3
   2849   2848   2857   2861     1  0.0000000  0.6508444  3
   2849   2848   2857   2858     1  0.0000000  0.6508444  3
   2849   2848   2857   2859     1  0.0000000  0.6508444  3
   2850   2848   2847   2851     1  0.0000000  1.2552000  3
   2850   2848   2857   2861     1  0.0000000  0.6508444  3
   2850   2848   2857   2858     1  0.0000000  0.6508444  3
   2850   2848   2857   2859     1  0.0000000  0.6508444  3
   2852   2851   2854   2860     1  0.0000000  0.6508444  3
   2852   2851   2854   2855     1  0.0000000  0.6508444  3
   2852   2851   2854   2856     1  0.0000000  0.6508444  3
   2853   2851   2854   2860     1  0.0000000  0.6508444  3
   2853   2851   2854   2855     1  0.0000000  0.6508444  3
   2853   2851   2854   2856     1  0.0000000  0.6508444  3
   2854   2860  10733  10734     1  180.0000771  10.4600000  2
   2855   2854   2860  10733     1  180.0000771  0.0000000  2
   2855   2854   2860   2862     1  0.0000000  3.3472000  1
   2855   2854   2860   2862     1  0.0000000  0.0000000  2
   2855   2854   2860   2862     1  180.0000771  0.3347200  3
   2856   2854   2860  10733     1  180.0000771  0.0000000  2
   2856   2854   2860   2862     1  0.0000000  3.3472000  1
   2856   2854   2860   2862     1  0.0000000  0.0000000  2
   2856   2854   2860   2862     1  180.0000771  0.3347200  3
   2857   2861  10806  10807     1  180.0000771  10.4600000  2
   2858   2857   2861   2863     1  0.0000000  3.3472000  1
   2858   2857   2861   2863     1  0.0000000  0.0000000  2
   2858   2857   2861   2863     1  180.0000771  0.3347200  3
   2858   2857   2861  10806     1  180.0000771  0.0000000  2
   2859   2857   2861   2863     1  0.0000000  3.3472000  1
   2859   2857   2861   2863     1  0.0000000  0.0000000  2
   2859   2857   2861   2863     1  180.0000771  0.3347200  3
   2859   2857   2861  10806     1  180.0000771  0.0000000  2
   2860  10733  10735  10736     1  0.0000000  0.0000000  2
   2860  10733  10735  10738     1  0.0000000  0.0000000  2
   2861  10806  10808  10809     1  0.0000000  0.0000000  2
   2861  10806  10808  10811     1  0.0000000  0.0000000  2
   2862   2860  10733  10734     1  0.0000000  8.3680000  1
   2862   2860  10733  10734     1  180.0000771  10.4600000  2
   2863   2861  10806  10807     1  0.0000000  8.3680000  1
   2863   2861  10806  10807     1  180.0000771  10.4600000  2
   2866   2869   2889   2890     1  0.0000000  0.0000000  2
   2866   2872   2873   2874     1  0.0000000  1.2552000  3
   2866   2872   2873   2875     1  0.0000000  1.2552000  3
   2866   2872   2876   2877     1  0.0000000  1.2552000  3
   2866   2872   2876   2878     1  0.0000000  1.2552000  3
   2867   2866   2869   2889     1  0.0000000  0.6508444  3
   2867   2866   2869   2870     1  0.0000000  0.6508444  3
   2867   2866   2869   2871     1  0.0000000  0.6508444  3
   2867   2866   2872   2873     1  0.0000000  1.2552000  3
   2867   2866   2872   2876     1  0.0000000  1.2552000  3
   2868   2866   2869   2889     1  0.0000000  0.6508444  3
   2868   2866   2869   2870     1  0.0000000  0.6508444  3
   2868   2866   2869   2871     1  0.0000000  0.6508444  3
   2868   2866   2872   2873     1  0.0000000  1.2552000  3
   2868   2866   2872   2876     1  0.0000000  1.2552000  3
   2870   2869   2866   2872     1  0.0000000  0.6508444  3
   2870   2869   2889   2890     1  0.0000000  0.0000000  2
   2871   2869   2866   2872     1  0.0000000  0.6508444  3
   2871   2869   2889   2890     1  0.0000000  0.0000000  2
   2872   2873   2882   2883     1  0.0000000  0.6508444  3
   2872   2873   2882   2884     1  0.0000000  0.6508444  3
   2872   2876   2879   2880     1  0.0000000  0.6508444  3
   2872   2876   2879   2881     1  0.0000000  0.6508444  3
   2873   2872   2876   2877     1  0.0000000  1.2552000  3
   2873   2872   2876   2878     1  0.0000000  1.2552000  3
   2874   2873   2872   2876     1  0.0000000  1.2552000  3
   2874   2873   2882   2886     1  0.0000000  0.6508444  3
   2874   2873   2882   2883     1  0.0000000  0.6508444  3
   2874   2873   2882   2884     1  0.0000000  0.6508444  3
   2875   2873   2872   2876     1  0.0000000  1.2552000  3
   2875   2873   2882   2886     1  0.0000000  0.6508444  3
   2875   2873   2882   2883     1  0.0000000  0.6508444  3
   2875   2873   2882   2884     1  0.0000000  0.6508444  3
   2877   2876   2879   2885     1  0.0000000  0.6508444  3
   2877   2876   2879   2880     1  0.0000000  0.6508444  3
   2877   2876   2879   2881     1  0.0000000  0.6508444  3
   2878   2876   2879   2885     1  0.0000000  0.6508444  3
   2878   2876   2879   2880     1  0.0000000  0.6508444  3
   2878   2876   2879   2881     1  0.0000000  0.6508444  3
   2879   2885  10879  10880     1  180.0000771  10.4600000  2
   2880   2879   2885  10879     1  180.0000771  0.0000000  2
   2880   2879   2885   2887     1  0.0000000  3.3472000  1
   2880   2879   2885   2887     1  0.0000000  0.0000000  2
   2880   2879   2885   2887     1  180.0000771  0.3347200  3
   2881   2879   2885  10879     1  180.0000771  0.0000000  2
   2881   2879   2885   2887     1  0.0000000  3.3472000  1
   2881   2879   2885   2887     1  0.0000000  0.0000000  2
   2881   2879   2885   2887     1  180.0000771  0.3347200  3
   2882   2886  10952  10953     1  180.0000771  10.4600000  2
   2883   2882   2886   2888     1  0.0000000  3.3472000  1
   2883   2882   2886   2888     1  0.0000000  0.0000000  2
   2883   2882   2886   2888     1  180.0000771  0.3347200  3
   2883   2882   2886  10952     1  180.0000771  0.0000000  2
   2884   2882   2886   2888     1  0.0000000  3.3472000  1
   2884   2882   2886   2888     1  0.0000000  0.0000000  2
   2884   2882   2886   2888     1  180.0000771  0.3347200  3
   2884   2882   2886  10952     1  180.0000771  0.0000000  2
   2885  10879  10881  10882     1  0.0000000  0.0000000  2
   2885  10879  10881  10884     1  0.0000000  0.0000000  2
   2886  10952  10954  10955     1  0.0000000  0.0000000  2
   2886  10952  10954  10957     1  0.0000000  0.0000000  2
   2887   2885  10879  10880     1  0.0000000  8.3680000  1
   2887   2885  10879  10880     1  180.0000771  10.4600000  2
   2888   2886  10952  10953     1  0.0000000  8.3680000  1
   2888   2886  10952  10953     1  180.0000771  10.4600000  2
   2891   2894   2914   2915     1  0.0000000  0.0000000  2
   2891   2897   2898   2899     1  0.0000000  1.2552000  3
   2891   2897   2898   2900     1  0.0000000  1.2552000  3
   2891   2897   2901   2902     1  0.0000000  1.2552000  3
   2891   2897   2901   2903     1  0.0000000  1.2552000  3
   2892   2891   2894   2914     1  0.0000000  0.6508444  3
   2892   2891   2894   2895     1  0.0000000  0.6508444  3
   2892   2891   2894   2896     1  0.0000000  0.6508444  3
   2892   2891   2897   2898     1  0.0000000  1.2552000  3
   2892   2891   2897   2901     1  0.0000000  1.2552000  3
   2893   2891   2894   2914     1  0.0000000  0.6508444  3
   2893   2891   2894   2895     1  0.0000000  0.6508444  3
   2893   2891   2894   2896     1  0.0000000  0.6508444  3
   2893   2891   2897   2898     1  0.0000000  1.2552000  3
   2893   2891   2897   2901     1  0.0000000  1.2552000  3
   2895   2894   2891   2897     1  0.0000000  0.6508444  3
   2895   2894   2914   2915     1  0.0000000  0.0000000  2
   2896   2894   2891   2897     1  0.0000000  0.6508444  3
   2896   2894   2914   2915     1  0.0000000  0.0000000  2
   2897   2898   2907   2908     1  0.0000000  0.6508444  3
   2897   2898   2907   2909     1  0.0000000  0.6508444  3
   2897   2901   2904   2905     1  0.0000000  0.6508444  3
   2897   2901   2904   2906     1  0.0000000  0.6508444  3
   2898   2897   2901   2902     1  0.0000000  1.2552000  3
   2898   2897   2901   2903     1  0.0000000  1.2552000  3
   2899   2898   2897   2901     1  0.0000000  1.2552000  3
   2899   2898   2907   2911     1  0.0000000  0.6508444  3
   2899   2898   2907   2908     1  0.0000000  0.6508444  3
   2899   2898   2907   2909     1  0.0000000  0.6508444  3
   2900   2898   2897   2901     1  0.0000000  1.2552000  3
   2900   2898   2907   2911     1  0.0000000  0.6508444  3
   2900   2898   2907   2908     1  0.0000000  0.6508444  3
   2900   2898   2907   2909     1  0.0000000  0.6508444  3
   2902   2901   2904   2910     1  0.0000000  0.6508444  3
   2902   2901   2904   2905     1  0.0000000  0.6508444  3
   2902   2901   2904   2906     1  0.0000000  0.6508444  3
   2903   2901   2904   2910     1  0.0000000  0.6508444  3
   2903   2901   2904   2905     1  0.0000000  0.6508444  3
   2903   2901   2904   2906     1  0.0000000  0.6508444  3
   2904   2910  11025  11026     1  180.0000771  10.4600000  2
   2905   2904   2910  11025     1  180.0000771  0.0000000  2
   2905   2904   2910   2912     1  0.0000000  3.3472000  1
   2905   2904   2910   2912     1  0.0000000  0.0000000  2
   2905   2904   2910   2912     1  180.0000771  0.3347200  3
   2906   2904   2910  11025     1  180.0000771  0.0000000  2
   2906   2904   2910   2912     1  0.0000000  3.3472000  1
   2906   2904   2910   2912     1  0.0000000  0.0000000  2
   2906   2904   2910   2912     1  180.0000771  0.3347200  3
   2907   2911  11098  11099     1  180.0000771  10.4600000  2
   2908   2907   2911   2913     1  0.0000000  3.3472000  1
   2908   2907   2911   2913     1  0.0000000  0.0000000  2
   2908   2907   2911   2913     1  180.0000771  0.3347200  3
   2908   2907   2911  11098     1  180.0000771  0.0000000  2
   2909   2907   2911   2913     1  0.0000000  3.3472000  1
   2909   2907   2911   2913     1  0.0000000  0.0000000  2
   2909   2907   2911   2913     1  180.0000771  0.3347200  3
   2909   2907   2911  11098     1  180.0000771  0.0000000  2
   2910  11025  11027  11028     1  0.0000000  0.0000000  2
   2910  11025  11027  11030     1  0.0000000  0.0000000  2
   2911  11098  11100  11101     1  0.0000000  0.0000000  2
   2911  11098  11100  11103     1  0.0000000  0.0000000  2
   2912   2910  11025  11026     1  0.0000000  8.3680000  1
   2912   2910  11025  11026     1  180.0000771  10.4600000  2
   2913   2911  11098  11099     1  0.0000000  8.3680000  1
   2913   2911  11098  11099     1  180.0000771  10.4600000  2
   2916   2919   2939   2940     1  0.0000000  0.0000000  2
   2916   2922   2923   2924     1  0.0000000  1.2552000  3
   2916   2922   2923   2925     1  0.0000000  1.2552000  3
   2916   2922   2926   2927     1  0.0000000  1.2552000  3
   2916   2922   2926   2928     1  0.0000000  1.2552000  3
   2917   2916   2919   2939     1  0.0000000  0.6508444  3
   2917   2916   2919   2920     1  0.0000000  0.6508444  3
   2917   2916   2919   2921     1  0.0000000  0.6508444  3
   2917   2916   2922   2923     1  0.0000000  1.2552000  3
   2917   2916   2922   2926     1  0.0000000  1.2552000  3
   2918   2916   2919   2939     1  0.0000000  0.6508444  3
   2918   2916   2919   2920     1  0.0000000  0.6508444  3
   2918   2916   2919   2921     1  0.0000000  0.6508444  3
   2918   2916   2922   2923     1  0.0000000  1.2552000  3
   2918   2916   2922   2926     1  0.0000000  1.2552000  3
   2920   2919   2916   2922     1  0.0000000  0.6508444  3
   2920   2919   2939   2940     1  0.0000000  0.0000000  2
   2921   2919   2916   2922     1  0.0000000  0.6508444  3
   2921   2919   2939   2940     1  0.0000000  0.0000000  2
   2922   2923   2932   2933     1  0.0000000  0.6508444  3
   2922   2923   2932   2934     1  0.0000000  0.6508444  3
   2922   2926   2929   2930     1  0.0000000  0.6508444  3
   2922   2926   2929   2931     1  0.0000000  0.6508444  3
   2923   2922   2926   2927     1  0.0000000  1.2552000  3
   2923   2922   2926   2928     1  0.0000000  1.2552000  3
   2924   2923   2922   2926     1  0.0000000  1.2552000  3
   2924   2923   2932   2936     1  0.0000000  0.6508444  3
   2924   2923   2932   2933     1  0.0000000  0.6508444  3
   2924   2923   2932   2934     1  0.0000000  0.6508444  3
   2925   2923   2922   2926     1  0.0000000  1.2552000  3
   2925   2923   2932   2936     1  0.0000000  0.6508444  3
   2925   2923   2932   2933     1  0.0000000  0.6508444  3
   2925   2923   2932   2934     1  0.0000000  0.6508444  3
   2927   2926   2929   2935     1  0.0000000  0.6508444  3
   2927   2926   2929   2930     1  0.0000000  0.6508444  3
   2927   2926   2929   2931     1  0.0000000  0.6508444  3
   2928   2926   2929   2935     1  0.0000000  0.6508444  3
   2928   2926   2929   2930     1  0.0000000  0.6508444  3
   2928   2926   2929   2931     1  0.0000000  0.6508444  3
   2929   2935  11171  11172     1  180.0000771  10.4600000  2
   2930   2929   2935  11171     1  180.0000771  0.0000000  2
   2930   2929   2935   2937     1  0.0000000  3.3472000  1
   2930   2929   2935   2937     1  0.0000000  0.0000000  2
   2930   2929   2935   2937     1  180.0000771  0.3347200  3
   2931   2929   2935  11171     1  180.0000771  0.0000000  2
   2931   2929   2935   2937     1  0.0000000  3.3472000  1
   2931   2929   2935   2937     1  0.0000000  0.0000000  2
   2931   2929   2935   2937     1  180.0000771  0.3347200  3
   2932   2936  11244  11245     1  180.0000771  10.4600000  2
   2933   2932   2936   2938     1  0.0000000  3.3472000  1
   2933   2932   2936   2938     1  0.0000000  0.0000000  2
   2933   2932   2936   2938     1  180.0000771  0.3347200  3
   2933   2932   2936  11244     1  180.0000771  0.0000000  2
   2934   2932   2936   2938     1  0.0000000  3.3472000  1
   2934   2932   2936   2938     1  0.0000000  0.0000000  2
   2934   2932   2936   2938     1  180.0000771  0.3347200  3
   2934   2932   2936  11244     1  180.0000771  0.0000000  2
   2935  11171  11173  11174     1  0.0000000  0.0000000  2
   2935  11171  11173  11176     1  0.0000000  0.0000000  2
   2936  11244  11246  11247     1  0.0000000  0.0000000  2
   2936  11244  11246  11249     1  0.0000000  0.0000000  2
   2937   2935  11171  11172     1  0.0000000  8.3680000  1
   2937   2935  11171  11172     1  180.0000771  10.4600000  2
   2938   2936  11244  11245     1  0.0000000  8.3680000  1
   2938   2936  11244  11245     1  180.0000771  10.4600000  2
   2941   2944   2964   2965     1  0.0000000  0.0000000  2
   2941   2947   2948   2949     1  0.0000000  1.2552000  3
   2941   2947   2948   2950     1  0.0000000  1.2552000  3
   2941   2947   2951   2952     1  0.0000000  1.2552000  3
   2941   2947   2951   2953     1  0.0000000  1.2552000  3
   2942   2941   2944   2964     1  0.0000000  0.6508444  3
   2942   2941   2944   2945     1  0.0000000  0.6508444  3
   2942   2941   2944   2946     1  0.0000000  0.6508444  3
   2942   2941   2947   2948     1  0.0000000  1.2552000  3
   2942   2941   2947   2951     1  0.0000000  1.2552000  3
   2943   2941   2944   2964     1  0.0000000  0.6508444  3
   2943   2941   2944   2945     1  0.0000000  0.6508444  3
   2943   2941   2944   2946     1  0.0000000  0.6508444  3
   2943   2941   2947   2948     1  0.0000000  1.2552000  3
   2943   2941   2947   2951     1  0.0000000  1.2552000  3
   2945   2944   2941   2947     1  0.0000000  0.6508444  3
   2945   2944   2964   2965     1  0.0000000  0.0000000  2
   2946   2944   2941   2947     1  0.0000000  0.6508444  3
   2946   2944   2964   2965     1  0.0000000  0.0000000  2
   2947   2948   2957   2958     1  0.0000000  0.6508444  3
   2947   2948   2957   2959     1  0.0000000  0.6508444  3
   2947   2951   2954   2955     1  0.0000000  0.6508444  3
   2947   2951   2954   2956     1  0.0000000  0.6508444  3
   2948   2947   2951   2952     1  0.0000000  1.2552000  3
   2948   2947   2951   2953     1  0.0000000  1.2552000  3
   2949   2948   2947   2951     1  0.0000000  1.2552000  3
   2949   2948   2957   2961     1  0.0000000  0.6508444  3
   2949   2948   2957   2958     1  0.0000000  0.6508444  3
   2949   2948   2957   2959     1  0.0000000  0.6508444  3
   2950   2948   2947   2951     1  0.0000000  1.2552000  3
   2950   2948   2957   2961     1  0.0000000  0.6508444  3
   2950   2948   2957   2958     1  0.0000000  0.6508444  3
   2950   2948   2957   2959     1  0.0000000  0.6508444  3
   2952   2951   2954   2960     1  0.0000000  0.6508444  3
   2952   2951   2954   2955     1  0.0000000  0.6508444  3
   2952   2951   2954   2956     1  0.0000000  0.6508444  3
   2953   2951   2954   2960     1  0.0000000  0.6508444  3
   2953   2951   2954   2955     1  0.0000000  0.6508444  3
   2953   2951   2954   2956     1  0.0000000  0.6508444  3
   2954   2960  11317  11318     1  180.0000771  10.4600000  2
   2955   2954   2960  11317     1  180.0000771  0.0000000  2
   2955   2954   2960   2962     1  0.0000000  3.3472000  1
   2955   2954   2960   2962     1  0.0000000  0.0000000  2
   2955   2954   2960   2962     1  180.0000771  0.3347200  3
   2956   2954   2960  11317     1  180.0000771  0.0000000  2
   2956   2954   2960   2962     1  0.0000000  3.3472000  1
   2956   2954   2960   2962     1  0.0000000  0.0000000  2
   2956   2954   2960   2962     1  180.0000771  0.3347200  3
   2957   2961  11390  11391     1  180.0000771  10.4600000  2
   2958   2957   2961   2963     1  0.0000000  3.3472000  1
   2958   2957   2961   2963     1  0.0000000  0.0000000  2
   2958   2957   2961   2963     1  180.0000771  0.3347200  3
   2958   2957   2961  11390     1  180.0000771  0.0000000  2
   2959   2957   2961   2963     1  0.0000000  3.3472000  1
   2959   2957   2961   2963     1  0.0000000  0.0000000  2
   2959   2957   2961   2963     1  180.0000771  0.3347200  3
   2959   2957   2961  11390     1  180.0000771  0.0000000  2
   2960  11317  11319  11320     1  0.0000000  0.0000000  2
   2960  11317  11319  11322     1  0.0000000  0.0000000  2
   2961  11390  11392  11393     1  0.0000000  0.0000000  2
   2961  11390  11392  11395     1  0.0000000  0.0000000  2
   2962   2960  11317  11318     1  0.0000000  8.3680000  1
   2962   2960  11317  11318     1  180.0000771  10.4600000  2
   2963   2961  11390  11391     1  0.0000000  8.3680000  1
   2963   2961  11390  11391     1  180.0000771  10.4600000  2
   2966   2969   2989   2990     1  0.0000000  0.0000000  2
   2966   2972   2973   2974     1  0.0000000  1.2552000  3
   2966   2972   2973   2975     1  0.0000000  1.2552000  3
   2966   2972   2976   2977     1  0.0000000  1.2552000  3
   2966   2972   2976   2978     1  0.0000000  1.2552000  3
   2967   2966   2969   2989     1  0.0000000  0.6508444  3
   2967   2966   2969   2970     1  0.0000000  0.6508444  3
   2967   2966   2969   2971     1  0.0000000  0.6508444  3
   2967   2966   2972   2973     1  0.0000000  1.2552000  3
   2967   2966   2972   2976     1  0.0000000  1.2552000  3
   2968   2966   2969   2989     1  0.0000000  0.6508444  3
   2968   2966   2969   2970     1  0.0000000  0.6508444  3
   2968   2966   2969   2971     1  0.0000000  0.6508444  3
   2968   2966   2972   2973     1  0.0000000  1.2552000  3
   2968   2966   2972   2976     1  0.0000000  1.2552000  3
   2970   2969   2966   2972     1  0.0000000  0.6508444  3
   2970   2969   2989   2990     1  0.0000000  0.0000000  2
   2971   2969   2966   2972     1  0.0000000  0.6508444  3
   2971   2969   2989   2990     1  0.0000000  0.0000000  2
   2972   2973   2982   2983     1  0.0000000  0.6508444  3
   2972   2973   2982   2984     1  0.0000000  0.6508444  3
   2972   2976   2979   2980     1  0.0000000  0.6508444  3
   2972   2976   2979   2981     1  0.0000000  0.6508444  3
   2973   2972   2976   2977     1  0.0000000  1.2552000  3
   2973   2972   2976   2978     1  0.0000000  1.2552000  3
   2974   2973   2972   2976     1  0.0000000  1.2552000  3
   2974   2973   2982   2986     1  0.0000000  0.6508444  3
   2974   2973   2982   2983     1  0.0000000  0.6508444  3
   2974   2973   2982   2984     1  0.0000000  0.6508444  3
   2975   2973   2972   2976     1  0.0000000  1.2552000  3
   2975   2973   2982   2986     1  0.0000000  0.6508444  3
   2975   2973   2982   2983     1  0.0000000  0.6508444  3
   2975   2973   2982   2984     1  0.0000000  0.6508444  3
   2977   2976   2979   2985     1  0.0000000  0.6508444  3
   2977   2976   2979   2980     1  0.0000000  0.6508444  3
   2977   2976   2979   2981     1  0.0000000  0.6508444  3
   2978   2976   2979   2985     1  0.0000000  0.6508444  3
   2978   2976   2979   2980     1  0.0000000  0.6508444  3
   2978   2976   2979   2981     1  0.0000000  0.6508444  3
   2979   2985  11463  11464     1  180.0000771  10.4600000  2
   2980   2979   2985  11463     1  180.0000771  0.0000000  2
   2980   2979   2985   2987     1  0.0000000  3.3472000  1
   2980   2979   2985   2987     1  0.0000000  0.0000000  2
   2980   2979   2985   2987     1  180.0000771  0.3347200  3
   2981   2979   2985  11463     1  180.0000771  0.0000000  2
   2981   2979   2985   2987     1  0.0000000  3.3472000  1
   2981   2979   2985   2987     1  0.0000000  0.0000000  2
   2981   2979   2985   2987     1  180.0000771  0.3347200  3
   2982   2986  11536  11537     1  180.0000771  10.4600000  2
   2983   2982   2986   2988     1  0.0000000  3.3472000  1
   2983   2982   2986   2988     1  0.0000000  0.0000000  2
   2983   2982   2986   2988     1  180.0000771  0.3347200  3
   2983   2982   2986  11536     1  180.0000771  0.0000000  2
   2984   2982   2986   2988     1  0.0000000  3.3472000  1
   2984   2982   2986   2988     1  0.0000000  0.0000000  2
   2984   2982   2986   2988     1  180.0000771  0.3347200  3
   2984   2982   2986  11536     1  180.0000771  0.0000000  2
   2985  11463  11465  11466     1  0.0000000  0.0000000  2
   2985  11463  11465  11468     1  0.0000000  0.0000000  2
   2986  11536  11538  11539     1  0.0000000  0.0000000  2
   2986  11536  11538  11541     1  0.0000000  0.0000000  2
   2987   2985  11463  11464     1  0.0000000  8.3680000  1
   2987   2985  11463  11464     1  180.0000771  10.4600000  2
   2988   2986  11536  11537     1  0.0000000  8.3680000  1
   2988   2986  11536  11537     1  180.0000771  10.4600000  2
   2991   2994   3014   3015     1  0.0000000  0.0000000  2
   2991   2997   2998   2999     1  0.0000000  1.2552000  3
   2991   2997   2998   3000     1  0.0000000  1.2552000  3
   2991   2997   3001   3002     1  0.0000000  1.2552000  3
   2991   2997   3001   3003     1  0.0000000  1.2552000  3
   2992   2991   2994   3014     1  0.0000000  0.6508444  3
   2992   2991   2994   2995     1  0.0000000  0.6508444  3
   2992   2991   2994   2996     1  0.0000000  0.6508444  3
   2992   2991   2997   2998     1  0.0000000  1.2552000  3
   2992   2991   2997   3001     1  0.0000000  1.2552000  3
   2993   2991   2994   3014     1  0.0000000  0.6508444  3
   2993   2991   2994   2995     1  0.0000000  0.6508444  3
   2993   2991   2994   2996     1  0.0000000  0.6508444  3
   2993   2991   2997   2998     1  0.0000000  1.2552000  3
   2993   2991   2997   3001     1  0.0000000  1.2552000  3
   2995   2994   2991   2997     1  0.0000000  0.6508444  3
   2995   2994   3014   3015     1  0.0000000  0.0000000  2
   2996   2994   2991   2997     1  0.0000000  0.6508444  3
   2996   2994   3014   3015     1  0.0000000  0.0000000  2
   2997   2998   3007   3008     1  0.0000000  0.6508444  3
   2997   2998   3007   3009     1  0.0000000  0.6508444  3
   2997   3001   3004   3005     1  0.0000000  0.6508444  3
   2997   3001   3004   3006     1  0.0000000  0.6508444  3
   2998   2997   3001   3002     1  0.0000000  1.2552000  3
   2998   2997   3001   3003     1  0.0000000  1.2552000  3
   2999   2998   2997   3001     1  0.0000000  1.2552000  3
   2999   2998   3007   3011     1  0.0000000  0.6508444  3
   2999   2998   3007   3008     1  0.0000000  0.6508444  3
   2999   2998   3007   3009     1  0.0000000  0.6508444  3
   3000   2998   2997   3001     1  0.0000000  1.2552000  3
   3000   2998   3007   3011     1  0.0000000  0.6508444  3
   3000   2998   3007   3008     1  0.0000000  0.6508444  3
   3000   2998   3007   3009     1  0.0000000  0.6508444  3
   3002   3001   3004   3010     1  0.0000000  0.6508444  3
   3002   3001   3004   3005     1  0.0000000  0.6508444  3
   3002   3001   3004   3006     1  0.0000000  0.6508444  3
   3003   3001   3004   3010     1  0.0000000  0.6508444  3
   3003   3001   3004   3005     1  0.0000000  0.6508444  3
   3003   3001   3004   3006     1  0.0000000  0.6508444  3
   3004   3010  11609  11610     1  180.0000771  10.4600000  2
   3005   3004   3010  11609     1  180.0000771  0.0000000  2
   3005   3004   3010   3012     1  0.0000000  3.3472000  1
   3005   3004   3010   3012     1  0.0000000  0.0000000  2
   3005   3004   3010   3012     1  180.0000771  0.3347200  3
   3006   3004   3010  11609     1  180.0000771  0.0000000  2
   3006   3004   3010   3012     1  0.0000000  3.3472000  1
   3006   3004   3010   3012     1  0.0000000  0.0000000  2
   3006   3004   3010   3012     1  180.0000771  0.3347200  3
   3007   3011  11682  11683     1  180.0000771  10.4600000  2
   3008   3007   3011   3013     1  0.0000000  3.3472000  1
   3008   3007   3011   3013     1  0.0000000  0.0000000  2
   3008   3007   3011   3013     1  180.0000771  0.3347200  3
   3008   3007   3011  11682     1  180.0000771  0.0000000  2
   3009   3007   3011   3013     1  0.0000000  3.3472000  1
   3009   3007   3011   3013     1  0.0000000  0.0000000  2
   3009   3007   3011   3013     1  180.0000771  0.3347200  3
   3009   3007   3011  11682     1  180.0000771  0.0000000  2
   3010  11609  11611  11612     1  0.0000000  0.0000000  2
   3010  11609  11611  11614     1  0.0000000  0.0000000  2
   3011  11682  11684  11685     1  0.0000000  0.0000000  2
   3011  11682  11684  11687     1  0.0000000  0.0000000  2
   3012   3010  11609  11610     1  0.0000000  8.3680000  1
   3012   3010  11609  11610     1  180.0000771  10.4600000  2
   3013   3011  11682  11683     1  0.0000000  8.3680000  1
   3013   3011  11682  11683     1  180.0000771  10.4600000  2
   3016   3019   3039   3040     1  0.0000000  0.0000000  2
   3016   3022   3023   3024     1  0.0000000  1.2552000  3
   3016   3022   3023   3025     1  0.0000000  1.2552000  3
   3016   3022   3026   3027     1  0.0000000  1.2552000  3
   3016   3022   3026   3028     1  0.0000000  1.2552000  3
   3017   3016   3019   3039     1  0.0000000  0.6508444  3
   3017   3016   3019   3020     1  0.0000000  0.6508444  3
   3017   3016   3019   3021     1  0.0000000  0.6508444  3
   3017   3016   3022   3023     1  0.0000000  1.2552000  3
   3017   3016   3022   3026     1  0.0000000  1.2552000  3
   3018   3016   3019   3039     1  0.0000000  0.6508444  3
   3018   3016   3019   3020     1  0.0000000  0.6508444  3
   3018   3016   3019   3021     1  0.0000000  0.6508444  3
   3018   3016   3022   3023     1  0.0000000  1.2552000  3
   3018   3016   3022   3026     1  0.0000000  1.2552000  3
   3020   3019   3016   3022     1  0.0000000  0.6508444  3
   3020   3019   3039   3040     1  0.0000000  0.0000000  2
   3021   3019   3016   3022     1  0.0000000  0.6508444  3
   3021   3019   3039   3040     1  0.0000000  0.0000000  2
   3022   3023   3032   3033     1  0.0000000  0.6508444  3
   3022   3023   3032   3034     1  0.0000000  0.6508444  3
   3022   3026   3029   3030     1  0.0000000  0.6508444  3
   3022   3026   3029   3031     1  0.0000000  0.6508444  3
   3023   3022   3026   3027     1  0.0000000  1.2552000  3
   3023   3022   3026   3028     1  0.0000000  1.2552000  3
   3024   3023   3022   3026     1  0.0000000  1.2552000  3
   3024   3023   3032   3036     1  0.0000000  0.6508444  3
   3024   3023   3032   3033     1  0.0000000  0.6508444  3
   3024   3023   3032   3034     1  0.0000000  0.6508444  3
   3025   3023   3022   3026     1  0.0000000  1.2552000  3
   3025   3023   3032   3036     1  0.0000000  0.6508444  3
   3025   3023   3032   3033     1  0.0000000  0.6508444  3
   3025   3023   3032   3034     1  0.0000000  0.6508444  3
   3027   3026   3029   3035     1  0.0000000  0.6508444  3
   3027   3026   3029   3030     1  0.0000000  0.6508444  3
   3027   3026   3029   3031     1  0.0000000  0.6508444  3
   3028   3026   3029   3035     1  0.0000000  0.6508444  3
   3028   3026   3029   3030     1  0.0000000  0.6508444  3
   3028   3026   3029   3031     1  0.0000000  0.6508444  3
   3029   3035  11755  11756     1  180.0000771  10.4600000  2
   3030   3029   3035  11755     1  180.0000771  0.0000000  2
   3030   3029   3035   3037     1  0.0000000  3.3472000  1
   3030   3029   3035   3037     1  0.0000000  0.0000000  2
   3030   3029   3035   3037     1  180.0000771  0.3347200  3
   3031   3029   3035  11755     1  180.0000771  0.0000000  2
   3031   3029   3035   3037     1  0.0000000  3.3472000  1
   3031   3029   3035   3037     1  0.0000000  0.0000000  2
   3031   3029   3035   3037     1  180.0000771  0.3347200  3
   3032   3036  11828  11829     1  180.0000771  10.4600000  2
   3033   3032   3036   3038     1  0.0000000  3.3472000  1
   3033   3032   3036   3038     1  0.0000000  0.0000000  2
   3033   3032   3036   3038     1  180.0000771  0.3347200  3
   3033   3032   3036  11828     1  180.0000771  0.0000000  2
   3034   3032   3036   3038     1  0.0000000  3.3472000  1
   3034   3032   3036   3038     1  0.0000000  0.0000000  2
   3034   3032   3036   3038     1  180.0000771  0.3347200  3
   3034   3032   3036  11828     1  180.0000771  0.0000000  2
   3035  11755  11757  11758     1  0.0000000  0.0000000  2
   3035  11755  11757  11760     1  0.0000000  0.0000000  2
   3036  11828  11830  11831     1  0.0000000  0.0000000  2
   3036  11828  11830  11833     1  0.0000000  0.0000000  2
   3037   3035  11755  11756     1  0.0000000  8.3680000  1
   3037   3035  11755  11756     1  180.0000771  10.4600000  2
   3038   3036  11828  11829     1  0.0000000  8.3680000  1
   3038   3036  11828  11829     1  180.0000771  10.4600000  2
   3041   3044   3064   3065     1  0.0000000  0.0000000  2
   3041   3047   3048   3049     1  0.0000000  1.2552000  3
   3041   3047   3048   3050     1  0.0000000  1.2552000  3
   3041   3047   3051   3052     1  0.0000000  1.2552000  3
   3041   3047   3051   3053     1  0.0000000  1.2552000  3
   3042   3041   3044   3064     1  0.0000000  0.6508444  3
   3042   3041   3044   3045     1  0.0000000  0.6508444  3
   3042   3041   3044   3046     1  0.0000000  0.6508444  3
   3042   3041   3047   3048     1  0.0000000  1.2552000  3
   3042   3041   3047   3051     1  0.0000000  1.2552000  3
   3043   3041   3044   3064     1  0.0000000  0.6508444  3
   3043   3041   3044   3045     1  0.0000000  0.6508444  3
   3043   3041   3044   3046     1  0.0000000  0.6508444  3
   3043   3041   3047   3048     1  0.0000000  1.2552000  3
   3043   3041   3047   3051     1  0.0000000  1.2552000  3
   3045   3044   3041   3047     1  0.0000000  0.6508444  3
   3045   3044   3064   3065     1  0.0000000  0.0000000  2
   3046   3044   3041   3047     1  0.0000000  0.6508444  3
   3046   3044   3064   3065     1  0.0000000  0.0000000  2
   3047   3048   3057   3058     1  0.0000000  0.6508444  3
   3047   3048   3057   3059     1  0.0000000  0.6508444  3
   3047   3051   3054   3055     1  0.0000000  0.6508444  3
   3047   3051   3054   3056     1  0.0000000  0.6508444  3
   3048   3047   3051   3052     1  0.0000000  1.2552000  3
   3048   3047   3051   3053     1  0.0000000  1.2552000  3
   3049   3048   3047   3051     1  0.0000000  1.2552000  3
   3049   3048   3057   3061     1  0.0000000  0.6508444  3
   3049   3048   3057   3058     1  0.0000000  0.6508444  3
   3049   3048   3057   3059     1  0.0000000  0.6508444  3
   3050   3048   3047   3051     1  0.0000000  1.2552000  3
   3050   3048   3057   3061     1  0.0000000  0.6508444  3
   3050   3048   3057   3058     1  0.0000000  0.6508444  3
   3050   3048   3057   3059     1  0.0000000  0.6508444  3
   3052   3051   3054   3060     1  0.0000000  0.6508444  3
   3052   3051   3054   3055     1  0.0000000  0.6508444  3
   3052   3051   3054   3056     1  0.0000000  0.6508444  3
   3053   3051   3054   3060     1  0.0000000  0.6508444  3
   3053   3051   3054   3055     1  0.0000000  0.6508444  3
   3053   3051   3054   3056     1  0.0000000  0.6508444  3
   3054   3060  11901  11902     1  180.0000771  10.4600000  2
   3055   3054   3060  11901     1  180.0000771  0.0000000  2
   3055   3054   3060   3062     1  0.0000000  3.3472000  1
   3055   3054   3060   3062     1  0.0000000  0.0000000  2
   3055   3054   3060   3062     1  180.0000771  0.3347200  3
   3056   3054   3060  11901     1  180.0000771  0.0000000  2
   3056   3054   3060   3062     1  0.0000000  3.3472000  1
   3056   3054   3060   3062     1  0.0000000  0.0000000  2
   3056   3054   3060   3062     1  180.0000771  0.3347200  3
   3057   3061  11974  11975     1  180.0000771  10.4600000  2
   3058   3057   3061   3063     1  0.0000000  3.3472000  1
   3058   3057   3061   3063     1  0.0000000  0.0000000  2
   3058   3057   3061   3063     1  180.0000771  0.3347200  3
   3058   3057   3061  11974     1  180.0000771  0.0000000  2
   3059   3057   3061   3063     1  0.0000000  3.3472000  1
   3059   3057   3061   3063     1  0.0000000  0.0000000  2
   3059   3057   3061   3063     1  180.0000771  0.3347200  3
   3059   3057   3061  11974     1  180.0000771  0.0000000  2
   3060  11901  11903  11904     1  0.0000000  0.0000000  2
   3060  11901  11903  11906     1  0.0000000  0.0000000  2
   3061  11974  11976  11977     1  0.0000000  0.0000000  2
   3061  11974  11976  11979     1  0.0000000  0.0000000  2
   3062   3060  11901  11902     1  0.0000000  8.3680000  1
   3062   3060  11901  11902     1  180.0000771  10.4600000  2
   3063   3061  11974  11975     1  0.0000000  8.3680000  1
   3063   3061  11974  11975     1  180.0000771  10.4600000  2
   3066   3069   3089   3090     1  0.0000000  0.0000000  2
   3066   3072   3073   3074     1  0.0000000  1.2552000  3
   3066   3072   3073   3075     1  0.0000000  1.2552000  3
   3066   3072   3076   3077     1  0.0000000  1.2552000  3
   3066   3072   3076   3078     1  0.0000000  1.2552000  3
   3067   3066   3069   3089     1  0.0000000  0.6508444  3
   3067   3066   3069   3070     1  0.0000000  0.6508444  3
   3067   3066   3069   3071     1  0.0000000  0.6508444  3
   3067   3066   3072   3073     1  0.0000000  1.2552000  3
   3067   3066   3072   3076     1  0.0000000  1.2552000  3
   3068   3066   3069   3089     1  0.0000000  0.6508444  3
   3068   3066   3069   3070     1  0.0000000  0.6508444  3
   3068   3066   3069   3071     1  0.0000000  0.6508444  3
   3068   3066   3072   3073     1  0.0000000  1.2552000  3
   3068   3066   3072   3076     1  0.0000000  1.2552000  3
   3070   3069   3066   3072     1  0.0000000  0.6508444  3
   3070   3069   3089   3090     1  0.0000000  0.0000000  2
   3071   3069   3066   3072     1  0.0000000  0.6508444  3
   3071   3069   3089   3090     1  0.0000000  0.0000000  2
   3072   3073   3082   3083     1  0.0000000  0.6508444  3
   3072   3073   3082   3084     1  0.0000000  0.6508444  3
   3072   3076   3079   3080     1  0.0000000  0.6508444  3
   3072   3076   3079   3081     1  0.0000000  0.6508444  3
   3073   3072   3076   3077     1  0.0000000  1.2552000  3
   3073   3072   3076   3078     1  0.0000000  1.2552000  3
   3074   3073   3072   3076     1  0.0000000  1.2552000  3
   3074   3073   3082   3086     1  0.0000000  0.6508444  3
   3074   3073   3082   3083     1  0.0000000  0.6508444  3
   3074   3073   3082   3084     1  0.0000000  0.6508444  3
   3075   3073   3072   3076     1  0.0000000  1.2552000  3
   3075   3073   3082   3086     1  0.0000000  0.6508444  3
   3075   3073   3082   3083     1  0.0000000  0.6508444  3
   3075   3073   3082   3084     1  0.0000000  0.6508444  3
   3077   3076   3079   3085     1  0.0000000  0.6508444  3
   3077   3076   3079   3080     1  0.0000000  0.6508444  3
   3077   3076   3079   3081     1  0.0000000  0.6508444  3
   3078   3076   3079   3085     1  0.0000000  0.6508444  3
   3078   3076   3079   3080     1  0.0000000  0.6508444  3
   3078   3076   3079   3081     1  0.0000000  0.6508444  3
   3079   3085  12047  12048     1  180.0000771  10.4600000  2
   3080   3079   3085  12047     1  180.0000771  0.0000000  2
   3080   3079   3085   3087     1  0.0000000  3.3472000  1
   3080   3079   3085   3087     1  0.0000000  0.0000000  2
   3080   3079   3085   3087     1  180.0000771  0.3347200  3
   3081   3079   3085  12047     1  180.0000771  0.0000000  2
   3081   3079   3085   3087     1  0.0000000  3.3472000  1
   3081   3079   3085   3087     1  0.0000000  0.0000000  2
   3081   3079   3085   3087     1  180.0000771  0.3347200  3
   3082   3086  12120  12121     1  180.0000771  10.4600000  2
   3083   3082   3086   3088     1  0.0000000  3.3472000  1
   3083   3082   3086   3088     1  0.0000000  0.0000000  2
   3083   3082   3086   3088     1  180.0000771  0.3347200  3
   3083   3082   3086  12120     1  180.0000771  0.0000000  2
   3084   3082   3086   3088     1  0.0000000  3.3472000  1
   3084   3082   3086   3088     1  0.0000000  0.0000000  2
   3084   3082   3086   3088     1  180.0000771  0.3347200  3
   3084   3082   3086  12120     1  180.0000771  0.0000000  2
   3085  12047  12049  12050     1  0.0000000  0.0000000  2
   3085  12047  12049  12052     1  0.0000000  0.0000000  2
   3086  12120  12122  12123     1  0.0000000  0.0000000  2
   3086  12120  12122  12125     1  0.0000000  0.0000000  2
   3087   3085  12047  12048     1  0.0000000  8.3680000  1
   3087   3085  12047  12048     1  180.0000771  10.4600000  2
   3088   3086  12120  12121     1  0.0000000  8.3680000  1
   3088   3086  12120  12121     1  180.0000771  10.4600000  2
   3091   3094   3114   3115     1  0.0000000  0.0000000  2
   3091   3097   3098   3099     1  0.0000000  1.2552000  3
   3091   3097   3098   3100     1  0.0000000  1.2552000  3
   3091   3097   3101   3102     1  0.0000000  1.2552000  3
   3091   3097   3101   3103     1  0.0000000  1.2552000  3
   3092   3091   3094   3114     1  0.0000000  0.6508444  3
   3092   3091   3094   3095     1  0.0000000  0.6508444  3
   3092   3091   3094   3096     1  0.0000000  0.6508444  3
   3092   3091   3097   3098     1  0.0000000  1.2552000  3
   3092   3091   3097   3101     1  0.0000000  1.2552000  3
   3093   3091   3094   3114     1  0.0000000  0.6508444  3
   3093   3091   3094   3095     1  0.0000000  0.6508444  3
   3093   3091   3094   3096     1  0.0000000  0.6508444  3
   3093   3091   3097   3098     1  0.0000000  1.2552000  3
   3093   3091   3097   3101     1  0.0000000  1.2552000  3
   3095   3094   3091   3097     1  0.0000000  0.6508444  3
   3095   3094   3114   3115     1  0.0000000  0.0000000  2
   3096   3094   3091   3097     1  0.0000000  0.6508444  3
   3096   3094   3114   3115     1  0.0000000  0.0000000  2
   3097   3098   3107   3108     1  0.0000000  0.6508444  3
   3097   3098   3107   3109     1  0.0000000  0.6508444  3
   3097   3101   3104   3105     1  0.0000000  0.6508444  3
   3097   3101   3104   3106     1  0.0000000  0.6508444  3
   3098   3097   3101   3102     1  0.0000000  1.2552000  3
   3098   3097   3101   3103     1  0.0000000  1.2552000  3
   3099   3098   3097   3101     1  0.0000000  1.2552000  3
   3099   3098   3107   3111     1  0.0000000  0.6508444  3
   3099   3098   3107   3108     1  0.0000000  0.6508444  3
   3099   3098   3107   3109     1  0.0000000  0.6508444  3
   3100   3098   3097   3101     1  0.0000000  1.2552000  3
   3100   3098   3107   3111     1  0.0000000  0.6508444  3
   3100   3098   3107   3108     1  0.0000000  0.6508444  3
   3100   3098   3107   3109     1  0.0000000  0.6508444  3
   3102   3101   3104   3110     1  0.0000000  0.6508444  3
   3102   3101   3104   3105     1  0.0000000  0.6508444  3
   3102   3101   3104   3106     1  0.0000000  0.6508444  3
   3103   3101   3104   3110     1  0.0000000  0.6508444  3
   3103   3101   3104   3105     1  0.0000000  0.6508444  3
   3103   3101   3104   3106     1  0.0000000  0.6508444  3
   3104   3110  12193  12194     1  180.0000771  10.4600000  2
   3105   3104   3110  12193     1  180.0000771  0.0000000  2
   3105   3104   3110   3112     1  0.0000000  3.3472000  1
   3105   3104   3110   3112     1  0.0000000  0.0000000  2
   3105   3104   3110   3112     1  180.0000771  0.3347200  3
   3106   3104   3110  12193     1  180.0000771  0.0000000  2
   3106   3104   3110   3112     1  0.0000000  3.3472000  1
   3106   3104   3110   3112     1  0.0000000  0.0000000  2
   3106   3104   3110   3112     1  180.0000771  0.3347200  3
   3107   3111  12266  12267     1  180.0000771  10.4600000  2
   3108   3107   3111   3113     1  0.0000000  3.3472000  1
   3108   3107   3111   3113     1  0.0000000  0.0000000  2
   3108   3107   3111   3113     1  180.0000771  0.3347200  3
   3108   3107   3111  12266     1  180.0000771  0.0000000  2
   3109   3107   3111   3113     1  0.0000000  3.3472000  1
   3109   3107   3111   3113     1  0.0000000  0.0000000  2
   3109   3107   3111   3113     1  180.0000771  0.3347200  3
   3109   3107   3111  12266     1  180.0000771  0.0000000  2
   3110  12193  12195  12196     1  0.0000000  0.0000000  2
   3110  12193  12195  12198     1  0.0000000  0.0000000  2
   3111  12266  12268  12269     1  0.0000000  0.0000000  2
   3111  12266  12268  12271     1  0.0000000  0.0000000  2
   3112   3110  12193  12194     1  0.0000000  8.3680000  1
   3112   3110  12193  12194     1  180.0000771  10.4600000  2
   3113   3111  12266  12267     1  0.0000000  8.3680000  1
   3113   3111  12266  12267     1  180.0000771  10.4600000  2
   3116   3119   3139   3140     1  0.0000000  0.0000000  2
   3116   3122   3123   3124     1  0.0000000  1.2552000  3
   3116   3122   3123   3125     1  0.0000000  1.2552000  3
   3116   3122   3126   3127     1  0.0000000  1.2552000  3
   3116   3122   3126   3128     1  0.0000000  1.2552000  3
   3117   3116   3119   3139     1  0.0000000  0.6508444  3
   3117   3116   3119   3120     1  0.0000000  0.6508444  3
   3117   3116   3119   3121     1  0.0000000  0.6508444  3
   3117   3116   3122   3123     1  0.0000000  1.2552000  3
   3117   3116   3122   3126     1  0.0000000  1.2552000  3
   3118   3116   3119   3139     1  0.0000000  0.6508444  3
   3118   3116   3119   3120     1  0.0000000  0.6508444  3
   3118   3116   3119   3121     1  0.0000000  0.6508444  3
   3118   3116   3122   3123     1  0.0000000  1.2552000  3
   3118   3116   3122   3126     1  0.0000000  1.2552000  3
   3120   3119   3116   3122     1  0.0000000  0.6508444  3
   3120   3119   3139   3140     1  0.0000000  0.0000000  2
   3121   3119   3116   3122     1  0.0000000  0.6508444  3
   3121   3119   3139   3140     1  0.0000000  0.0000000  2
   3122   3123   3132   3133     1  0.0000000  0.6508444  3
   3122   3123   3132   3134     1  0.0000000  0.6508444  3
   3122   3126   3129   3130     1  0.0000000  0.6508444  3
   3122   3126   3129   3131     1  0.0000000  0.6508444  3
   3123   3122   3126   3127     1  0.0000000  1.2552000  3
   3123   3122   3126   3128     1  0.0000000  1.2552000  3
   3124   3123   3122   3126     1  0.0000000  1.2552000  3
   3124   3123   3132   3136     1  0.0000000  0.6508444  3
   3124   3123   3132   3133     1  0.0000000  0.6508444  3
   3124   3123   3132   3134     1  0.0000000  0.6508444  3
   3125   3123   3122   3126     1  0.0000000  1.2552000  3
   3125   3123   3132   3136     1  0.0000000  0.6508444  3
   3125   3123   3132   3133     1  0.0000000  0.6508444  3
   3125   3123   3132   3134     1  0.0000000  0.6508444  3
   3127   3126   3129   3135     1  0.0000000  0.6508444  3
   3127   3126   3129   3130     1  0.0000000  0.6508444  3
   3127   3126   3129   3131     1  0.0000000  0.6508444  3
   3128   3126   3129   3135     1  0.0000000  0.6508444  3
   3128   3126   3129   3130     1  0.0000000  0.6508444  3
   3128   3126   3129   3131     1  0.0000000  0.6508444  3
   3129   3135  12339  12340     1  180.0000771  10.4600000  2
   3130   3129   3135  12339     1  180.0000771  0.0000000  2
   3130   3129   3135   3137     1  0.0000000  3.3472000  1
   3130   3129   3135   3137     1  0.0000000  0.0000000  2
   3130   3129   3135   3137     1  180.0000771  0.3347200  3
   3131   3129   3135  12339     1  180.0000771  0.0000000  2
   3131   3129   3135   3137     1  0.0000000  3.3472000  1
   3131   3129   3135   3137     1  0.0000000  0.0000000  2
   3131   3129   3135   3137     1  180.0000771  0.3347200  3
   3132   3136  12412  12413     1  180.0000771  10.4600000  2
   3133   3132   3136  12412     1  180.0000771  0.0000000  2
   3133   3132   3136   3138     1  0.0000000  3.3472000  1
   3133   3132   3136   3138     1  0.0000000  0.0000000  2
   3133   3132   3136   3138     1  180.0000771  0.3347200  3
   3134   3132   3136  12412     1  180.0000771  0.0000000  2
   3134   3132   3136   3138     1  0.0000000  3.3472000  1
   3134   3132   3136   3138     1  0.0000000  0.0000000  2
   3134   3132   3136   3138     1  180.0000771  0.3347200  3
   3135  12339  12341  12342     1  0.0000000  0.0000000  2
   3135  12339  12341  12344     1  0.0000000  0.0000000  2
   3136  12412  12414  12415     1  0.0000000  0.0000000  2
   3136  12412  12414  12417     1  0.0000000  0.0000000  2
   3137   3135  12339  12340     1  0.0000000  8.3680000  1
   3137   3135  12339  12340     1  180.0000771  10.4600000  2
   3138   3136  12412  12413     1  0.0000000  8.3680000  1
   3138   3136  12412  12413     1  180.0000771  10.4600000  2
   3141   3143   3145   3147     1  0.0000000  0.6508444  3
   3141   3143   3145   3148     1  0.0000000  0.6508444  3
   3142   3141   3143   3145     1  0.0000000  0.0000000  2
   3142   3141   3143   3144     1  0.0000000  0.0000000  2
   3142   3141   3143   3146     1  0.0000000  0.0000000  2
   3144   3143   3145   3149     1  0.0000000  0.6508444  3
   3144   3143   3145   3147     1  0.0000000  0.6508444  3
   3144   3143   3145   3148     1  0.0000000  0.6508444  3
   3145   3149   3150   3159     1  0.0000000  1.2552000  3
   3145   3149   3150   3160     1  0.0000000  1.2552000  3
   3145   3149   3151   3152     1  0.0000000  1.2552000  3
   3145   3149   3151   3154     1  0.0000000  1.2552000  3
   3146   3143   3145   3149     1  0.0000000  0.6508444  3
   3146   3143   3145   3147     1  0.0000000  0.6508444  3
   3146   3143   3145   3148     1  0.0000000  0.6508444  3
   3147   3145   3149   3150     1  0.0000000  1.2552000  3
   3147   3145   3149   3151     1  0.0000000  1.2552000  3
   3148   3145   3149   3150     1  0.0000000  1.2552000  3
   3148   3145   3149   3151     1  0.0000000  1.2552000  3
   3149   3150   3161   3162     1  0.0000000  0.6508444  3
   3149   3150   3161   3163     1  0.0000000  0.6508444  3
   3149   3151   3153   3155     1  0.0000000  0.6508444  3
   3149   3151   3153   3156     1  0.0000000  0.6508444  3
   3150   3149   3151   3152     1  0.0000000  1.2552000  3
   3150   3149   3151   3154     1  0.0000000  1.2552000  3
   3151   3149   3150   3159     1  0.0000000  1.2552000  3
   3151   3149   3150   3160     1  0.0000000  1.2552000  3
   3152   3151   3153   3157     1  0.0000000  0.6508444  3
   3152   3151   3153   3155     1  0.0000000  0.6508444  3
   3152   3151   3153   3156     1  0.0000000  0.6508444  3
   3153   3157   3189   3179     1  180.0000771  6.0668000  2
   3153   3157   3189   3179     1  180.0000771  1.4644000  4
   3154   3151   3153   3157     1  0.0000000  0.6508444  3
   3154   3151   3153   3155     1  0.0000000  0.6508444  3
   3154   3151   3153   3156     1  0.0000000  0.6508444  3
   3155   3153   3157   3158     1  0.0000000  3.3472000  1
   3155   3153   3157   3158     1  0.0000000  0.0000000  2
   3155   3153   3157   3158     1  180.0000771  0.3347200  3
   3155   3153   3157   3189     1  180.0000771  0.0000000  2
   3156   3153   3157   3158     1  0.0000000  3.3472000  1
   3156   3153   3157   3158     1  0.0000000  0.0000000  2
   3156   3153   3157   3158     1  180.0000771  0.3347200  3
   3156   3153   3157   3189     1  180.0000771  0.0000000  2
   3157   3189   3170   3172     1  0.0000000  1.2552000  3
   3158   3157   3189   3179     1  180.0000771  6.0668000  2
   3158   3157   3189   3179     1  180.0000771  1.4644000  4
   3159   3150   3161   3164     1  0.0000000  0.6508444  3
   3159   3150   3161   3162     1  0.0000000  0.6508444  3
   3159   3150   3161   3163     1  0.0000000  0.6508444  3
   3160   3150   3161   3164     1  0.0000000  0.6508444  3
   3160   3150   3161   3162     1  0.0000000  0.6508444  3
   3160   3150   3161   3163     1  0.0000000  0.6508444  3
   3161   3164   3213   3203     1  180.0000771  6.0668000  2
   3161   3164   3213   3203     1  180.0000771  1.4644000  4
   3162   3161   3164   3165     1  0.0000000  3.3472000  1
   3162   3161   3164   3165     1  0.0000000  0.0000000  2
   3162   3161   3164   3165     1  180.0000771  0.3347200  3
   3162   3161   3164   3213     1  180.0000771  0.0000000  2
   3163   3161   3164   3165     1  0.0000000  3.3472000  1
   3163   3161   3164   3165     1  0.0000000  0.0000000  2
   3163   3161   3164   3165     1  180.0000771  0.3347200  3
   3163   3161   3164   3213     1  180.0000771  0.0000000  2
   3164   3213   3194   3196     1  0.0000000  1.2552000  3
   3165   3164   3213   3203     1  180.0000771  6.0668000  2
   3165   3164   3213   3203     1  180.0000771  1.4644000  4
   3166   3167   3169   3173     1  0.0000000  0.6508444  3
   3166   3167   3187   3188     1  0.0000000  1.0460000  1
   3166   3167   3187   3188     1  0.0000000  0.6694400  3
   3166   3177   3182   3183     1  0.0000000  1.0460000  1
   3166   3177   3182   3183     1  0.0000000  0.6694400  3
   3166   3184   3171   3174     1  0.0000000  1.6038667  3
   3167   3166   3177   3180     1  0.0000000  0.6508444  3
   3167   3166   3177   3181     1  0.0000000  0.6508444  3
   3167   3169   3170   3172     1  0.0000000  0.6508444  3
   3167   3169   3176   3178     1  0.0000000  1.0460000  1
   3167   3169   3176   3178     1  0.0000000  0.6694400  3
   3168   3166   3167   3169     1  0.0000000  0.6508444  3
   3168   3166   3167   3187     1  0.0000000  1.0460000  1
   3168   3166   3167   3187     1  0.0000000  0.0000000  3
   3168   3166   3167   3186     1  0.0000000  0.6508444  3
   3168   3166   3177   3182     1  0.0000000  1.0460000  1
   3168   3166   3177   3182     1  0.0000000  0.0000000  3
   3168   3166   3177   3180     1  0.0000000  0.6508444  3
   3168   3166   3177   3181     1  0.0000000  0.6508444  3
   3168   3166   3184   3171     1  0.0000000  1.6038667  3
   3169   3167   3187   3188     1  0.0000000  1.0460000  1
   3169   3167   3187   3188     1  0.0000000  0.6694400  3
   3169   3170   3171   3174     1  0.0000000  0.6508444  3
   3169   3170   3189   3179     1  0.0000000  1.2552000  3
   3170   3169   3167   3186     1  0.0000000  0.6508444  3
   3170   3169   3176   3178     1  0.0000000  1.0460000  1
   3170   3169   3176   3178     1  0.0000000  0.6694400  3
   3170   3171   3175   3185     1  0.0000000  1.0460000  1
   3170   3171   3175   3185     1  0.0000000  0.6694400  3
   3171   3170   3169   3173     1  0.0000000  0.6508444  3
   3171   3170   3189   3179     1  0.0000000  1.2552000  3
   3172   3170   3169   3176     1  0.0000000  1.0460000  1
   3172   3170   3169   3176     1  0.0000000  0.0000000  3
   3172   3170   3169   3173     1  0.0000000  0.6508444  3
   3172   3170   3171   3175     1  0.0000000  1.0460000  1
   3172   3170   3171   3175     1  0.0000000  0.0000000  3
   3172   3170   3171   3184     1  0.0000000  1.0460000  1
   3172   3170   3171   3184     1  0.0000000  0.0000000  3
   3172   3170   3171   3174     1  0.0000000  0.6508444  3
   3172   3170   3189   3179     1  0.0000000  1.2552000  3
   3173   3169   3167   3187     1  0.0000000  1.0460000  1
   3173   3169   3167   3187     1  0.0000000  0.0000000  3
   3173   3169   3167   3186     1  0.0000000  0.6508444  3
   3173   3169   3170   3189     1  0.0000000  0.6508444  3
   3173   3169   3176   3178     1  0.0000000  0.6973333  3
   3174   3171   3170   3189     1  0.0000000  0.6508444  3
   3174   3171   3175   3185     1  0.0000000  0.6973333  3
   3176   3169   3167   3186     1  0.0000000  1.0460000  1
   3176   3169   3167   3186     1  0.0000000  0.0000000  3
   3177   3166   3167   3186     1  0.0000000  0.6508444  3
   3180   3177   3166   3184     1  0.0000000  1.0460000  1
   3180   3177   3166   3184     1  0.0000000  0.0000000  3
   3180   3177   3182   3183     1  0.0000000  0.6973333  3
   3181   3177   3166   3184     1  0.0000000  1.0460000  1
   3181   3177   3166   3184     1  0.0000000  0.0000000  3
   3181   3177   3182   3183     1  0.0000000  0.6973333  3
   3184   3166   3167   3186     1  0.0000000  1.0460000  1
   3184   3166   3167   3186     1  0.0000000  0.0000000  3
   3184   3171   3175   3185     1  0.0000000  0.6973333  3
   3186   3167   3187   3188     1  0.0000000  0.6973333  3
   3190   3191   3193   3197     1  0.0000000  0.6508444  3
   3190   3191   3211   3212     1  0.0000000  1.0460000  1
   3190   3191   3211   3212     1  0.0000000  0.6694400  3
   3190   3201   3206   3207     1  0.0000000  1.0460000  1
   3190   3201   3206   3207     1  0.0000000  0.6694400  3
   3190   3208   3195   3198     1  0.0000000  1.6038667  3
   3191   3190   3201   3204     1  0.0000000  0.6508444  3
   3191   3190   3201   3205     1  0.0000000  0.6508444  3
   3191   3193   3194   3196     1  0.0000000  0.6508444  3
   3191   3193   3200   3202     1  0.0000000  1.0460000  1
   3191   3193   3200   3202     1  0.0000000  0.6694400  3
   3192   3190   3191   3193     1  0.0000000  0.6508444  3
   3192   3190   3191   3211     1  0.0000000  1.0460000  1
   3192   3190   3191   3211     1  0.0000000  0.0000000  3
   3192   3190   3191   3210     1  0.0000000  0.6508444  3
   3192   3190   3201   3206     1  0.0000000  1.0460000  1
   3192   3190   3201   3206     1  0.0000000  0.0000000  3
   3192   3190   3201   3204     1  0.0000000  0.6508444  3
   3192   3190   3201   3205     1  0.0000000  0.6508444  3
   3192   3190   3208   3195     1  0.0000000  1.6038667  3
   3193   3191   3211   3212     1  0.0000000  1.0460000  1
   3193   3191   3211   3212     1  0.0000000  0.6694400  3
   3193   3194   3195   3198     1  0.0000000  0.6508444  3
   3193   3194   3213   3203     1  0.0000000  1.2552000  3
   3194   3193   3191   3210     1  0.0000000  0.6508444  3
   3194   3193   3200   3202     1  0.0000000  1.0460000  1
   3194   3193   3200   3202     1  0.0000000  0.6694400  3
   3194   3195   3199   3209     1  0.0000000  1.0460000  1
   3194   3195   3199   3209     1  0.0000000  0.6694400  3
   3195   3194   3193   3197     1  0.0000000  0.6508444  3
   3195   3194   3213   3203     1  0.0000000  1.2552000  3
   3196   3194   3193   3200     1  0.0000000  1.0460000  1
   3196   3194   3193   3200     1  0.0000000  0.0000000  3
   3196   3194   3193   3197     1  0.0000000  0.6508444  3
   3196   3194   3195   3199     1  0.0000000  1.0460000  1
   3196   3194   3195   3199     1  0.0000000  0.0000000  3
   3196   3194   3195   3208     1  0.0000000  1.0460000  1
   3196   3194   3195   3208     1  0.0000000  0.0000000  3
   3196   3194   3195   3198     1  0.0000000  0.6508444  3
   3196   3194   3213   3203     1  0.0000000  1.2552000  3
   3197   3193   3191   3211     1  0.0000000  1.0460000  1
   3197   3193   3191   3211     1  0.0000000  0.0000000  3
   3197   3193   3191   3210     1  0.0000000  0.6508444  3
   3197   3193   3194   3213     1  0.0000000  0.6508444  3
   3197   3193   3200   3202     1  0.0000000  0.6973333  3
   3198   3195   3194   3213     1  0.0000000  0.6508444  3
   3198   3195   3199   3209     1  0.0000000  0.6973333  3
   3200   3193   3191   3210     1  0.0000000  1.0460000  1
   3200   3193   3191   3210     1  0.0000000  0.0000000  3
   3201   3190   3191   3210     1  0.0000000  0.6508444  3
   3204   3201   3190   3208     1  0.0000000  1.0460000  1
   3204   3201   3190   3208     1  0.0000000  0.0000000  3
   3204   3201   3206   3207     1  0.0000000  0.6973333  3
   3205   3201   3190   3208     1  0.0000000  1.0460000  1
   3205   3201   3190   3208     1  0.0000000  0.0000000  3
   3205   3201   3206   3207     1  0.0000000  0.6973333  3
   3208   3190   3191   3210     1  0.0000000  1.0460000  1
   3208   3190   3191   3210     1  0.0000000  0.0000000  3
   3208   3195   3199   3209     1  0.0000000  0.6973333  3
   3210   3191   3211   3212     1  0.0000000  0.6973333  3
   3214   3216   3218   3220     1  0.0000000  0.6508444  3
   3214   3216   3218   3221     1  0.0000000  0.6508444  3
   3215   3214   3216   3218     1  0.0000000  0.0000000  2
   3215   3214   3216   3217     1  0.0000000  0.0000000  2
   3215   3214   3216   3219     1  0.0000000  0.0000000  2
   3217   3216   3218   3222     1  0.0000000  0.6508444  3
   3217   3216   3218   3220     1  0.0000000  0.6508444  3
   3217   3216   3218   3221     1  0.0000000  0.6508444  3
   3218   3222   3223   3232     1  0.0000000  1.2552000  3
   3218   3222   3223   3233     1  0.0000000  1.2552000  3
   3218   3222   3224   3225     1  0.0000000  1.2552000  3
   3218   3222   3224   3227     1  0.0000000  1.2552000  3
   3219   3216   3218   3222     1  0.0000000  0.6508444  3
   3219   3216   3218   3220     1  0.0000000  0.6508444  3
   3219   3216   3218   3221     1  0.0000000  0.6508444  3
   3220   3218   3222   3223     1  0.0000000  1.2552000  3
   3220   3218   3222   3224     1  0.0000000  1.2552000  3
   3221   3218   3222   3223     1  0.0000000  1.2552000  3
   3221   3218   3222   3224     1  0.0000000  1.2552000  3
   3222   3223   3234   3235     1  0.0000000  0.6508444  3
   3222   3223   3234   3236     1  0.0000000  0.6508444  3
   3222   3224   3226   3228     1  0.0000000  0.6508444  3
   3222   3224   3226   3229     1  0.0000000  0.6508444  3
   3223   3222   3224   3225     1  0.0000000  1.2552000  3
   3223   3222   3224   3227     1  0.0000000  1.2552000  3
   3224   3222   3223   3232     1  0.0000000  1.2552000  3
   3224   3222   3223   3233     1  0.0000000  1.2552000  3
   3225   3224   3226   3230     1  0.0000000  0.6508444  3
   3225   3224   3226   3228     1  0.0000000  0.6508444  3
   3225   3224   3226   3229     1  0.0000000  0.6508444  3
   3226   3230   3262   3252     1  180.0000771  6.0668000  2
   3226   3230   3262   3252     1  180.0000771  1.4644000  4
   3227   3224   3226   3230     1  0.0000000  0.6508444  3
   3227   3224   3226   3228     1  0.0000000  0.6508444  3
   3227   3224   3226   3229     1  0.0000000  0.6508444  3
   3228   3226   3230   3231     1  0.0000000  3.3472000  1
   3228   3226   3230   3231     1  0.0000000  0.0000000  2
   3228   3226   3230   3231     1  180.0000771  0.3347200  3
   3228   3226   3230   3262     1  180.0000771  0.0000000  2
   3229   3226   3230   3231     1  0.0000000  3.3472000  1
   3229   3226   3230   3231     1  0.0000000  0.0000000  2
   3229   3226   3230   3231     1  180.0000771  0.3347200  3
   3229   3226   3230   3262     1  180.0000771  0.0000000  2
   3230   3262   3243   3245     1  0.0000000  1.2552000  3
   3231   3230   3262   3252     1  180.0000771  6.0668000  2
   3231   3230   3262   3252     1  180.0000771  1.4644000  4
   3232   3223   3234   3237     1  0.0000000  0.6508444  3
   3232   3223   3234   3235     1  0.0000000  0.6508444  3
   3232   3223   3234   3236     1  0.0000000  0.6508444  3
   3233   3223   3234   3237     1  0.0000000  0.6508444  3
   3233   3223   3234   3235     1  0.0000000  0.6508444  3
   3233   3223   3234   3236     1  0.0000000  0.6508444  3
   3234   3237   3286   3276     1  180.0000771  6.0668000  2
   3234   3237   3286   3276     1  180.0000771  1.4644000  4
   3235   3234   3237   3238     1  0.0000000  3.3472000  1
   3235   3234   3237   3238     1  0.0000000  0.0000000  2
   3235   3234   3237   3238     1  180.0000771  0.3347200  3
   3235   3234   3237   3286     1  180.0000771  0.0000000  2
   3236   3234   3237   3238     1  0.0000000  3.3472000  1
   3236   3234   3237   3238     1  0.0000000  0.0000000  2
   3236   3234   3237   3238     1  180.0000771  0.3347200  3
   3236   3234   3237   3286     1  180.0000771  0.0000000  2
   3237   3286   3267   3269     1  0.0000000  1.2552000  3
   3238   3237   3286   3276     1  180.0000771  6.0668000  2
   3238   3237   3286   3276     1  180.0000771  1.4644000  4
   3239   3240   3242   3246     1  0.0000000  0.6508444  3
   3239   3240   3260   3261     1  0.0000000  1.0460000  1
   3239   3240   3260   3261     1  0.0000000  0.6694400  3
   3239   3250   3255   3256     1  0.0000000  1.0460000  1
   3239   3250   3255   3256     1  0.0000000  0.6694400  3
   3239   3257   3244   3247     1  0.0000000  1.6038667  3
   3240   3242   3243   3245     1  0.0000000  0.6508444  3
   3240   3242   3249   3251     1  0.0000000  1.0460000  1
   3240   3242   3249   3251     1  0.0000000  0.6694400  3
   3240   3239   3250   3253     1  0.0000000  0.6508444  3
   3240   3239   3250   3254     1  0.0000000  0.6508444  3
   3241   3239   3240   3242     1  0.0000000  0.6508444  3
   3241   3239   3240   3260     1  0.0000000  1.0460000  1
   3241   3239   3240   3260     1  0.0000000  0.0000000  3
   3241   3239   3240   3259     1  0.0000000  0.6508444  3
   3241   3239   3250   3255     1  0.0000000  1.0460000  1
   3241   3239   3250   3255     1  0.0000000  0.0000000  3
   3241   3239   3250   3253     1  0.0000000  0.6508444  3
   3241   3239   3250   3254     1  0.0000000  0.6508444  3
   3241   3239   3257   3244     1  0.0000000  1.6038667  3
   3242   3243   3244   3247     1  0.0000000  0.6508444  3
   3242   3243   3262   3252     1  0.0000000  1.2552000  3
   3242   3240   3260   3261     1  0.0000000  1.0460000  1
   3242   3240   3260   3261     1  0.0000000  0.6694400  3
   3243   3244   3248   3258     1  0.0000000  1.0460000  1
   3243   3244   3248   3258     1  0.0000000  0.6694400  3
   3243   3242   3249   3251     1  0.0000000  1.0460000  1
   3243   3242   3249   3251     1  0.0000000  0.6694400  3
   3243   3242   3240   3259     1  0.0000000  0.6508444  3
   3244   3243   3262   3252     1  0.0000000  1.2552000  3
   3244   3243   3242   3246     1  0.0000000  0.6508444  3
   3245   3243   3244   3248     1  0.0000000  1.0460000  1
   3245   3243   3244   3248     1  0.0000000  0.0000000  3
   3245   3243   3244   3257     1  0.0000000  1.0460000  1
   3245   3243   3244   3257     1  0.0000000  0.0000000  3
   3245   3243   3244   3247     1  0.0000000  0.6508444  3
   3245   3243   3262   3252     1  0.0000000  1.2552000  3
   3245   3243   3242   3249     1  0.0000000  1.0460000  1
   3245   3243   3242   3249     1  0.0000000  0.0000000  3
   3245   3243   3242   3246     1  0.0000000  0.6508444  3
   3246   3242   3243   3262     1  0.0000000  0.6508444  3
   3246   3242   3249   3251     1  0.0000000  0.6973333  3
   3246   3242   3240   3260     1  0.0000000  1.0460000  1
   3246   3242   3240   3260     1  0.0000000  0.0000000  3
   3246   3242   3240   3259     1  0.0000000  0.6508444  3
   3247   3244   3248   3258     1  0.0000000  0.6973333  3
   3247   3244   3243   3262     1  0.0000000  0.6508444  3
   3249   3242   3240   3259     1  0.0000000  1.0460000  1
   3249   3242   3240   3259     1  0.0000000  0.0000000  3
   3250   3239   3240   3259     1  0.0000000  0.6508444  3
   3253   3250   3255   3256     1  0.0000000  0.6973333  3
   3253   3250   3239   3257     1  0.0000000  1.0460000  1
   3253   3250   3239   3257     1  0.0000000  0.0000000  3
   3254   3250   3255   3256     1  0.0000000  0.6973333  3
   3254   3250   3239   3257     1  0.0000000  1.0460000  1
   3254   3250   3239   3257     1  0.0000000  0.0000000  3
   3257   3244   3248   3258     1  0.0000000  0.6973333  3
   3257   3239   3240   3259     1  0.0000000  1.0460000  1
   3257   3239   3240   3259     1  0.0000000  0.0000000  3
   3259   3240   3260   3261     1  0.0000000  0.6973333  3
   3263   3264   3266   3270     1  0.0000000  0.6508444  3
   3263   3264   3284   3285     1  0.0000000  1.0460000  1
   3263   3264   3284   3285     1  0.0000000  0.6694400  3
   3263   3274   3279   3280     1  0.0000000  1.0460000  1
   3263   3274   3279   3280     1  0.0000000  0.6694400  3
   3263   3281   3268   3271     1  0.0000000  1.6038667  3
   3264   3266   3267   3269     1  0.0000000  0.6508444  3
   3264   3266   3273   3275     1  0.0000000  1.0460000  1
   3264   3266   3273   3275     1  0.0000000  0.6694400  3
   3264   3263   3274   3277     1  0.0000000  0.6508444  3
   3264   3263   3274   3278     1  0.0000000  0.6508444  3
   3265   3263   3264   3266     1  0.0000000  0.6508444  3
   3265   3263   3264   3284     1  0.0000000  1.0460000  1
   3265   3263   3264   3284     1  0.0000000  0.0000000  3
   3265   3263   3264   3283     1  0.0000000  0.6508444  3
   3265   3263   3274   3279     1  0.0000000  1.0460000  1
   3265   3263   3274   3279     1  0.0000000  0.0000000  3
   3265   3263   3274   3277     1  0.0000000  0.6508444  3
   3265   3263   3274   3278     1  0.0000000  0.6508444  3
   3265   3263   3281   3268     1  0.0000000  1.6038667  3
   3266   3267   3268   3271     1  0.0000000  0.6508444  3
   3266   3267   3286   3276     1  0.0000000  1.2552000  3
   3266   3264   3284   3285     1  0.0000000  1.0460000  1
   3266   3264   3284   3285     1  0.0000000  0.6694400  3
   3267   3268   3272   3282     1  0.0000000  1.0460000  1
   3267   3268   3272   3282     1  0.0000000  0.6694400  3
   3267   3266   3273   3275     1  0.0000000  1.0460000  1
   3267   3266   3273   3275     1  0.0000000  0.6694400  3
   3267   3266   3264   3283     1  0.0000000  0.6508444  3
   3268   3267   3286   3276     1  0.0000000  1.2552000  3
   3268   3267   3266   3270     1  0.0000000  0.6508444  3
   3269   3267   3268   3272     1  0.0000000  1.0460000  1
   3269   3267   3268   3272     1  0.0000000  0.0000000  3
   3269   3267   3268   3281     1  0.0000000  1.0460000  1
   3269   3267   3268   3281     1  0.0000000  0.0000000  3
   3269   3267   3268   3271     1  0.0000000  0.6508444  3
   3269   3267   3286   3276     1  0.0000000  1.2552000  3
   3269   3267   3266   3273     1  0.0000000  1.0460000  1
   3269   3267   3266   3273     1  0.0000000  0.0000000  3
   3269   3267   3266   3270     1  0.0000000  0.6508444  3
   3270   3266   3267   3286     1  0.0000000  0.6508444  3
   3270   3266   3273   3275     1  0.0000000  0.6973333  3
   3270   3266   3264   3284     1  0.0000000  1.0460000  1
   3270   3266   3264   3284     1  0.0000000  0.0000000  3
   3270   3266   3264   3283     1  0.0000000  0.6508444  3
   3271   3268   3272   3282     1  0.0000000  0.6973333  3
   3271   3268   3267   3286     1  0.0000000  0.6508444  3
   3273   3266   3264   3283     1  0.0000000  1.0460000  1
   3273   3266   3264   3283     1  0.0000000  0.0000000  3
   3274   3263   3264   3283     1  0.0000000  0.6508444  3
   3277   3274   3279   3280     1  0.0000000  0.6973333  3
   3277   3274   3263   3281     1  0.0000000  1.0460000  1
   3277   3274   3263   3281     1  0.0000000  0.0000000  3
   3278   3274   3279   3280     1  0.0000000  0.6973333  3
   3278   3274   3263   3281     1  0.0000000  1.0460000  1
   3278   3274   3263   3281     1  0.0000000  0.0000000  3
   3281   3268   3272   3282     1  0.0000000  0.6973333  3
   3281   3263   3264   3283     1  0.0000000  1.0460000  1
   3281   3263   3264   3283     1  0.0000000  0.0000000  3
   3283   3264   3284   3285     1  0.0000000  0.6973333  3
   3287   3289   3291   3293     1  0.0000000  0.6508444  3
   3287   3289   3291   3294     1  0.0000000  0.6508444  3
   3288   3287   3289   3291     1  0.0000000  0.0000000  2
   3288   3287   3289   3290     1  0.0000000  0.0000000  2
   3288   3287   3289   3292     1  0.0000000  0.0000000  2
   3290   3289   3291   3295     1  0.0000000  0.6508444  3
   3290   3289   3291   3293     1  0.0000000  0.6508444  3
   3290   3289   3291   3294     1  0.0000000  0.6508444  3
   3291   3295   3296   3305     1  0.0000000  1.2552000  3
   3291   3295   3296   3306     1  0.0000000  1.2552000  3
   3291   3295   3297   3298     1  0.0000000  1.2552000  3
   3291   3295   3297   3300     1  0.0000000  1.2552000  3
   3292   3289   3291   3295     1  0.0000000  0.6508444  3
   3292   3289   3291   3293     1  0.0000000  0.6508444  3
   3292   3289   3291   3294     1  0.0000000  0.6508444  3
   3293   3291   3295   3296     1  0.0000000  1.2552000  3
   3293   3291   3295   3297     1  0.0000000  1.2552000  3
   3294   3291   3295   3296     1  0.0000000  1.2552000  3
   3294   3291   3295   3297     1  0.0000000  1.2552000  3
   3295   3296   3307   3308     1  0.0000000  0.6508444  3
   3295   3296   3307   3309     1  0.0000000  0.6508444  3
   3295   3297   3299   3301     1  0.0000000  0.6508444  3
   3295   3297   3299   3302     1  0.0000000  0.6508444  3
   3296   3295   3297   3298     1  0.0000000  1.2552000  3
   3296   3295   3297   3300     1  0.0000000  1.2552000  3
   3297   3295   3296   3305     1  0.0000000  1.2552000  3
   3297   3295   3296   3306     1  0.0000000  1.2552000  3
   3298   3297   3299   3303     1  0.0000000  0.6508444  3
   3298   3297   3299   3301     1  0.0000000  0.6508444  3
   3298   3297   3299   3302     1  0.0000000  0.6508444  3
   3299   3303   3335   3325     1  180.0000771  6.0668000  2
   3299   3303   3335   3325     1  180.0000771  1.4644000  4
   3300   3297   3299   3303     1  0.0000000  0.6508444  3
   3300   3297   3299   3301     1  0.0000000  0.6508444  3
   3300   3297   3299   3302     1  0.0000000  0.6508444  3
   3301   3299   3303   3304     1  0.0000000  3.3472000  1
   3301   3299   3303   3304     1  0.0000000  0.0000000  2
   3301   3299   3303   3304     1  180.0000771  0.3347200  3
   3301   3299   3303   3335     1  180.0000771  0.0000000  2
   3302   3299   3303   3304     1  0.0000000  3.3472000  1
   3302   3299   3303   3304     1  0.0000000  0.0000000  2
   3302   3299   3303   3304     1  180.0000771  0.3347200  3
   3302   3299   3303   3335     1  180.0000771  0.0000000  2
   3303   3335   3316   3318     1  0.0000000  1.2552000  3
   3304   3303   3335   3325     1  180.0000771  6.0668000  2
   3304   3303   3335   3325     1  180.0000771  1.4644000  4
   3305   3296   3307   3310     1  0.0000000  0.6508444  3
   3305   3296   3307   3308     1  0.0000000  0.6508444  3
   3305   3296   3307   3309     1  0.0000000  0.6508444  3
   3306   3296   3307   3310     1  0.0000000  0.6508444  3
   3306   3296   3307   3308     1  0.0000000  0.6508444  3
   3306   3296   3307   3309     1  0.0000000  0.6508444  3
   3307   3310   3359   3349     1  180.0000771  6.0668000  2
   3307   3310   3359   3349     1  180.0000771  1.4644000  4
   3308   3307   3310   3311     1  0.0000000  3.3472000  1
   3308   3307   3310   3311     1  0.0000000  0.0000000  2
   3308   3307   3310   3311     1  180.0000771  0.3347200  3
   3308   3307   3310   3359     1  180.0000771  0.0000000  2
   3309   3307   3310   3311     1  0.0000000  3.3472000  1
   3309   3307   3310   3311     1  0.0000000  0.0000000  2
   3309   3307   3310   3311     1  180.0000771  0.3347200  3
   3309   3307   3310   3359     1  180.0000771  0.0000000  2
   3310   3359   3340   3342     1  0.0000000  1.2552000  3
   3311   3310   3359   3349     1  180.0000771  6.0668000  2
   3311   3310   3359   3349     1  180.0000771  1.4644000  4
   3312   3313   3315   3319     1  0.0000000  0.6508444  3
   3312   3313   3333   3334     1  0.0000000  1.0460000  1
   3312   3313   3333   3334     1  0.0000000  0.6694400  3
   3312   3323   3328   3329     1  0.0000000  1.0460000  1
   3312   3323   3328   3329     1  0.0000000  0.6694400  3
   3312   3330   3317   3320     1  0.0000000  1.6038667  3
   3313   3312   3323   3326     1  0.0000000  0.6508444  3
   3313   3312   3323   3327     1  0.0000000  0.6508444  3
   3313   3315   3316   3318     1  0.0000000  0.6508444  3
   3313   3315   3322   3324     1  0.0000000  1.0460000  1
   3313   3315   3322   3324     1  0.0000000  0.6694400  3
   3314   3312   3313   3315     1  0.0000000  0.6508444  3
   3314   3312   3313   3333     1  0.0000000  1.0460000  1
   3314   3312   3313   3333     1  0.0000000  0.0000000  3
   3314   3312   3313   3332     1  0.0000000  0.6508444  3
   3314   3312   3323   3328     1  0.0000000  1.0460000  1
   3314   3312   3323   3328     1  0.0000000  0.0000000  3
   3314   3312   3323   3326     1  0.0000000  0.6508444  3
   3314   3312   3323   3327     1  0.0000000  0.6508444  3
   3314   3312   3330   3317     1  0.0000000  1.6038667  3
   3315   3313   3333   3334     1  0.0000000  1.0460000  1
   3315   3313   3333   3334     1  0.0000000  0.6694400  3
   3315   3316   3317   3320     1  0.0000000  0.6508444  3
   3315   3316   3335   3325     1  0.0000000  1.2552000  3
   3316   3315   3313   3332     1  0.0000000  0.6508444  3
   3316   3315   3322   3324     1  0.0000000  1.0460000  1
   3316   3315   3322   3324     1  0.0000000  0.6694400  3
   3316   3317   3321   3331     1  0.0000000  1.0460000  1
   3316   3317   3321   3331     1  0.0000000  0.6694400  3
   3317   3316   3315   3319     1  0.0000000  0.6508444  3
   3317   3316   3335   3325     1  0.0000000  1.2552000  3
   3318   3316   3315   3322     1  0.0000000  1.0460000  1
   3318   3316   3315   3322     1  0.0000000  0.0000000  3
   3318   3316   3315   3319     1  0.0000000  0.6508444  3
   3318   3316   3317   3321     1  0.0000000  1.0460000  1
   3318   3316   3317   3321     1  0.0000000  0.0000000  3
   3318   3316   3317   3330     1  0.0000000  1.0460000  1
   3318   3316   3317   3330     1  0.0000000  0.0000000  3
   3318   3316   3317   3320     1  0.0000000  0.6508444  3
   3318   3316   3335   3325     1  0.0000000  1.2552000  3
   3319   3315   3313   3333     1  0.0000000  1.0460000  1
   3319   3315   3313   3333     1  0.0000000  0.0000000  3
   3319   3315   3313   3332     1  0.0000000  0.6508444  3
   3319   3315   3316   3335     1  0.0000000  0.6508444  3
   3319   3315   3322   3324     1  0.0000000  0.6973333  3
   3320   3317   3316   3335     1  0.0000000  0.6508444  3
   3320   3317   3321   3331     1  0.0000000  0.6973333  3
   3322   3315   3313   3332     1  0.0000000  1.0460000  1
   3322   3315   3313   3332     1  0.0000000  0.0000000  3
   3323   3312   3313   3332     1  0.0000000  0.6508444  3
   3326   3323   3312   3330     1  0.0000000  1.0460000  1
   3326   3323   3312   3330     1  0.0000000  0.0000000  3
   3326   3323   3328   3329     1  0.0000000  0.6973333  3
   3327   3323   3312   3330     1  0.0000000  1.0460000  1
   3327   3323   3312   3330     1  0.0000000  0.0000000  3
   3327   3323   3328   3329     1  0.0000000  0.6973333  3
   3330   3312   3313   3332     1  0.0000000  1.0460000  1
   3330   3312   3313   3332     1  0.0000000  0.0000000  3
   3330   3317   3321   3331     1  0.0000000  0.6973333  3
   3332   3313   3333   3334     1  0.0000000  0.6973333  3
   3336   3337   3339   3343     1  0.0000000  0.6508444  3
   3336   3337   3357   3358     1  0.0000000  1.0460000  1
   3336   3337   3357   3358     1  0.0000000  0.6694400  3
   3336   3347   3352   3353     1  0.0000000  1.0460000  1
   3336   3347   3352   3353     1  0.0000000  0.6694400  3
   3336   3354   3341   3344     1  0.0000000  1.6038667  3
   3337   3336   3347   3350     1  0.0000000  0.6508444  3
   3337   3336   3347   3351     1  0.0000000  0.6508444  3
   3337   3339   3340   3342     1  0.0000000  0.6508444  3
   3337   3339   3346   3348     1  0.0000000  1.0460000  1
   3337   3339   3346   3348     1  0.0000000  0.6694400  3
   3338   3336   3337   3339     1  0.0000000  0.6508444  3
   3338   3336   3337   3357     1  0.0000000  1.0460000  1
   3338   3336   3337   3357     1  0.0000000  0.0000000  3
   3338   3336   3337   3356     1  0.0000000  0.6508444  3
   3338   3336   3347   3352     1  0.0000000  1.0460000  1
   3338   3336   3347   3352     1  0.0000000  0.0000000  3
   3338   3336   3347   3350     1  0.0000000  0.6508444  3
   3338   3336   3347   3351     1  0.0000000  0.6508444  3
   3338   3336   3354   3341     1  0.0000000  1.6038667  3
   3339   3337   3357   3358     1  0.0000000  1.0460000  1
   3339   3337   3357   3358     1  0.0000000  0.6694400  3
   3339   3340   3341   3344     1  0.0000000  0.6508444  3
   3339   3340   3359   3349     1  0.0000000  1.2552000  3
   3340   3339   3337   3356     1  0.0000000  0.6508444  3
   3340   3339   3346   3348     1  0.0000000  1.0460000  1
   3340   3339   3346   3348     1  0.0000000  0.6694400  3
   3340   3341   3345   3355     1  0.0000000  1.0460000  1
   3340   3341   3345   3355     1  0.0000000  0.6694400  3
   3341   3340   3339   3343     1  0.0000000  0.6508444  3
   3341   3340   3359   3349     1  0.0000000  1.2552000  3
   3342   3340   3339   3346     1  0.0000000  1.0460000  1
   3342   3340   3339   3346     1  0.0000000  0.0000000  3
   3342   3340   3339   3343     1  0.0000000  0.6508444  3
   3342   3340   3341   3345     1  0.0000000  1.0460000  1
   3342   3340   3341   3345     1  0.0000000  0.0000000  3
   3342   3340   3341   3354     1  0.0000000  1.0460000  1
   3342   3340   3341   3354     1  0.0000000  0.0000000  3
   3342   3340   3341   3344     1  0.0000000  0.6508444  3
   3342   3340   3359   3349     1  0.0000000  1.2552000  3
   3343   3339   3337   3357     1  0.0000000  1.0460000  1
   3343   3339   3337   3357     1  0.0000000  0.0000000  3
   3343   3339   3337   3356     1  0.0000000  0.6508444  3
   3343   3339   3340   3359     1  0.0000000  0.6508444  3
   3343   3339   3346   3348     1  0.0000000  0.6973333  3
   3344   3341   3340   3359     1  0.0000000  0.6508444  3
   3344   3341   3345   3355     1  0.0000000  0.6973333  3
   3346   3339   3337   3356     1  0.0000000  1.0460000  1
   3346   3339   3337   3356     1  0.0000000  0.0000000  3
   3347   3336   3337   3356     1  0.0000000  0.6508444  3
   3350   3347   3336   3354     1  0.0000000  1.0460000  1
   3350   3347   3336   3354     1  0.0000000  0.0000000  3
   3350   3347   3352   3353     1  0.0000000  0.6973333  3
   3351   3347   3336   3354     1  0.0000000  1.0460000  1
   3351   3347   3336   3354     1  0.0000000  0.0000000  3
   3351   3347   3352   3353     1  0.0000000  0.6973333  3
   3354   3336   3337   3356     1  0.0000000  1.0460000  1
   3354   3336   3337   3356     1  0.0000000  0.0000000  3
   3354   3341   3345   3355     1  0.0000000  0.6973333  3
   3356   3337   3357   3358     1  0.0000000  0.6973333  3
   3360   3362   3364   3366     1  0.0000000  0.6508444  3
   3360   3362   3364   3367     1  0.0000000  0.6508444  3
   3361   3360   3362   3364     1  0.0000000  0.0000000  2
   3361   3360   3362   3363     1  0.0000000  0.0000000  2
   3361   3360   3362   3365     1  0.0000000  0.0000000  2
   3363   3362   3364   3368     1  0.0000000  0.6508444  3
   3363   3362   3364   3366     1  0.0000000  0.6508444  3
   3363   3362   3364   3367     1  0.0000000  0.6508444  3
   3364   3368   3369   3378     1  0.0000000  1.2552000  3
   3364   3368   3369   3379     1  0.0000000  1.2552000  3
   3364   3368   3370   3371     1  0.0000000  1.2552000  3
   3364   3368   3370   3373     1  0.0000000  1.2552000  3
   3365   3362   3364   3368     1  0.0000000  0.6508444  3
   3365   3362   3364   3366     1  0.0000000  0.6508444  3
   3365   3362   3364   3367     1  0.0000000  0.6508444  3
   3366   3364   3368   3369     1  0.0000000  1.2552000  3
   3366   3364   3368   3370     1  0.0000000  1.2552000  3
   3367   3364   3368   3369     1  0.0000000  1.2552000  3
   3367   3364   3368   3370     1  0.0000000  1.2552000  3
   3368   3369   3380   3381     1  0.0000000  0.6508444  3
   3368   3369   3380   3382     1  0.0000000  0.6508444  3
   3368   3370   3372   3374     1  0.0000000  0.6508444  3
   3368   3370   3372   3375     1  0.0000000  0.6508444  3
   3369   3368   3370   3371     1  0.0000000  1.2552000  3
   3369   3368   3370   3373     1  0.0000000  1.2552000  3
   3370   3368   3369   3378     1  0.0000000  1.2552000  3
   3370   3368   3369   3379     1  0.0000000  1.2552000  3
   3371   3370   3372   3376     1  0.0000000  0.6508444  3
   3371   3370   3372   3374     1  0.0000000  0.6508444  3
   3371   3370   3372   3375     1  0.0000000  0.6508444  3
   3372   3376   3408   3398     1  180.0000771  6.0668000  2
   3372   3376   3408   3398     1  180.0000771  1.4644000  4
   3373   3370   3372   3376     1  0.0000000  0.6508444  3
   3373   3370   3372   3374     1  0.0000000  0.6508444  3
   3373   3370   3372   3375     1  0.0000000  0.6508444  3
   3374   3372   3376   3377     1  0.0000000  3.3472000  1
   3374   3372   3376   3377     1  0.0000000  0.0000000  2
   3374   3372   3376   3377     1  180.0000771  0.3347200  3
   3374   3372   3376   3408     1  180.0000771  0.0000000  2
   3375   3372   3376   3377     1  0.0000000  3.3472000  1
   3375   3372   3376   3377     1  0.0000000  0.0000000  2
   3375   3372   3376   3377     1  180.0000771  0.3347200  3
   3375   3372   3376   3408     1  180.0000771  0.0000000  2
   3376   3408   3389   3391     1  0.0000000  1.2552000  3
   3377   3376   3408   3398     1  180.0000771  6.0668000  2
   3377   3376   3408   3398     1  180.0000771  1.4644000  4
   3378   3369   3380   3383     1  0.0000000  0.6508444  3
   3378   3369   3380   3381     1  0.0000000  0.6508444  3
   3378   3369   3380   3382     1  0.0000000  0.6508444  3
   3379   3369   3380   3383     1  0.0000000  0.6508444  3
   3379   3369   3380   3381     1  0.0000000  0.6508444  3
   3379   3369   3380   3382     1  0.0000000  0.6508444  3
   3380   3383   3432   3422     1  180.0000771  6.0668000  2
   3380   3383   3432   3422     1  180.0000771  1.4644000  4
   3381   3380   3383   3384     1  0.0000000  3.3472000  1
   3381   3380   3383   3384     1  0.0000000  0.0000000  2
   3381   3380   3383   3384     1  180.0000771  0.3347200  3
   3381   3380   3383   3432     1  180.0000771  0.0000000  2
   3382   3380   3383   3384     1  0.0000000  3.3472000  1
   3382   3380   3383   3384     1  0.0000000  0.0000000  2
   3382   3380   3383   3384     1  180.0000771  0.3347200  3
   3382   3380   3383   3432     1  180.0000771  0.0000000  2
   3383   3432   3413   3415     1  0.0000000  1.2552000  3
   3384   3383   3432   3422     1  180.0000771  6.0668000  2
   3384   3383   3432   3422     1  180.0000771  1.4644000  4
   3385   3386   3388   3392     1  0.0000000  0.6508444  3
   3385   3386   3406   3407     1  0.0000000  1.0460000  1
   3385   3386   3406   3407     1  0.0000000  0.6694400  3
   3385   3396   3401   3402     1  0.0000000  1.0460000  1
   3385   3396   3401   3402     1  0.0000000  0.6694400  3
   3385   3403   3390   3393     1  0.0000000  1.6038667  3
   3386   3388   3389   3391     1  0.0000000  0.6508444  3
   3386   3388   3395   3397     1  0.0000000  1.0460000  1
   3386   3388   3395   3397     1  0.0000000  0.6694400  3
   3386   3385   3396   3399     1  0.0000000  0.6508444  3
   3386   3385   3396   3400     1  0.0000000  0.6508444  3
   3387   3385   3386   3388     1  0.0000000  0.6508444  3
   3387   3385   3386   3406     1  0.0000000  1.0460000  1
   3387   3385   3386   3406     1  0.0000000  0.0000000  3
   3387   3385   3386   3405     1  0.0000000  0.6508444  3
   3387   3385   3396   3401     1  0.0000000  1.0460000  1
   3387   3385   3396   3401     1  0.0000000  0.0000000  3
   3387   3385   3396   3399     1  0.0000000  0.6508444  3
   3387   3385   3396   3400     1  0.0000000  0.6508444  3
   3387   3385   3403   3390     1  0.0000000  1.6038667  3
   3388   3389   3390   3393     1  0.0000000  0.6508444  3
   3388   3389   3408   3398     1  0.0000000  1.2552000  3
   3388   3386   3406   3407     1  0.0000000  1.0460000  1
   3388   3386   3406   3407     1  0.0000000  0.6694400  3
   3389   3390   3394   3404     1  0.0000000  1.0460000  1
   3389   3390   3394   3404     1  0.0000000  0.6694400  3
   3389   3388   3395   3397     1  0.0000000  1.0460000  1
   3389   3388   3395   3397     1  0.0000000  0.6694400  3
   3389   3388   3386   3405     1  0.0000000  0.6508444  3
   3390   3389   3408   3398     1  0.0000000  1.2552000  3
   3390   3389   3388   3392     1  0.0000000  0.6508444  3
   3391   3389   3390   3394     1  0.0000000  1.0460000  1
   3391   3389   3390   3394     1  0.0000000  0.0000000  3
   3391   3389   3390   3403     1  0.0000000  1.0460000  1
   3391   3389   3390   3403     1  0.0000000  0.0000000  3
   3391   3389   3390   3393     1  0.0000000  0.6508444  3
   3391   3389   3408   3398     1  0.0000000  1.2552000  3
   3391   3389   3388   3395     1  0.0000000  1.0460000  1
   3391   3389   3388   3395     1  0.0000000  0.0000000  3
   3391   3389   3388   3392     1  0.0000000  0.6508444  3
   3392   3388   3389   3408     1  0.0000000  0.6508444  3
   3392   3388   3395   3397     1  0.0000000  0.6973333  3
   3392   3388   3386   3406     1  0.0000000  1.0460000  1
   3392   3388   3386   3406     1  0.0000000  0.0000000  3
   3392   3388   3386   3405     1  0.0000000  0.6508444  3
   3393   3390   3394   3404     1  0.0000000  0.6973333  3
   3393   3390   3389   3408     1  0.0000000  0.6508444  3
   3395   3388   3386   3405     1  0.0000000  1.0460000  1
   3395   3388   3386   3405     1  0.0000000  0.0000000  3
   3396   3385   3386   3405     1  0.0000000  0.6508444  3
   3399   3396   3401   3402     1  0.0000000  0.6973333  3
   3399   3396   3385   3403     1  0.0000000  1.0460000  1
   3399   3396   3385   3403     1  0.0000000  0.0000000  3
   3400   3396   3401   3402     1  0.0000000  0.6973333  3
   3400   3396   3385   3403     1  0.0000000  1.0460000  1
   3400   3396   3385   3403     1  0.0000000  0.0000000  3
   3403   3390   3394   3404     1  0.0000000  0.6973333  3
   3403   3385   3386   3405     1  0.0000000  1.0460000  1
   3403   3385   3386   3405     1  0.0000000  0.0000000  3
   3405   3386   3406   3407     1  0.0000000  0.6973333  3
   3409   3410   3412   3416     1  0.0000000  0.6508444  3
   3409   3410   3430   3431     1  0.0000000  1.0460000  1
   3409   3410   3430   3431     1  0.0000000  0.6694400  3
   3409   3420   3425   3426     1  0.0000000  1.0460000  1
   3409   3420   3425   3426     1  0.0000000  0.6694400  3
   3409   3427   3414   3417     1  0.0000000  1.6038667  3
   3410   3412   3413   3415     1  0.0000000  0.6508444  3
   3410   3412   3419   3421     1  0.0000000  1.0460000  1
   3410   3412   3419   3421     1  0.0000000  0.6694400  3
   3410   3409   3420   3423     1  0.0000000  0.6508444  3
   3410   3409   3420   3424     1  0.0000000  0.6508444  3
   3411   3409   3410   3412     1  0.0000000  0.6508444  3
   3411   3409   3410   3430     1  0.0000000  1.0460000  1
   3411   3409   3410   3430     1  0.0000000  0.0000000  3
   3411   3409   3410   3429     1  0.0000000  0.6508444  3
   3411   3409   3420   3425     1  0.0000000  1.0460000  1
   3411   3409   3420   3425     1  0.0000000  0.0000000  3
   3411   3409   3420   3423     1  0.0000000  0.6508444  3
   3411   3409   3420   3424     1  0.0000000  0.6508444  3
   3411   3409   3427   3414     1  0.0000000  1.6038667  3
   3412   3413   3414   3417     1  0.0000000  0.6508444  3
   3412   3413   3432   3422     1  0.0000000  1.2552000  3
   3412   3410   3430   3431     1  0.0000000  1.0460000  1
   3412   3410   3430   3431     1  0.0000000  0.6694400  3
   3413   3414   3418   3428     1  0.0000000  1.0460000  1
   3413   3414   3418   3428     1  0.0000000  0.6694400  3
   3413   3412   3419   3421     1  0.0000000  1.0460000  1
   3413   3412   3419   3421     1  0.0000000  0.6694400  3
   3413   3412   3410   3429     1  0.0000000  0.6508444  3
   3414   3413   3432   3422     1  0.0000000  1.2552000  3
   3414   3413   3412   3416     1  0.0000000  0.6508444  3
   3415   3413   3414   3418     1  0.0000000  1.0460000  1
   3415   3413   3414   3418     1  0.0000000  0.0000000  3
   3415   3413   3414   3427     1  0.0000000  1.0460000  1
   3415   3413   3414   3427     1  0.0000000  0.0000000  3
   3415   3413   3414   3417     1  0.0000000  0.6508444  3
   3415   3413   3432   3422     1  0.0000000  1.2552000  3
   3415   3413   3412   3419     1  0.0000000  1.0460000  1
   3415   3413   3412   3419     1  0.0000000  0.0000000  3
   3415   3413   3412   3416     1  0.0000000  0.6508444  3
   3416   3412   3413   3432     1  0.0000000  0.6508444  3
   3416   3412   3419   3421     1  0.0000000  0.6973333  3
   3416   3412   3410   3430     1  0.0000000  1.0460000  1
   3416   3412   3410   3430     1  0.0000000  0.0000000  3
   3416   3412   3410   3429     1  0.0000000  0.6508444  3
   3417   3414   3418   3428     1  0.0000000  0.6973333  3
   3417   3414   3413   3432     1  0.0000000  0.6508444  3
   3419   3412   3410   3429     1  0.0000000  1.0460000  1
   3419   3412   3410   3429     1  0.0000000  0.0000000  3
   3420   3409   3410   3429     1  0.0000000  0.6508444  3
   3423   3420   3425   3426     1  0.0000000  0.6973333  3
   3423   3420   3409   3427     1  0.0000000  1.0460000  1
   3423   3420   3409   3427     1  0.0000000  0.0000000  3
   3424   3420   3425   3426     1  0.0000000  0.6973333  3
   3424   3420   3409   3427     1  0.0000000  1.0460000  1
   3424   3420   3409   3427     1  0.0000000  0.0000000  3
   3427   3414   3418   3428     1  0.0000000  0.6973333  3
   3427   3409   3410   3429     1  0.0000000  1.0460000  1
   3427   3409   3410   3429     1  0.0000000  0.0000000  3
   3429   3410   3430   3431     1  0.0000000  0.6973333  3
   3433   3435   3437   3439     1  0.0000000  0.6508444  3
   3433   3435   3437   3440     1  0.0000000  0.6508444  3
   3434   3433   3435   3437     1  0.0000000  0.0000000  2
   3434   3433   3435   3436     1  0.0000000  0.0000000  2
   3434   3433   3435   3438     1  0.0000000  0.0000000  2
   3436   3435   3437   3441     1  0.0000000  0.6508444  3
   3436   3435   3437   3439     1  0.0000000  0.6508444  3
   3436   3435   3437   3440     1  0.0000000  0.6508444  3
   3437   3441   3442   3451     1  0.0000000  1.2552000  3
   3437   3441   3442   3452     1  0.0000000  1.2552000  3
   3437   3441   3443   3444     1  0.0000000  1.2552000  3
   3437   3441   3443   3446     1  0.0000000  1.2552000  3
   3438   3435   3437   3441     1  0.0000000  0.6508444  3
   3438   3435   3437   3439     1  0.0000000  0.6508444  3
   3438   3435   3437   3440     1  0.0000000  0.6508444  3
   3439   3437   3441   3442     1  0.0000000  1.2552000  3
   3439   3437   3441   3443     1  0.0000000  1.2552000  3
   3440   3437   3441   3442     1  0.0000000  1.2552000  3
   3440   3437   3441   3443     1  0.0000000  1.2552000  3
   3441   3442   3453   3454     1  0.0000000  0.6508444  3
   3441   3442   3453   3455     1  0.0000000  0.6508444  3
   3441   3443   3445   3447     1  0.0000000  0.6508444  3
   3441   3443   3445   3448     1  0.0000000  0.6508444  3
   3442   3441   3443   3444     1  0.0000000  1.2552000  3
   3442   3441   3443   3446     1  0.0000000  1.2552000  3
   3443   3441   3442   3451     1  0.0000000  1.2552000  3
   3443   3441   3442   3452     1  0.0000000  1.2552000  3
   3444   3443   3445   3449     1  0.0000000  0.6508444  3
   3444   3443   3445   3447     1  0.0000000  0.6508444  3
   3444   3443   3445   3448     1  0.0000000  0.6508444  3
   3445   3449   3481   3471     1  180.0000771  6.0668000  2
   3445   3449   3481   3471     1  180.0000771  1.4644000  4
   3446   3443   3445   3449     1  0.0000000  0.6508444  3
   3446   3443   3445   3447     1  0.0000000  0.6508444  3
   3446   3443   3445   3448     1  0.0000000  0.6508444  3
   3447   3445   3449   3450     1  0.0000000  3.3472000  1
   3447   3445   3449   3450     1  0.0000000  0.0000000  2
   3447   3445   3449   3450     1  180.0000771  0.3347200  3
   3447   3445   3449   3481     1  180.0000771  0.0000000  2
   3448   3445   3449   3450     1  0.0000000  3.3472000  1
   3448   3445   3449   3450     1  0.0000000  0.0000000  2
   3448   3445   3449   3450     1  180.0000771  0.3347200  3
   3448   3445   3449   3481     1  180.0000771  0.0000000  2
   3449   3481   3462   3464     1  0.0000000  1.2552000  3
   3450   3449   3481   3471     1  180.0000771  6.0668000  2
   3450   3449   3481   3471     1  180.0000771  1.4644000  4
   3451   3442   3453   3456     1  0.0000000  0.6508444  3
   3451   3442   3453   3454     1  0.0000000  0.6508444  3
   3451   3442   3453   3455     1  0.0000000  0.6508444  3
   3452   3442   3453   3456     1  0.0000000  0.6508444  3
   3452   3442   3453   3454     1  0.0000000  0.6508444  3
   3452   3442   3453   3455     1  0.0000000  0.6508444  3
   3453   3456   3505   3495     1  180.0000771  6.0668000  2
   3453   3456   3505   3495     1  180.0000771  1.4644000  4
   3454   3453   3456   3457     1  0.0000000  3.3472000  1
   3454   3453   3456   3457     1  0.0000000  0.0000000  2
   3454   3453   3456   3457     1  180.0000771  0.3347200  3
   3454   3453   3456   3505     1  180.0000771  0.0000000  2
   3455   3453   3456   3457     1  0.0000000  3.3472000  1
   3455   3453   3456   3457     1  0.0000000  0.0000000  2
   3455   3453   3456   3457     1  180.0000771  0.3347200  3
   3455   3453   3456   3505     1  180.0000771  0.0000000  2
   3456   3505   3486   3488     1  0.0000000  1.2552000  3
   3457   3456   3505   3495     1  180.0000771  6.0668000  2
   3457   3456   3505   3495     1  180.0000771  1.4644000  4
   3458   3459   3461   3465     1  0.0000000  0.6508444  3
   3458   3459   3479   3480     1  0.0000000  1.0460000  1
   3458   3459   3479   3480     1  0.0000000  0.6694400  3
   3458   3469   3474   3475     1  0.0000000  1.0460000  1
   3458   3469   3474   3475     1  0.0000000  0.6694400  3
   3458   3476   3463   3466     1  0.0000000  1.6038667  3
   3459   3458   3469   3472     1  0.0000000  0.6508444  3
   3459   3458   3469   3473     1  0.0000000  0.6508444  3
   3459   3461   3462   3464     1  0.0000000  0.6508444  3
   3459   3461   3468   3470     1  0.0000000  1.0460000  1
   3459   3461   3468   3470     1  0.0000000  0.6694400  3
   3460   3458   3459   3461     1  0.0000000  0.6508444  3
   3460   3458   3459   3479     1  0.0000000  1.0460000  1
   3460   3458   3459   3479     1  0.0000000  0.0000000  3
   3460   3458   3459   3478     1  0.0000000  0.6508444  3
   3460   3458   3469   3474     1  0.0000000  1.0460000  1
   3460   3458   3469   3474     1  0.0000000  0.0000000  3
   3460   3458   3469   3472     1  0.0000000  0.6508444  3
   3460   3458   3469   3473     1  0.0000000  0.6508444  3
   3460   3458   3476   3463     1  0.0000000  1.6038667  3
   3461   3459   3479   3480     1  0.0000000  1.0460000  1
   3461   3459   3479   3480     1  0.0000000  0.6694400  3
   3461   3462   3463   3466     1  0.0000000  0.6508444  3
   3461   3462   3481   3471     1  0.0000000  1.2552000  3
   3462   3461   3459   3478     1  0.0000000  0.6508444  3
   3462   3461   3468   3470     1  0.0000000  1.0460000  1
   3462   3461   3468   3470     1  0.0000000  0.6694400  3
   3462   3463   3467   3477     1  0.0000000  1.0460000  1
   3462   3463   3467   3477     1  0.0000000  0.6694400  3
   3463   3462   3461   3465     1  0.0000000  0.6508444  3
   3463   3462   3481   3471     1  0.0000000  1.2552000  3
   3464   3462   3461   3468     1  0.0000000  1.0460000  1
   3464   3462   3461   3468     1  0.0000000  0.0000000  3
   3464   3462   3461   3465     1  0.0000000  0.6508444  3
   3464   3462   3463   3467     1  0.0000000  1.0460000  1
   3464   3462   3463   3467     1  0.0000000  0.0000000  3
   3464   3462   3463   3476     1  0.0000000  1.0460000  1
   3464   3462   3463   3476     1  0.0000000  0.0000000  3
   3464   3462   3463   3466     1  0.0000000  0.6508444  3
   3464   3462   3481   3471     1  0.0000000  1.2552000  3
   3465   3461   3459   3479     1  0.0000000  1.0460000  1
   3465   3461   3459   3479     1  0.0000000  0.0000000  3
   3465   3461   3459   3478     1  0.0000000  0.6508444  3
   3465   3461   3462   3481     1  0.0000000  0.6508444  3
   3465   3461   3468   3470     1  0.0000000  0.6973333  3
   3466   3463   3462   3481     1  0.0000000  0.6508444  3
   3466   3463   3467   3477     1  0.0000000  0.6973333  3
   3468   3461   3459   3478     1  0.0000000  1.0460000  1
   3468   3461   3459   3478     1  0.0000000  0.0000000  3
   3469   3458   3459   3478     1  0.0000000  0.6508444  3
   3472   3469   3458   3476     1  0.0000000  1.0460000  1
   3472   3469   3458   3476     1  0.0000000  0.0000000  3
   3472   3469   3474   3475     1  0.0000000  0.6973333  3
   3473   3469   3458   3476     1  0.0000000  1.0460000  1
   3473   3469   3458   3476     1  0.0000000  0.0000000  3
   3473   3469   3474   3475     1  0.0000000  0.6973333  3
   3476   3458   3459   3478     1  0.0000000  1.0460000  1
   3476   3458   3459   3478     1  0.0000000  0.0000000  3
   3476   3463   3467   3477     1  0.0000000  0.6973333  3
   3478   3459   3479   3480     1  0.0000000  0.6973333  3
   3482   3483   3485   3489     1  0.0000000  0.6508444  3
   3482   3483   3503   3504     1  0.0000000  1.0460000  1
   3482   3483   3503   3504     1  0.0000000  0.6694400  3
   3482   3493   3498   3499     1  0.0000000  1.0460000  1
   3482   3493   3498   3499     1  0.0000000  0.6694400  3
   3482   3500   3487   3490     1  0.0000000  1.6038667  3
   3483   3482   3493   3496     1  0.0000000  0.6508444  3
   3483   3482   3493   3497     1  0.0000000  0.6508444  3
   3483   3485   3486   3488     1  0.0000000  0.6508444  3
   3483   3485   3492   3494     1  0.0000000  1.0460000  1
   3483   3485   3492   3494     1  0.0000000  0.6694400  3
   3484   3482   3483   3485     1  0.0000000  0.6508444  3
   3484   3482   3483   3503     1  0.0000000  1.0460000  1
   3484   3482   3483   3503     1  0.0000000  0.0000000  3
   3484   3482   3483   3502     1  0.0000000  0.6508444  3
   3484   3482   3493   3498     1  0.0000000  1.0460000  1
   3484   3482   3493   3498     1  0.0000000  0.0000000  3
   3484   3482   3493   3496     1  0.0000000  0.6508444  3
   3484   3482   3493   3497     1  0.0000000  0.6508444  3
   3484   3482   3500   3487     1  0.0000000  1.6038667  3
   3485   3483   3503   3504     1  0.0000000  1.0460000  1
   3485   3483   3503   3504     1  0.0000000  0.6694400  3
   3485   3486   3487   3490     1  0.0000000  0.6508444  3
   3485   3486   3505   3495     1  0.0000000  1.2552000  3
   3486   3485   3483   3502     1  0.0000000  0.6508444  3
   3486   3485   3492   3494     1  0.0000000  1.0460000  1
   3486   3485   3492   3494     1  0.0000000  0.6694400  3
   3486   3487   3491   3501     1  0.0000000  1.0460000  1
   3486   3487   3491   3501     1  0.0000000  0.6694400  3
   3487   3486   3485   3489     1  0.0000000  0.6508444  3
   3487   3486   3505   3495     1  0.0000000  1.2552000  3
   3488   3486   3485   3492     1  0.0000000  1.0460000  1
   3488   3486   3485   3492     1  0.0000000  0.0000000  3
   3488   3486   3485   3489     1  0.0000000  0.6508444  3
   3488   3486   3487   3491     1  0.0000000  1.0460000  1
   3488   3486   3487   3491     1  0.0000000  0.0000000  3
   3488   3486   3487   3500     1  0.0000000  1.0460000  1
   3488   3486   3487   3500     1  0.0000000  0.0000000  3
   3488   3486   3487   3490     1  0.0000000  0.6508444  3
   3488   3486   3505   3495     1  0.0000000  1.2552000  3
   3489   3485   3483   3503     1  0.0000000  1.0460000  1
   3489   3485   3483   3503     1  0.0000000  0.0000000  3
   3489   3485   3483   3502     1  0.0000000  0.6508444  3
   3489   3485   3486   3505     1  0.0000000  0.6508444  3
   3489   3485   3492   3494     1  0.0000000  0.6973333  3
   3490   3487   3486   3505     1  0.0000000  0.6508444  3
   3490   3487   3491   3501     1  0.0000000  0.6973333  3
   3492   3485   3483   3502     1  0.0000000  1.0460000  1
   3492   3485   3483   3502     1  0.0000000  0.0000000  3
   3493   3482   3483   3502     1  0.0000000  0.6508444  3
   3496   3493   3482   3500     1  0.0000000  1.0460000  1
   3496   3493   3482   3500     1  0.0000000  0.0000000  3
   3496   3493   3498   3499     1  0.0000000  0.6973333  3
   3497   3493   3482   3500     1  0.0000000  1.0460000  1
   3497   3493   3482   3500     1  0.0000000  0.0000000  3
   3497   3493   3498   3499     1  0.0000000  0.6973333  3
   3500   3482   3483   3502     1  0.0000000  1.0460000  1
   3500   3482   3483   3502     1  0.0000000  0.0000000  3
   3500   3487   3491   3501     1  0.0000000  0.6973333  3
   3502   3483   3503   3504     1  0.0000000  0.6973333  3
   3506   3508   3510   3512     1  0.0000000  0.6508444  3
   3506   3508   3510   3513     1  0.0000000  0.6508444  3
   3507   3506   3508   3510     1  0.0000000  0.0000000  2
   3507   3506   3508   3509     1  0.0000000  0.0000000  2
   3507   3506   3508   3511     1  0.0000000  0.0000000  2
   3509   3508   3510   3514     1  0.0000000  0.6508444  3
   3509   3508   3510   3512     1  0.0000000  0.6508444  3
   3509   3508   3510   3513     1  0.0000000  0.6508444  3
   3510   3514   3515   3524     1  0.0000000  1.2552000  3
   3510   3514   3515   3525     1  0.0000000  1.2552000  3
   3510   3514   3516   3517     1  0.0000000  1.2552000  3
   3510   3514   3516   3519     1  0.0000000  1.2552000  3
   3511   3508   3510   3514     1  0.0000000  0.6508444  3
   3511   3508   3510   3512     1  0.0000000  0.6508444  3
   3511   3508   3510   3513     1  0.0000000  0.6508444  3
   3512   3510   3514   3515     1  0.0000000  1.2552000  3
   3512   3510   3514   3516     1  0.0000000  1.2552000  3
   3513   3510   3514   3515     1  0.0000000  1.2552000  3
   3513   3510   3514   3516     1  0.0000000  1.2552000  3
   3514   3515   3526   3527     1  0.0000000  0.6508444  3
   3514   3515   3526   3528     1  0.0000000  0.6508444  3
   3514   3516   3518   3520     1  0.0000000  0.6508444  3
   3514   3516   3518   3521     1  0.0000000  0.6508444  3
   3515   3514   3516   3517     1  0.0000000  1.2552000  3
   3515   3514   3516   3519     1  0.0000000  1.2552000  3
   3516   3514   3515   3524     1  0.0000000  1.2552000  3
   3516   3514   3515   3525     1  0.0000000  1.2552000  3
   3517   3516   3518   3522     1  0.0000000  0.6508444  3
   3517   3516   3518   3520     1  0.0000000  0.6508444  3
   3517   3516   3518   3521     1  0.0000000  0.6508444  3
   3518   3522   3554   3544     1  180.0000771  6.0668000  2
   3518   3522   3554   3544     1  180.0000771  1.4644000  4
   3519   3516   3518   3522     1  0.0000000  0.6508444  3
   3519   3516   3518   3520     1  0.0000000  0.6508444  3
   3519   3516   3518   3521     1  0.0000000  0.6508444  3
   3520   3518   3522   3523     1  0.0000000  3.3472000  1
   3520   3518   3522   3523     1  0.0000000  0.0000000  2
   3520   3518   3522   3523     1  180.0000771  0.3347200  3
   3520   3518   3522   3554     1  180.0000771  0.0000000  2
   3521   3518   3522   3523     1  0.0000000  3.3472000  1
   3521   3518   3522   3523     1  0.0000000  0.0000000  2
   3521   3518   3522   3523     1  180.0000771  0.3347200  3
   3521   3518   3522   3554     1  180.0000771  0.0000000  2
   3522   3554   3535   3537     1  0.0000000  1.2552000  3
   3523   3522   3554   3544     1  180.0000771  6.0668000  2
   3523   3522   3554   3544     1  180.0000771  1.4644000  4
   3524   3515   3526   3529     1  0.0000000  0.6508444  3
   3524   3515   3526   3527     1  0.0000000  0.6508444  3
   3524   3515   3526   3528     1  0.0000000  0.6508444  3
   3525   3515   3526   3529     1  0.0000000  0.6508444  3
   3525   3515   3526   3527     1  0.0000000  0.6508444  3
   3525   3515   3526   3528     1  0.0000000  0.6508444  3
   3526   3529   3578   3568     1  180.0000771  6.0668000  2
   3526   3529   3578   3568     1  180.0000771  1.4644000  4
   3527   3526   3529   3530     1  0.0000000  3.3472000  1
   3527   3526   3529   3530     1  0.0000000  0.0000000  2
   3527   3526   3529   3530     1  180.0000771  0.3347200  3
   3527   3526   3529   3578     1  180.0000771  0.0000000  2
   3528   3526   3529   3530     1  0.0000000  3.3472000  1
   3528   3526   3529   3530     1  0.0000000  0.0000000  2
   3528   3526   3529   3530     1  180.0000771  0.3347200  3
   3528   3526   3529   3578     1  180.0000771  0.0000000  2
   3529   3578   3559   3561     1  0.0000000  1.2552000  3
   3530   3529   3578   3568     1  180.0000771  6.0668000  2
   3530   3529   3578   3568     1  180.0000771  1.4644000  4
   3531   3532   3534   3538     1  0.0000000  0.6508444  3
   3531   3532   3552   3553     1  0.0000000  1.0460000  1
   3531   3532   3552   3553     1  0.0000000  0.6694400  3
   3531   3542   3547   3548     1  0.0000000  1.0460000  1
   3531   3542   3547   3548     1  0.0000000  0.6694400  3
   3531   3549   3536   3539     1  0.0000000  1.6038667  3
   3532   3534   3535   3537     1  0.0000000  0.6508444  3
   3532   3534   3541   3543     1  0.0000000  1.0460000  1
   3532   3534   3541   3543     1  0.0000000  0.6694400  3
   3532   3531   3542   3545     1  0.0000000  0.6508444  3
   3532   3531   3542   3546     1  0.0000000  0.6508444  3
   3533   3531   3532   3534     1  0.0000000  0.6508444  3
   3533   3531   3532   3552     1  0.0000000  1.0460000  1
   3533   3531   3532   3552     1  0.0000000  0.0000000  3
   3533   3531   3532   3551     1  0.0000000  0.6508444  3
   3533   3531   3542   3547     1  0.0000000  1.0460000  1
   3533   3531   3542   3547     1  0.0000000  0.0000000  3
   3533   3531   3542   3545     1  0.0000000  0.6508444  3
   3533   3531   3542   3546     1  0.0000000  0.6508444  3
   3533   3531   3549   3536     1  0.0000000  1.6038667  3
   3534   3535   3536   3539     1  0.0000000  0.6508444  3
   3534   3535   3554   3544     1  0.0000000  1.2552000  3
   3534   3532   3552   3553     1  0.0000000  1.0460000  1
   3534   3532   3552   3553     1  0.0000000  0.6694400  3
   3535   3536   3540   3550     1  0.0000000  1.0460000  1
   3535   3536   3540   3550     1  0.0000000  0.6694400  3
   3535   3534   3541   3543     1  0.0000000  1.0460000  1
   3535   3534   3541   3543     1  0.0000000  0.6694400  3
   3535   3534   3532   3551     1  0.0000000  0.6508444  3
   3536   3535   3554   3544     1  0.0000000  1.2552000  3
   3536   3535   3534   3538     1  0.0000000  0.6508444  3
   3537   3535   3536   3540     1  0.0000000  1.0460000  1
   3537   3535   3536   3540     1  0.0000000  0.0000000  3
   3537   3535   3536   3549     1  0.0000000  1.0460000  1
   3537   3535   3536   3549     1  0.0000000  0.0000000  3
   3537   3535   3536   3539     1  0.0000000  0.6508444  3
   3537   3535   3554   3544     1  0.0000000  1.2552000  3
   3537   3535   3534   3541     1  0.0000000  1.0460000  1
   3537   3535   3534   3541     1  0.0000000  0.0000000  3
   3537   3535   3534   3538     1  0.0000000  0.6508444  3
   3538   3534   3535   3554     1  0.0000000  0.6508444  3
   3538   3534   3541   3543     1  0.0000000  0.6973333  3
   3538   3534   3532   3552     1  0.0000000  1.0460000  1
   3538   3534   3532   3552     1  0.0000000  0.0000000  3
   3538   3534   3532   3551     1  0.0000000  0.6508444  3
   3539   3536   3540   3550     1  0.0000000  0.6973333  3
   3539   3536   3535   3554     1  0.0000000  0.6508444  3
   3541   3534   3532   3551     1  0.0000000  1.0460000  1
   3541   3534   3532   3551     1  0.0000000  0.0000000  3
   3542   3531   3532   3551     1  0.0000000  0.6508444  3
   3545   3542   3547   3548     1  0.0000000  0.6973333  3
   3545   3542   3531   3549     1  0.0000000  1.0460000  1
   3545   3542   3531   3549     1  0.0000000  0.0000000  3
   3546   3542   3547   3548     1  0.0000000  0.6973333  3
   3546   3542   3531   3549     1  0.0000000  1.0460000  1
   3546   3542   3531   3549     1  0.0000000  0.0000000  3
   3549   3536   3540   3550     1  0.0000000  0.6973333  3
   3549   3531   3532   3551     1  0.0000000  1.0460000  1
   3549   3531   3532   3551     1  0.0000000  0.0000000  3
   3551   3532   3552   3553     1  0.0000000  0.6973333  3
   3555   3556   3558   3562     1  0.0000000  0.6508444  3
   3555   3556   3576   3577     1  0.0000000  1.0460000  1
   3555   3556   3576   3577     1  0.0000000  0.6694400  3
   3555   3566   3571   3572     1  0.0000000  1.0460000  1
   3555   3566   3571   3572     1  0.0000000  0.6694400  3
   3555   3573   3560   3563     1  0.0000000  1.6038667  3
   3556   3558   3559   3561     1  0.0000000  0.6508444  3
   3556   3558   3565   3567     1  0.0000000  1.0460000  1
   3556   3558   3565   3567     1  0.0000000  0.6694400  3
   3556   3555   3566   3569     1  0.0000000  0.6508444  3
   3556   3555   3566   3570     1  0.0000000  0.6508444  3
   3557   3555   3556   3558     1  0.0000000  0.6508444  3
   3557   3555   3556   3576     1  0.0000000  1.0460000  1
   3557   3555   3556   3576     1  0.0000000  0.0000000  3
   3557   3555   3556   3575     1  0.0000000  0.6508444  3
   3557   3555   3566   3571     1  0.0000000  1.0460000  1
   3557   3555   3566   3571     1  0.0000000  0.0000000  3
   3557   3555   3566   3569     1  0.0000000  0.6508444  3
   3557   3555   3566   3570     1  0.0000000  0.6508444  3
   3557   3555   3573   3560     1  0.0000000  1.6038667  3
   3558   3559   3560   3563     1  0.0000000  0.6508444  3
   3558   3559   3578   3568     1  0.0000000  1.2552000  3
   3558   3556   3576   3577     1  0.0000000  1.0460000  1
   3558   3556   3576   3577     1  0.0000000  0.6694400  3
   3559   3560   3564   3574     1  0.0000000  1.0460000  1
   3559   3560   3564   3574     1  0.0000000  0.6694400  3
   3559   3558   3565   3567     1  0.0000000  1.0460000  1
   3559   3558   3565   3567     1  0.0000000  0.6694400  3
   3559   3558   3556   3575     1  0.0000000  0.6508444  3
   3560   3559   3578   3568     1  0.0000000  1.2552000  3
   3560   3559   3558   3562     1  0.0000000  0.6508444  3
   3561   3559   3560   3564     1  0.0000000  1.0460000  1
   3561   3559   3560   3564     1  0.0000000  0.0000000  3
   3561   3559   3560   3573     1  0.0000000  1.0460000  1
   3561   3559   3560   3573     1  0.0000000  0.0000000  3
   3561   3559   3560   3563     1  0.0000000  0.6508444  3
   3561   3559   3578   3568     1  0.0000000  1.2552000  3
   3561   3559   3558   3565     1  0.0000000  1.0460000  1
   3561   3559   3558   3565     1  0.0000000  0.0000000  3
   3561   3559   3558   3562     1  0.0000000  0.6508444  3
   3562   3558   3559   3578     1  0.0000000  0.6508444  3
   3562   3558   3565   3567     1  0.0000000  0.6973333  3
   3562   3558   3556   3576     1  0.0000000  1.0460000  1
   3562   3558   3556   3576     1  0.0000000  0.0000000  3
   3562   3558   3556   3575     1  0.0000000  0.6508444  3
   3563   3560   3564   3574     1  0.0000000  0.6973333  3
   3563   3560   3559   3578     1  0.0000000  0.6508444  3
   3565   3558   3556   3575     1  0.0000000  1.0460000  1
   3565   3558   3556   3575     1  0.0000000  0.0000000  3
   3566   3555   3556   3575     1  0.0000000  0.6508444  3
   3569   3566   3571   3572     1  0.0000000  0.6973333  3
   3569   3566   3555   3573     1  0.0000000  1.0460000  1
   3569   3566   3555   3573     1  0.0000000  0.0000000  3
   3570   3566   3571   3572     1  0.0000000  0.6973333  3
   3570   3566   3555   3573     1  0.0000000  1.0460000  1
   3570   3566   3555   3573     1  0.0000000  0.0000000  3
   3573   3560   3564   3574     1  0.0000000  0.6973333  3
   3573   3555   3556   3575     1  0.0000000  1.0460000  1
   3573   3555   3556   3575     1  0.0000000  0.0000000  3
   3575   3556   3576   3577     1  0.0000000  0.6973333  3
   3579   3581   3583   3585     1  0.0000000  0.6508444  3
   3579   3581   3583   3586     1  0.0000000  0.6508444  3
   3580   3579   3581   3583     1  0.0000000  0.0000000  2
   3580   3579   3581   3582     1  0.0000000  0.0000000  2
   3580   3579   3581   3584     1  0.0000000  0.0000000  2
   3582   3581   3583   3587     1  0.0000000  0.6508444  3
   3582   3581   3583   3585     1  0.0000000  0.6508444  3
   3582   3581   3583   3586     1  0.0000000  0.6508444  3
   3583   3587   3588   3597     1  0.0000000  1.2552000  3
   3583   3587   3588   3598     1  0.0000000  1.2552000  3
   3583   3587   3589   3590     1  0.0000000  1.2552000  3
   3583   3587   3589   3592     1  0.0000000  1.2552000  3
   3584   3581   3583   3587     1  0.0000000  0.6508444  3
   3584   3581   3583   3585     1  0.0000000  0.6508444  3
   3584   3581   3583   3586     1  0.0000000  0.6508444  3
   3585   3583   3587   3588     1  0.0000000  1.2552000  3
   3585   3583   3587   3589     1  0.0000000  1.2552000  3
   3586   3583   3587   3588     1  0.0000000  1.2552000  3
   3586   3583   3587   3589     1  0.0000000  1.2552000  3
   3587   3588   3599   3600     1  0.0000000  0.6508444  3
   3587   3588   3599   3601     1  0.0000000  0.6508444  3
   3587   3589   3591   3593     1  0.0000000  0.6508444  3
   3587   3589   3591   3594     1  0.0000000  0.6508444  3
   3588   3587   3589   3590     1  0.0000000  1.2552000  3
   3588   3587   3589   3592     1  0.0000000  1.2552000  3
   3589   3587   3588   3597     1  0.0000000  1.2552000  3
   3589   3587   3588   3598     1  0.0000000  1.2552000  3
   3590   3589   3591   3595     1  0.0000000  0.6508444  3
   3590   3589   3591   3593     1  0.0000000  0.6508444  3
   3590   3589   3591   3594     1  0.0000000  0.6508444  3
   3591   3595   3627   3617     1  180.0000771  6.0668000  2
   3591   3595   3627   3617     1  180.0000771  1.4644000  4
   3592   3589   3591   3595     1  0.0000000  0.6508444  3
   3592   3589   3591   3593     1  0.0000000  0.6508444  3
   3592   3589   3591   3594     1  0.0000000  0.6508444  3
   3593   3591   3595   3596     1  0.0000000  3.3472000  1
   3593   3591   3595   3596     1  0.0000000  0.0000000  2
   3593   3591   3595   3596     1  180.0000771  0.3347200  3
   3593   3591   3595   3627     1  180.0000771  0.0000000  2
   3594   3591   3595   3596     1  0.0000000  3.3472000  1
   3594   3591   3595   3596     1  0.0000000  0.0000000  2
   3594   3591   3595   3596     1  180.0000771  0.3347200  3
   3594   3591   3595   3627     1  180.0000771  0.0000000  2
   3595   3627   3608   3610     1  0.0000000  1.2552000  3
   3596   3595   3627   3617     1  180.0000771  6.0668000  2
   3596   3595   3627   3617     1  180.0000771  1.4644000  4
   3597   3588   3599   3602     1  0.0000000  0.6508444  3
   3597   3588   3599   3600     1  0.0000000  0.6508444  3
   3597   3588   3599   3601     1  0.0000000  0.6508444  3
   3598   3588   3599   3602     1  0.0000000  0.6508444  3
   3598   3588   3599   3600     1  0.0000000  0.6508444  3
   3598   3588   3599   3601     1  0.0000000  0.6508444  3
   3599   3602   3651   3641     1  180.0000771  6.0668000  2
   3599   3602   3651   3641     1  180.0000771  1.4644000  4
   3600   3599   3602   3603     1  0.0000000  3.3472000  1
   3600   3599   3602   3603     1  0.0000000  0.0000000  2
   3600   3599   3602   3603     1  180.0000771  0.3347200  3
   3600   3599   3602   3651     1  180.0000771  0.0000000  2
   3601   3599   3602   3603     1  0.0000000  3.3472000  1
   3601   3599   3602   3603     1  0.0000000  0.0000000  2
   3601   3599   3602   3603     1  180.0000771  0.3347200  3
   3601   3599   3602   3651     1  180.0000771  0.0000000  2
   3602   3651   3632   3634     1  0.0000000  1.2552000  3
   3603   3602   3651   3641     1  180.0000771  6.0668000  2
   3603   3602   3651   3641     1  180.0000771  1.4644000  4
   3604   3605   3607   3611     1  0.0000000  0.6508444  3
   3604   3605   3625   3626     1  0.0000000  1.0460000  1
   3604   3605   3625   3626     1  0.0000000  0.6694400  3
   3604   3615   3620   3621     1  0.0000000  1.0460000  1
   3604   3615   3620   3621     1  0.0000000  0.6694400  3
   3604   3622   3609   3612     1  0.0000000  1.6038667  3
   3605   3604   3615   3618     1  0.0000000  0.6508444  3
   3605   3604   3615   3619     1  0.0000000  0.6508444  3
   3605   3607   3608   3610     1  0.0000000  0.6508444  3
   3605   3607   3614   3616     1  0.0000000  1.0460000  1
   3605   3607   3614   3616     1  0.0000000  0.6694400  3
   3606   3604   3605   3607     1  0.0000000  0.6508444  3
   3606   3604   3605   3625     1  0.0000000  1.0460000  1
   3606   3604   3605   3625     1  0.0000000  0.0000000  3
   3606   3604   3605   3624     1  0.0000000  0.6508444  3
   3606   3604   3615   3620     1  0.0000000  1.0460000  1
   3606   3604   3615   3620     1  0.0000000  0.0000000  3
   3606   3604   3615   3618     1  0.0000000  0.6508444  3
   3606   3604   3615   3619     1  0.0000000  0.6508444  3
   3606   3604   3622   3609     1  0.0000000  1.6038667  3
   3607   3605   3625   3626     1  0.0000000  1.0460000  1
   3607   3605   3625   3626     1  0.0000000  0.6694400  3
   3607   3608   3609   3612     1  0.0000000  0.6508444  3
   3607   3608   3627   3617     1  0.0000000  1.2552000  3
   3608   3607   3605   3624     1  0.0000000  0.6508444  3
   3608   3607   3614   3616     1  0.0000000  1.0460000  1
   3608   3607   3614   3616     1  0.0000000  0.6694400  3
   3608   3609   3613   3623     1  0.0000000  1.0460000  1
   3608   3609   3613   3623     1  0.0000000  0.6694400  3
   3609   3608   3607   3611     1  0.0000000  0.6508444  3
   3609   3608   3627   3617     1  0.0000000  1.2552000  3
   3610   3608   3607   3614     1  0.0000000  1.0460000  1
   3610   3608   3607   3614     1  0.0000000  0.0000000  3
   3610   3608   3607   3611     1  0.0000000  0.6508444  3
   3610   3608   3609   3613     1  0.0000000  1.0460000  1
   3610   3608   3609   3613     1  0.0000000  0.0000000  3
   3610   3608   3609   3622     1  0.0000000  1.0460000  1
   3610   3608   3609   3622     1  0.0000000  0.0000000  3
   3610   3608   3609   3612     1  0.0000000  0.6508444  3
   3610   3608   3627   3617     1  0.0000000  1.2552000  3
   3611   3607   3605   3625     1  0.0000000  1.0460000  1
   3611   3607   3605   3625     1  0.0000000  0.0000000  3
   3611   3607   3605   3624     1  0.0000000  0.6508444  3
   3611   3607   3608   3627     1  0.0000000  0.6508444  3
   3611   3607   3614   3616     1  0.0000000  0.6973333  3
   3612   3609   3608   3627     1  0.0000000  0.6508444  3
   3612   3609   3613   3623     1  0.0000000  0.6973333  3
   3614   3607   3605   3624     1  0.0000000  1.0460000  1
   3614   3607   3605   3624     1  0.0000000  0.0000000  3
   3615   3604   3605   3624     1  0.0000000  0.6508444  3
   3618   3615   3604   3622     1  0.0000000  1.0460000  1
   3618   3615   3604   3622     1  0.0000000  0.0000000  3
   3618   3615   3620   3621     1  0.0000000  0.6973333  3
   3619   3615   3604   3622     1  0.0000000  1.0460000  1
   3619   3615   3604   3622     1  0.0000000  0.0000000  3
   3619   3615   3620   3621     1  0.0000000  0.6973333  3
   3622   3604   3605   3624     1  0.0000000  1.0460000  1
   3622   3604   3605   3624     1  0.0000000  0.0000000  3
   3622   3609   3613   3623     1  0.0000000  0.6973333  3
   3624   3605   3625   3626     1  0.0000000  0.6973333  3
   3628   3629   3631   3635     1  0.0000000  0.6508444  3
   3628   3629   3649   3650     1  0.0000000  1.0460000  1
   3628   3629   3649   3650     1  0.0000000  0.6694400  3
   3628   3639   3644   3645     1  0.0000000  1.0460000  1
   3628   3639   3644   3645     1  0.0000000  0.6694400  3
   3628   3646   3633   3636     1  0.0000000  1.6038667  3
   3629   3628   3639   3642     1  0.0000000  0.6508444  3
   3629   3628   3639   3643     1  0.0000000  0.6508444  3
   3629   3631   3632   3634     1  0.0000000  0.6508444  3
   3629   3631   3638   3640     1  0.0000000  1.0460000  1
   3629   3631   3638   3640     1  0.0000000  0.6694400  3
   3630   3628   3629   3631     1  0.0000000  0.6508444  3
   3630   3628   3629   3649     1  0.0000000  1.0460000  1
   3630   3628   3629   3649     1  0.0000000  0.0000000  3
   3630   3628   3629   3648     1  0.0000000  0.6508444  3
   3630   3628   3639   3644     1  0.0000000  1.0460000  1
   3630   3628   3639   3644     1  0.0000000  0.0000000  3
   3630   3628   3639   3642     1  0.0000000  0.6508444  3
   3630   3628   3639   3643     1  0.0000000  0.6508444  3
   3630   3628   3646   3633     1  0.0000000  1.6038667  3
   3631   3629   3649   3650     1  0.0000000  1.0460000  1
   3631   3629   3649   3650     1  0.0000000  0.6694400  3
   3631   3632   3633   3636     1  0.0000000  0.6508444  3
   3631   3632   3651   3641     1  0.0000000  1.2552000  3
   3632   3631   3629   3648     1  0.0000000  0.6508444  3
   3632   3631   3638   3640     1  0.0000000  1.0460000  1
   3632   3631   3638   3640     1  0.0000000  0.6694400  3
   3632   3633   3637   3647     1  0.0000000  1.0460000  1
   3632   3633   3637   3647     1  0.0000000  0.6694400  3
   3633   3632   3631   3635     1  0.0000000  0.6508444  3
   3633   3632   3651   3641     1  0.0000000  1.2552000  3
   3634   3632   3631   3638     1  0.0000000  1.0460000  1
   3634   3632   3631   3638     1  0.0000000  0.0000000  3
   3634   3632   3631   3635     1  0.0000000  0.6508444  3
   3634   3632   3633   3637     1  0.0000000  1.0460000  1
   3634   3632   3633   3637     1  0.0000000  0.0000000  3
   3634   3632   3633   3646     1  0.0000000  1.0460000  1
   3634   3632   3633   3646     1  0.0000000  0.0000000  3
   3634   3632   3633   3636     1  0.0000000  0.6508444  3
   3634   3632   3651   3641     1  0.0000000  1.2552000  3
   3635   3631   3629   3649     1  0.0000000  1.0460000  1
   3635   3631   3629   3649     1  0.0000000  0.0000000  3
   3635   3631   3629   3648     1  0.0000000  0.6508444  3
   3635   3631   3632   3651     1  0.0000000  0.6508444  3
   3635   3631   3638   3640     1  0.0000000  0.6973333  3
   3636   3633   3632   3651     1  0.0000000  0.6508444  3
   3636   3633   3637   3647     1  0.0000000  0.6973333  3
   3638   3631   3629   3648     1  0.0000000  1.0460000  1
   3638   3631   3629   3648     1  0.0000000  0.0000000  3
   3639   3628   3629   3648     1  0.0000000  0.6508444  3
   3642   3639   3628   3646     1  0.0000000  1.0460000  1
   3642   3639   3628   3646     1  0.0000000  0.0000000  3
   3642   3639   3644   3645     1  0.0000000  0.6973333  3
   3643   3639   3628   3646     1  0.0000000  1.0460000  1
   3643   3639   3628   3646     1  0.0000000  0.0000000  3
   3643   3639   3644   3645     1  0.0000000  0.6973333  3
   3646   3628   3629   3648     1  0.0000000  1.0460000  1
   3646   3628   3629   3648     1  0.0000000  0.0000000  3
   3646   3633   3637   3647     1  0.0000000  0.6973333  3
   3648   3629   3649   3650     1  0.0000000  0.6973333  3
   3652   3654   3656   3658     1  0.0000000  0.6508444  3
   3652   3654   3656   3659     1  0.0000000  0.6508444  3
   3653   3652   3654   3656     1  0.0000000  0.0000000  2
   3653   3652   3654   3655     1  0.0000000  0.0000000  2
   3653   3652   3654   3657     1  0.0000000  0.0000000  2
   3655   3654   3656   3660     1  0.0000000  0.6508444  3
   3655   3654   3656   3658     1  0.0000000  0.6508444  3
   3655   3654   3656   3659     1  0.0000000  0.6508444  3
   3656   3660   3661   3670     1  0.0000000  1.2552000  3
   3656   3660   3661   3671     1  0.0000000  1.2552000  3
   3656   3660   3662   3663     1  0.0000000  1.2552000  3
   3656   3660   3662   3665     1  0.0000000  1.2552000  3
   3657   3654   3656   3660     1  0.0000000  0.6508444  3
   3657   3654   3656   3658     1  0.0000000  0.6508444  3
   3657   3654   3656   3659     1  0.0000000  0.6508444  3
   3658   3656   3660   3661     1  0.0000000  1.2552000  3
   3658   3656   3660   3662     1  0.0000000  1.2552000  3
   3659   3656   3660   3661     1  0.0000000  1.2552000  3
   3659   3656   3660   3662     1  0.0000000  1.2552000  3
   3660   3661   3672   3673     1  0.0000000  0.6508444  3
   3660   3661   3672   3674     1  0.0000000  0.6508444  3
   3660   3662   3664   3666     1  0.0000000  0.6508444  3
   3660   3662   3664   3667     1  0.0000000  0.6508444  3
   3661   3660   3662   3663     1  0.0000000  1.2552000  3
   3661   3660   3662   3665     1  0.0000000  1.2552000  3
   3662   3660   3661   3670     1  0.0000000  1.2552000  3
   3662   3660   3661   3671     1  0.0000000  1.2552000  3
   3663   3662   3664   3668     1  0.0000000  0.6508444  3
   3663   3662   3664   3666     1  0.0000000  0.6508444  3
   3663   3662   3664   3667     1  0.0000000  0.6508444  3
   3664   3668   3700   3690     1  180.0000771  6.0668000  2
   3664   3668   3700   3690     1  180.0000771  1.4644000  4
   3665   3662   3664   3668     1  0.0000000  0.6508444  3
   3665   3662   3664   3666     1  0.0000000  0.6508444  3
   3665   3662   3664   3667     1  0.0000000  0.6508444  3
   3666   3664   3668   3669     1  0.0000000  3.3472000  1
   3666   3664   3668   3669     1  0.0000000  0.0000000  2
   3666   3664   3668   3669     1  180.0000771  0.3347200  3
   3666   3664   3668   3700     1  180.0000771  0.0000000  2
   3667   3664   3668   3669     1  0.0000000  3.3472000  1
   3667   3664   3668   3669     1  0.0000000  0.0000000  2
   3667   3664   3668   3669     1  180.0000771  0.3347200  3
   3667   3664   3668   3700     1  180.0000771  0.0000000  2
   3668   3700   3681   3683     1  0.0000000  1.2552000  3
   3669   3668   3700   3690     1  180.0000771  6.0668000  2
   3669   3668   3700   3690     1  180.0000771  1.4644000  4
   3670   3661   3672   3675     1  0.0000000  0.6508444  3
   3670   3661   3672   3673     1  0.0000000  0.6508444  3
   3670   3661   3672   3674     1  0.0000000  0.6508444  3
   3671   3661   3672   3675     1  0.0000000  0.6508444  3
   3671   3661   3672   3673     1  0.0000000  0.6508444  3
   3671   3661   3672   3674     1  0.0000000  0.6508444  3
   3672   3675   3724   3714     1  180.0000771  6.0668000  2
   3672   3675   3724   3714     1  180.0000771  1.4644000  4
   3673   3672   3675   3676     1  0.0000000  3.3472000  1
   3673   3672   3675   3676     1  0.0000000  0.0000000  2
   3673   3672   3675   3676     1  180.0000771  0.3347200  3
   3673   3672   3675   3724     1  180.0000771  0.0000000  2
   3674   3672   3675   3676     1  0.0000000  3.3472000  1
   3674   3672   3675   3676     1  0.0000000  0.0000000  2
   3674   3672   3675   3676     1  180.0000771  0.3347200  3
   3674   3672   3675   3724     1  180.0000771  0.0000000  2
   3675   3724   3705   3707     1  0.0000000  1.2552000  3
   3676   3675   3724   3714     1  180.0000771  6.0668000  2
   3676   3675   3724   3714     1  180.0000771  1.4644000  4
   3677   3678   3680   3684     1  0.0000000  0.6508444  3
   3677   3678   3698   3699     1  0.0000000  1.0460000  1
   3677   3678   3698   3699     1  0.0000000  0.6694400  3
   3677   3688   3693   3694     1  0.0000000  1.0460000  1
   3677   3688   3693   3694     1  0.0000000  0.6694400  3
   3677   3695   3682   3685     1  0.0000000  1.6038667  3
   3678   3680   3681   3683     1  0.0000000  0.6508444  3
   3678   3680   3687   3689     1  0.0000000  1.0460000  1
   3678   3680   3687   3689     1  0.0000000  0.6694400  3
   3678   3677   3688   3691     1  0.0000000  0.6508444  3
   3678   3677   3688   3692     1  0.0000000  0.6508444  3
   3679   3677   3678   3680     1  0.0000000  0.6508444  3
   3679   3677   3678   3698     1  0.0000000  1.0460000  1
   3679   3677   3678   3698     1  0.0000000  0.0000000  3
   3679   3677   3678   3697     1  0.0000000  0.6508444  3
   3679   3677   3688   3693     1  0.0000000  1.0460000  1
   3679   3677   3688   3693     1  0.0000000  0.0000000  3
   3679   3677   3688   3691     1  0.0000000  0.6508444  3
   3679   3677   3688   3692     1  0.0000000  0.6508444  3
   3679   3677   3695   3682     1  0.0000000  1.6038667  3
   3680   3681   3682   3685     1  0.0000000  0.6508444  3
   3680   3681   3700   3690     1  0.0000000  1.2552000  3
   3680   3678   3698   3699     1  0.0000000  1.0460000  1
   3680   3678   3698   3699     1  0.0000000  0.6694400  3
   3681   3682   3686   3696     1  0.0000000  1.0460000  1
   3681   3682   3686   3696     1  0.0000000  0.6694400  3
   3681   3680   3687   3689     1  0.0000000  1.0460000  1
   3681   3680   3687   3689     1  0.0000000  0.6694400  3
   3681   3680   3678   3697     1  0.0000000  0.6508444  3
   3682   3681   3700   3690     1  0.0000000  1.2552000  3
   3682   3681   3680   3684     1  0.0000000  0.6508444  3
   3683   3681   3682   3686     1  0.0000000  1.0460000  1
   3683   3681   3682   3686     1  0.0000000  0.0000000  3
   3683   3681   3682   3695     1  0.0000000  1.0460000  1
   3683   3681   3682   3695     1  0.0000000  0.0000000  3
   3683   3681   3682   3685     1  0.0000000  0.6508444  3
   3683   3681   3700   3690     1  0.0000000  1.2552000  3
   3683   3681   3680   3687     1  0.0000000  1.0460000  1
   3683   3681   3680   3687     1  0.0000000  0.0000000  3
   3683   3681   3680   3684     1  0.0000000  0.6508444  3
   3684   3680   3681   3700     1  0.0000000  0.6508444  3
   3684   3680   3687   3689     1  0.0000000  0.6973333  3
   3684   3680   3678   3698     1  0.0000000  1.0460000  1
   3684   3680   3678   3698     1  0.0000000  0.0000000  3
   3684   3680   3678   3697     1  0.0000000  0.6508444  3
   3685   3682   3686   3696     1  0.0000000  0.6973333  3
   3685   3682   3681   3700     1  0.0000000  0.6508444  3
   3687   3680   3678   3697     1  0.0000000  1.0460000  1
   3687   3680   3678   3697     1  0.0000000  0.0000000  3
   3688   3677   3678   3697     1  0.0000000  0.6508444  3
   3691   3688   3693   3694     1  0.0000000  0.6973333  3
   3691   3688   3677   3695     1  0.0000000  1.0460000  1
   3691   3688   3677   3695     1  0.0000000  0.0000000  3
   3692   3688   3693   3694     1  0.0000000  0.6973333  3
   3692   3688   3677   3695     1  0.0000000  1.0460000  1
   3692   3688   3677   3695     1  0.0000000  0.0000000  3
   3695   3682   3686   3696     1  0.0000000  0.6973333  3
   3695   3677   3678   3697     1  0.0000000  1.0460000  1
   3695   3677   3678   3697     1  0.0000000  0.0000000  3
   3697   3678   3698   3699     1  0.0000000  0.6973333  3
   3701   3702   3704   3708     1  0.0000000  0.6508444  3
   3701   3702   3722   3723     1  0.0000000  1.0460000  1
   3701   3702   3722   3723     1  0.0000000  0.6694400  3
   3701   3712   3717   3718     1  0.0000000  1.0460000  1
   3701   3712   3717   3718     1  0.0000000  0.6694400  3
   3701   3719   3706   3709     1  0.0000000  1.6038667  3
   3702   3704   3705   3707     1  0.0000000  0.6508444  3
   3702   3704   3711   3713     1  0.0000000  1.0460000  1
   3702   3704   3711   3713     1  0.0000000  0.6694400  3
   3702   3701   3712   3715     1  0.0000000  0.6508444  3
   3702   3701   3712   3716     1  0.0000000  0.6508444  3
   3703   3701   3702   3704     1  0.0000000  0.6508444  3
   3703   3701   3702   3722     1  0.0000000  1.0460000  1
   3703   3701   3702   3722     1  0.0000000  0.0000000  3
   3703   3701   3702   3721     1  0.0000000  0.6508444  3
   3703   3701   3712   3717     1  0.0000000  1.0460000  1
   3703   3701   3712   3717     1  0.0000000  0.0000000  3
   3703   3701   3712   3715     1  0.0000000  0.6508444  3
   3703   3701   3712   3716     1  0.0000000  0.6508444  3
   3703   3701   3719   3706     1  0.0000000  1.6038667  3
   3704   3705   3706   3709     1  0.0000000  0.6508444  3
   3704   3705   3724   3714     1  0.0000000  1.2552000  3
   3704   3702   3722   3723     1  0.0000000  1.0460000  1
   3704   3702   3722   3723     1  0.0000000  0.6694400  3
   3705   3706   3710   3720     1  0.0000000  1.0460000  1
   3705   3706   3710   3720     1  0.0000000  0.6694400  3
   3705   3704   3711   3713     1  0.0000000  1.0460000  1
   3705   3704   3711   3713     1  0.0000000  0.6694400  3
   3705   3704   3702   3721     1  0.0000000  0.6508444  3
   3706   3705   3724   3714     1  0.0000000  1.2552000  3
   3706   3705   3704   3708     1  0.0000000  0.6508444  3
   3707   3705   3706   3710     1  0.0000000  1.0460000  1
   3707   3705   3706   3710     1  0.0000000  0.0000000  3
   3707   3705   3706   3719     1  0.0000000  1.0460000  1
   3707   3705   3706   3719     1  0.0000000  0.0000000  3
   3707   3705   3706   3709     1  0.0000000  0.6508444  3
   3707   3705   3724   3714     1  0.0000000  1.2552000  3
   3707   3705   3704   3711     1  0.0000000  1.0460000  1
   3707   3705   3704   3711     1  0.0000000  0.0000000  3
   3707   3705   3704   3708     1  0.0000000  0.6508444  3
   3708   3704   3705   3724     1  0.0000000  0.6508444  3
   3708   3704   3711   3713     1  0.0000000  0.6973333  3
   3708   3704   3702   3722     1  0.0000000  1.0460000  1
   3708   3704   3702   3722     1  0.0000000  0.0000000  3
   3708   3704   3702   3721     1  0.0000000  0.6508444  3
   3709   3706   3710   3720     1  0.0000000  0.6973333  3
   3709   3706   3705   3724     1  0.0000000  0.6508444  3
   3711   3704   3702   3721     1  0.0000000  1.0460000  1
   3711   3704   3702   3721     1  0.0000000  0.0000000  3
   3712   3701   3702   3721     1  0.0000000  0.6508444  3
   3715   3712   3717   3718     1  0.0000000  0.6973333  3
   3715   3712   3701   3719     1  0.0000000  1.0460000  1
   3715   3712   3701   3719     1  0.0000000  0.0000000  3
   3716   3712   3717   3718     1  0.0000000  0.6973333  3
   3716   3712   3701   3719     1  0.0000000  1.0460000  1
   3716   3712   3701   3719     1  0.0000000  0.0000000  3
   3719   3706   3710   3720     1  0.0000000  0.6973333  3
   3719   3701   3702   3721     1  0.0000000  1.0460000  1
   3719   3701   3702   3721     1  0.0000000  0.0000000  3
   3721   3702   3722   3723     1  0.0000000  0.6973333  3
   3725   3727   3729   3731     1  0.0000000  0.6508444  3
   3725   3727   3729   3732     1  0.0000000  0.6508444  3
   3726   3725   3727   3729     1  0.0000000  0.0000000  2
   3726   3725   3727   3728     1  0.0000000  0.0000000  2
   3726   3725   3727   3730     1  0.0000000  0.0000000  2
   3728   3727   3729   3733     1  0.0000000  0.6508444  3
   3728   3727   3729   3731     1  0.0000000  0.6508444  3
   3728   3727   3729   3732     1  0.0000000  0.6508444  3
   3729   3733   3734   3743     1  0.0000000  1.2552000  3
   3729   3733   3734   3744     1  0.0000000  1.2552000  3
   3729   3733   3735   3736     1  0.0000000  1.2552000  3
   3729   3733   3735   3738     1  0.0000000  1.2552000  3
   3730   3727   3729   3733     1  0.0000000  0.6508444  3
   3730   3727   3729   3731     1  0.0000000  0.6508444  3
   3730   3727   3729   3732     1  0.0000000  0.6508444  3
   3731   3729   3733   3734     1  0.0000000  1.2552000  3
   3731   3729   3733   3735     1  0.0000000  1.2552000  3
   3732   3729   3733   3734     1  0.0000000  1.2552000  3
   3732   3729   3733   3735     1  0.0000000  1.2552000  3
   3733   3734   3745   3746     1  0.0000000  0.6508444  3
   3733   3734   3745   3747     1  0.0000000  0.6508444  3
   3733   3735   3737   3739     1  0.0000000  0.6508444  3
   3733   3735   3737   3740     1  0.0000000  0.6508444  3
   3734   3733   3735   3736     1  0.0000000  1.2552000  3
   3734   3733   3735   3738     1  0.0000000  1.2552000  3
   3735   3733   3734   3743     1  0.0000000  1.2552000  3
   3735   3733   3734   3744     1  0.0000000  1.2552000  3
   3736   3735   3737   3741     1  0.0000000  0.6508444  3
   3736   3735   3737   3739     1  0.0000000  0.6508444  3
   3736   3735   3737   3740     1  0.0000000  0.6508444  3
   3737   3741   3773   3763     1  180.0000771  6.0668000  2
   3737   3741   3773   3763     1  180.0000771  1.4644000  4
   3738   3735   3737   3741     1  0.0000000  0.6508444  3
   3738   3735   3737   3739     1  0.0000000  0.6508444  3
   3738   3735   3737   3740     1  0.0000000  0.6508444  3
   3739   3737   3741   3742     1  0.0000000  3.3472000  1
   3739   3737   3741   3742     1  0.0000000  0.0000000  2
   3739   3737   3741   3742     1  180.0000771  0.3347200  3
   3739   3737   3741   3773     1  180.0000771  0.0000000  2
   3740   3737   3741   3742     1  0.0000000  3.3472000  1
   3740   3737   3741   3742     1  0.0000000  0.0000000  2
   3740   3737   3741   3742     1  180.0000771  0.3347200  3
   3740   3737   3741   3773     1  180.0000771  0.0000000  2
   3741   3773   3754   3756     1  0.0000000  1.2552000  3
   3742   3741   3773   3763     1  180.0000771  6.0668000  2
   3742   3741   3773   3763     1  180.0000771  1.4644000  4
   3743   3734   3745   3748     1  0.0000000  0.6508444  3
   3743   3734   3745   3746     1  0.0000000  0.6508444  3
   3743   3734   3745   3747     1  0.0000000  0.6508444  3
   3744   3734   3745   3748     1  0.0000000  0.6508444  3
   3744   3734   3745   3746     1  0.0000000  0.6508444  3
   3744   3734   3745   3747     1  0.0000000  0.6508444  3
   3745   3748   3797   3787     1  180.0000771  6.0668000  2
   3745   3748   3797   3787     1  180.0000771  1.4644000  4
   3746   3745   3748   3749     1  0.0000000  3.3472000  1
   3746   3745   3748   3749     1  0.0000000  0.0000000  2
   3746   3745   3748   3749     1  180.0000771  0.3347200  3
   3746   3745   3748   3797     1  180.0000771  0.0000000  2
   3747   3745   3748   3749     1  0.0000000  3.3472000  1
   3747   3745   3748   3749     1  0.0000000  0.0000000  2
   3747   3745   3748   3749     1  180.0000771  0.3347200  3
   3747   3745   3748   3797     1  180.0000771  0.0000000  2
   3748   3797   3778   3780     1  0.0000000  1.2552000  3
   3749   3748   3797   3787     1  180.0000771  6.0668000  2
   3749   3748   3797   3787     1  180.0000771  1.4644000  4
   3750   3751   3753   3757     1  0.0000000  0.6508444  3
   3750   3751   3771   3772     1  0.0000000  1.0460000  1
   3750   3751   3771   3772     1  0.0000000  0.6694400  3
   3750   3761   3766   3767     1  0.0000000  1.0460000  1
   3750   3761   3766   3767     1  0.0000000  0.6694400  3
   3750   3768   3755   3758     1  0.0000000  1.6038667  3
   3751   3750   3761   3764     1  0.0000000  0.6508444  3
   3751   3750   3761   3765     1  0.0000000  0.6508444  3
   3751   3753   3754   3756     1  0.0000000  0.6508444  3
   3751   3753   3760   3762     1  0.0000000  1.0460000  1
   3751   3753   3760   3762     1  0.0000000  0.6694400  3
   3752   3750   3751   3753     1  0.0000000  0.6508444  3
   3752   3750   3751   3771     1  0.0000000  1.0460000  1
   3752   3750   3751   3771     1  0.0000000  0.0000000  3
   3752   3750   3751   3770     1  0.0000000  0.6508444  3
   3752   3750   3761   3766     1  0.0000000  1.0460000  1
   3752   3750   3761   3766     1  0.0000000  0.0000000  3
   3752   3750   3761   3764     1  0.0000000  0.6508444  3
   3752   3750   3761   3765     1  0.0000000  0.6508444  3
   3752   3750   3768   3755     1  0.0000000  1.6038667  3
   3753   3751   3771   3772     1  0.0000000  1.0460000  1
   3753   3751   3771   3772     1  0.0000000  0.6694400  3
   3753   3754   3755   3758     1  0.0000000  0.6508444  3
   3753   3754   3773   3763     1  0.0000000  1.2552000  3
   3754   3753   3751   3770     1  0.0000000  0.6508444  3
   3754   3753   3760   3762     1  0.0000000  1.0460000  1
   3754   3753   3760   3762     1  0.0000000  0.6694400  3
   3754   3755   3759   3769     1  0.0000000  1.0460000  1
   3754   3755   3759   3769     1  0.0000000  0.6694400  3
   3755   3754   3753   3757     1  0.0000000  0.6508444  3
   3755   3754   3773   3763     1  0.0000000  1.2552000  3
   3756   3754   3753   3760     1  0.0000000  1.0460000  1
   3756   3754   3753   3760     1  0.0000000  0.0000000  3
   3756   3754   3753   3757     1  0.0000000  0.6508444  3
   3756   3754   3755   3759     1  0.0000000  1.0460000  1
   3756   3754   3755   3759     1  0.0000000  0.0000000  3
   3756   3754   3755   3768     1  0.0000000  1.0460000  1
   3756   3754   3755   3768     1  0.0000000  0.0000000  3
   3756   3754   3755   3758     1  0.0000000  0.6508444  3
   3756   3754   3773   3763     1  0.0000000  1.2552000  3
   3757   3753   3751   3771     1  0.0000000  1.0460000  1
   3757   3753   3751   3771     1  0.0000000  0.0000000  3
   3757   3753   3751   3770     1  0.0000000  0.6508444  3
   3757   3753   3754   3773     1  0.0000000  0.6508444  3
   3757   3753   3760   3762     1  0.0000000  0.6973333  3
   3758   3755   3754   3773     1  0.0000000  0.6508444  3
   3758   3755   3759   3769     1  0.0000000  0.6973333  3
   3760   3753   3751   3770     1  0.0000000  1.0460000  1
   3760   3753   3751   3770     1  0.0000000  0.0000000  3
   3761   3750   3751   3770     1  0.0000000  0.6508444  3
   3764   3761   3750   3768     1  0.0000000  1.0460000  1
   3764   3761   3750   3768     1  0.0000000  0.0000000  3
   3764   3761   3766   3767     1  0.0000000  0.6973333  3
   3765   3761   3750   3768     1  0.0000000  1.0460000  1
   3765   3761   3750   3768     1  0.0000000  0.0000000  3
   3765   3761   3766   3767     1  0.0000000  0.6973333  3
   3768   3750   3751   3770     1  0.0000000  1.0460000  1
   3768   3750   3751   3770     1  0.0000000  0.0000000  3
   3768   3755   3759   3769     1  0.0000000  0.6973333  3
   3770   3751   3771   3772     1  0.0000000  0.6973333  3
   3774   3775   3777   3781     1  0.0000000  0.6508444  3
   3774   3775   3795   3796     1  0.0000000  1.0460000  1
   3774   3775   3795   3796     1  0.0000000  0.6694400  3
   3774   3785   3790   3791     1  0.0000000  1.0460000  1
   3774   3785   3790   3791     1  0.0000000  0.6694400  3
   3774   3792   3779   3782     1  0.0000000  1.6038667  3
   3775   3774   3785   3788     1  0.0000000  0.6508444  3
   3775   3774   3785   3789     1  0.0000000  0.6508444  3
   3775   3777   3778   3780     1  0.0000000  0.6508444  3
   3775   3777   3784   3786     1  0.0000000  1.0460000  1
   3775   3777   3784   3786     1  0.0000000  0.6694400  3
   3776   3774   3775   3777     1  0.0000000  0.6508444  3
   3776   3774   3775   3795     1  0.0000000  1.0460000  1
   3776   3774   3775   3795     1  0.0000000  0.0000000  3
   3776   3774   3775   3794     1  0.0000000  0.6508444  3
   3776   3774   3785   3790     1  0.0000000  1.0460000  1
   3776   3774   3785   3790     1  0.0000000  0.0000000  3
   3776   3774   3785   3788     1  0.0000000  0.6508444  3
   3776   3774   3785   3789     1  0.0000000  0.6508444  3
   3776   3774   3792   3779     1  0.0000000  1.6038667  3
   3777   3775   3795   3796     1  0.0000000  1.0460000  1
   3777   3775   3795   3796     1  0.0000000  0.6694400  3
   3777   3778   3779   3782     1  0.0000000  0.6508444  3
   3777   3778   3797   3787     1  0.0000000  1.2552000  3
   3778   3777   3775   3794     1  0.0000000  0.6508444  3
   3778   3777   3784   3786     1  0.0000000  1.0460000  1
   3778   3777   3784   3786     1  0.0000000  0.6694400  3
   3778   3779   3783   3793     1  0.0000000  1.0460000  1
   3778   3779   3783   3793     1  0.0000000  0.6694400  3
   3779   3778   3777   3781     1  0.0000000  0.6508444  3
   3779   3778   3797   3787     1  0.0000000  1.2552000  3
   3780   3778   3777   3784     1  0.0000000  1.0460000  1
   3780   3778   3777   3784     1  0.0000000  0.0000000  3
   3780   3778   3777   3781     1  0.0000000  0.6508444  3
   3780   3778   3779   3783     1  0.0000000  1.0460000  1
   3780   3778   3779   3783     1  0.0000000  0.0000000  3
   3780   3778   3779   3792     1  0.0000000  1.0460000  1
   3780   3778   3779   3792     1  0.0000000  0.0000000  3
   3780   3778   3779   3782     1  0.0000000  0.6508444  3
   3780   3778   3797   3787     1  0.0000000  1.2552000  3
   3781   3777   3775   3795     1  0.0000000  1.0460000  1
   3781   3777   3775   3795     1  0.0000000  0.0000000  3
   3781   3777   3775   3794     1  0.0000000  0.6508444  3
   3781   3777   3778   3797     1  0.0000000  0.6508444  3
   3781   3777   3784   3786     1  0.0000000  0.6973333  3
   3782   3779   3778   3797     1  0.0000000  0.6508444  3
   3782   3779   3783   3793     1  0.0000000  0.6973333  3
   3784   3777   3775   3794     1  0.0000000  1.0460000  1
   3784   3777   3775   3794     1  0.0000000  0.0000000  3
   3785   3774   3775   3794     1  0.0000000  0.6508444  3
   3788   3785   3774   3792     1  0.0000000  1.0460000  1
   3788   3785   3774   3792     1  0.0000000  0.0000000  3
   3788   3785   3790   3791     1  0.0000000  0.6973333  3
   3789   3785   3774   3792     1  0.0000000  1.0460000  1
   3789   3785   3774   3792     1  0.0000000  0.0000000  3
   3789   3785   3790   3791     1  0.0000000  0.6973333  3
   3792   3774   3775   3794     1  0.0000000  1.0460000  1
   3792   3774   3775   3794     1  0.0000000  0.0000000  3
   3792   3779   3783   3793     1  0.0000000  0.6973333  3
   3794   3775   3795   3796     1  0.0000000  0.6973333  3
   3798   3800   3802   3804     1  0.0000000  0.6508444  3
   3798   3800   3802   3805     1  0.0000000  0.6508444  3
   3799   3798   3800   3802     1  0.0000000  0.0000000  2
   3799   3798   3800   3801     1  0.0000000  0.0000000  2
   3799   3798   3800   3803     1  0.0000000  0.0000000  2
   3801   3800   3802   3806     1  0.0000000  0.6508444  3
   3801   3800   3802   3804     1  0.0000000  0.6508444  3
   3801   3800   3802   3805     1  0.0000000  0.6508444  3
   3802   3806   3807   3816     1  0.0000000  1.2552000  3
   3802   3806   3807   3817     1  0.0000000  1.2552000  3
   3802   3806   3808   3809     1  0.0000000  1.2552000  3
   3802   3806   3808   3811     1  0.0000000  1.2552000  3
   3803   3800   3802   3806     1  0.0000000  0.6508444  3
   3803   3800   3802   3804     1  0.0000000  0.6508444  3
   3803   3800   3802   3805     1  0.0000000  0.6508444  3
   3804   3802   3806   3807     1  0.0000000  1.2552000  3
   3804   3802   3806   3808     1  0.0000000  1.2552000  3
   3805   3802   3806   3807     1  0.0000000  1.2552000  3
   3805   3802   3806   3808     1  0.0000000  1.2552000  3
   3806   3807   3818   3819     1  0.0000000  0.6508444  3
   3806   3807   3818   3820     1  0.0000000  0.6508444  3
   3806   3808   3810   3812     1  0.0000000  0.6508444  3
   3806   3808   3810   3813     1  0.0000000  0.6508444  3
   3807   3806   3808   3809     1  0.0000000  1.2552000  3
   3807   3806   3808   3811     1  0.0000000  1.2552000  3
   3808   3806   3807   3816     1  0.0000000  1.2552000  3
   3808   3806   3807   3817     1  0.0000000  1.2552000  3
   3809   3808   3810   3814     1  0.0000000  0.6508444  3
   3809   3808   3810   3812     1  0.0000000  0.6508444  3
   3809   3808   3810   3813     1  0.0000000  0.6508444  3
   3810   3814   3846   3836     1  180.0000771  6.0668000  2
   3810   3814   3846   3836     1  180.0000771  1.4644000  4
   3811   3808   3810   3814     1  0.0000000  0.6508444  3
   3811   3808   3810   3812     1  0.0000000  0.6508444  3
   3811   3808   3810   3813     1  0.0000000  0.6508444  3
   3812   3810   3814   3815     1  0.0000000  3.3472000  1
   3812   3810   3814   3815     1  0.0000000  0.0000000  2
   3812   3810   3814   3815     1  180.0000771  0.3347200  3
   3812   3810   3814   3846     1  180.0000771  0.0000000  2
   3813   3810   3814   3815     1  0.0000000  3.3472000  1
   3813   3810   3814   3815     1  0.0000000  0.0000000  2
   3813   3810   3814   3815     1  180.0000771  0.3347200  3
   3813   3810   3814   3846     1  180.0000771  0.0000000  2
   3814   3846   3827   3829     1  0.0000000  1.2552000  3
   3815   3814   3846   3836     1  180.0000771  6.0668000  2
   3815   3814   3846   3836     1  180.0000771  1.4644000  4
   3816   3807   3818   3821     1  0.0000000  0.6508444  3
   3816   3807   3818   3819     1  0.0000000  0.6508444  3
   3816   3807   3818   3820     1  0.0000000  0.6508444  3
   3817   3807   3818   3821     1  0.0000000  0.6508444  3
   3817   3807   3818   3819     1  0.0000000  0.6508444  3
   3817   3807   3818   3820     1  0.0000000  0.6508444  3
   3818   3821   3870   3860     1  180.0000771  6.0668000  2
   3818   3821   3870   3860     1  180.0000771  1.4644000  4
   3819   3818   3821   3822     1  0.0000000  3.3472000  1
   3819   3818   3821   3822     1  0.0000000  0.0000000  2
   3819   3818   3821   3822     1  180.0000771  0.3347200  3
   3819   3818   3821   3870     1  180.0000771  0.0000000  2
   3820   3818   3821   3822     1  0.0000000  3.3472000  1
   3820   3818   3821   3822     1  0.0000000  0.0000000  2
   3820   3818   3821   3822     1  180.0000771  0.3347200  3
   3820   3818   3821   3870     1  180.0000771  0.0000000  2
   3821   3870   3851   3853     1  0.0000000  1.2552000  3
   3822   3821   3870   3860     1  180.0000771  6.0668000  2
   3822   3821   3870   3860     1  180.0000771  1.4644000  4
   3823   3824   3826   3830     1  0.0000000  0.6508444  3
   3823   3824   3844   3845     1  0.0000000  1.0460000  1
   3823   3824   3844   3845     1  0.0000000  0.6694400  3
   3823   3834   3839   3840     1  0.0000000  1.0460000  1
   3823   3834   3839   3840     1  0.0000000  0.6694400  3
   3823   3841   3828   3831     1  0.0000000  1.6038667  3
   3824   3826   3827   3829     1  0.0000000  0.6508444  3
   3824   3826   3833   3835     1  0.0000000  1.0460000  1
   3824   3826   3833   3835     1  0.0000000  0.6694400  3
   3824   3823   3834   3837     1  0.0000000  0.6508444  3
   3824   3823   3834   3838     1  0.0000000  0.6508444  3
   3825   3823   3824   3826     1  0.0000000  0.6508444  3
   3825   3823   3824   3844     1  0.0000000  1.0460000  1
   3825   3823   3824   3844     1  0.0000000  0.0000000  3
   3825   3823   3824   3843     1  0.0000000  0.6508444  3
   3825   3823   3834   3839     1  0.0000000  1.0460000  1
   3825   3823   3834   3839     1  0.0000000  0.0000000  3
   3825   3823   3834   3837     1  0.0000000  0.6508444  3
   3825   3823   3834   3838     1  0.0000000  0.6508444  3
   3825   3823   3841   3828     1  0.0000000  1.6038667  3
   3826   3827   3828   3831     1  0.0000000  0.6508444  3
   3826   3827   3846   3836     1  0.0000000  1.2552000  3
   3826   3824   3844   3845     1  0.0000000  1.0460000  1
   3826   3824   3844   3845     1  0.0000000  0.6694400  3
   3827   3828   3832   3842     1  0.0000000  1.0460000  1
   3827   3828   3832   3842     1  0.0000000  0.6694400  3
   3827   3826   3833   3835     1  0.0000000  1.0460000  1
   3827   3826   3833   3835     1  0.0000000  0.6694400  3
   3827   3826   3824   3843     1  0.0000000  0.6508444  3
   3828   3827   3846   3836     1  0.0000000  1.2552000  3
   3828   3827   3826   3830     1  0.0000000  0.6508444  3
   3829   3827   3828   3832     1  0.0000000  1.0460000  1
   3829   3827   3828   3832     1  0.0000000  0.0000000  3
   3829   3827   3828   3841     1  0.0000000  1.0460000  1
   3829   3827   3828   3841     1  0.0000000  0.0000000  3
   3829   3827   3828   3831     1  0.0000000  0.6508444  3
   3829   3827   3846   3836     1  0.0000000  1.2552000  3
   3829   3827   3826   3833     1  0.0000000  1.0460000  1
   3829   3827   3826   3833     1  0.0000000  0.0000000  3
   3829   3827   3826   3830     1  0.0000000  0.6508444  3
   3830   3826   3827   3846     1  0.0000000  0.6508444  3
   3830   3826   3833   3835     1  0.0000000  0.6973333  3
   3830   3826   3824   3844     1  0.0000000  1.0460000  1
   3830   3826   3824   3844     1  0.0000000  0.0000000  3
   3830   3826   3824   3843     1  0.0000000  0.6508444  3
   3831   3828   3832   3842     1  0.0000000  0.6973333  3
   3831   3828   3827   3846     1  0.0000000  0.6508444  3
   3833   3826   3824   3843     1  0.0000000  1.0460000  1
   3833   3826   3824   3843     1  0.0000000  0.0000000  3
   3834   3823   3824   3843     1  0.0000000  0.6508444  3
   3837   3834   3839   3840     1  0.0000000  0.6973333  3
   3837   3834   3823   3841     1  0.0000000  1.0460000  1
   3837   3834   3823   3841     1  0.0000000  0.0000000  3
   3838   3834   3839   3840     1  0.0000000  0.6973333  3
   3838   3834   3823   3841     1  0.0000000  1.0460000  1
   3838   3834   3823   3841     1  0.0000000  0.0000000  3
   3841   3828   3832   3842     1  0.0000000  0.6973333  3
   3841   3823   3824   3843     1  0.0000000  1.0460000  1
   3841   3823   3824   3843     1  0.0000000  0.0000000  3
   3843   3824   3844   3845     1  0.0000000  0.6973333  3
   3847   3848   3850   3854     1  0.0000000  0.6508444  3
   3847   3848   3868   3869     1  0.0000000  1.0460000  1
   3847   3848   3868   3869     1  0.0000000  0.6694400  3
   3847   3858   3863   3864     1  0.0000000  1.0460000  1
   3847   3858   3863   3864     1  0.0000000  0.6694400  3
   3847   3865   3852   3855     1  0.0000000  1.6038667  3
   3848   3850   3851   3853     1  0.0000000  0.6508444  3
   3848   3850   3857   3859     1  0.0000000  1.0460000  1
   3848   3850   3857   3859     1  0.0000000  0.6694400  3
   3848   3847   3858   3861     1  0.0000000  0.6508444  3
   3848   3847   3858   3862     1  0.0000000  0.6508444  3
   3849   3847   3848   3850     1  0.0000000  0.6508444  3
   3849   3847   3848   3868     1  0.0000000  1.0460000  1
   3849   3847   3848   3868     1  0.0000000  0.0000000  3
   3849   3847   3848   3867     1  0.0000000  0.6508444  3
   3849   3847   3858   3863     1  0.0000000  1.0460000  1
   3849   3847   3858   3863     1  0.0000000  0.0000000  3
   3849   3847   3858   3861     1  0.0000000  0.6508444  3
   3849   3847   3858   3862     1  0.0000000  0.6508444  3
   3849   3847   3865   3852     1  0.0000000  1.6038667  3
   3850   3851   3852   3855     1  0.0000000  0.6508444  3
   3850   3851   3870   3860     1  0.0000000  1.2552000  3
   3850   3848   3868   3869     1  0.0000000  1.0460000  1
   3850   3848   3868   3869     1  0.0000000  0.6694400  3
   3851   3852   3856   3866     1  0.0000000  1.0460000  1
   3851   3852   3856   3866     1  0.0000000  0.6694400  3
   3851   3850   3857   3859     1  0.0000000  1.0460000  1
   3851   3850   3857   3859     1  0.0000000  0.6694400  3
   3851   3850   3848   3867     1  0.0000000  0.6508444  3
   3852   3851   3870   3860     1  0.0000000  1.2552000  3
   3852   3851   3850   3854     1  0.0000000  0.6508444  3
   3853   3851   3852   3856     1  0.0000000  1.0460000  1
   3853   3851   3852   3856     1  0.0000000  0.0000000  3
   3853   3851   3852   3865     1  0.0000000  1.0460000  1
   3853   3851   3852   3865     1  0.0000000  0.0000000  3
   3853   3851   3852   3855     1  0.0000000  0.6508444  3
   3853   3851   3870   3860     1  0.0000000  1.2552000  3
   3853   3851   3850   3857     1  0.0000000  1.0460000  1
   3853   3851   3850   3857     1  0.0000000  0.0000000  3
   3853   3851   3850   3854     1  0.0000000  0.6508444  3
   3854   3850   3851   3870     1  0.0000000  0.6508444  3
   3854   3850   3857   3859     1  0.0000000  0.6973333  3
   3854   3850   3848   3868     1  0.0000000  1.0460000  1
   3854   3850   3848   3868     1  0.0000000  0.0000000  3
   3854   3850   3848   3867     1  0.0000000  0.6508444  3
   3855   3852   3856   3866     1  0.0000000  0.6973333  3
   3855   3852   3851   3870     1  0.0000000  0.6508444  3
   3857   3850   3848   3867     1  0.0000000  1.0460000  1
   3857   3850   3848   3867     1  0.0000000  0.0000000  3
   3858   3847   3848   3867     1  0.0000000  0.6508444  3
   3861   3858   3863   3864     1  0.0000000  0.6973333  3
   3861   3858   3847   3865     1  0.0000000  1.0460000  1
   3861   3858   3847   3865     1  0.0000000  0.0000000  3
   3862   3858   3863   3864     1  0.0000000  0.6973333  3
   3862   3858   3847   3865     1  0.0000000  1.0460000  1
   3862   3858   3847   3865     1  0.0000000  0.0000000  3
   3865   3852   3856   3866     1  0.0000000  0.6973333  3
   3865   3847   3848   3867     1  0.0000000  1.0460000  1
   3865   3847   3848   3867     1  0.0000000  0.0000000  3
   3867   3848   3868   3869     1  0.0000000  0.6973333  3
   3871   3873   3875   3877     1  0.0000000  0.6508444  3
   3871   3873   3875   3878     1  0.0000000  0.6508444  3
   3872   3871   3873   3875     1  0.0000000  0.0000000  2
   3872   3871   3873   3874     1  0.0000000  0.0000000  2
   3872   3871   3873   3876     1  0.0000000  0.0000000  2
   3874   3873   3875   3879     1  0.0000000  0.6508444  3
   3874   3873   3875   3877     1  0.0000000  0.6508444  3
   3874   3873   3875   3878     1  0.0000000  0.6508444  3
   3875   3879   3880   3889     1  0.0000000  1.2552000  3
   3875   3879   3880   3890     1  0.0000000  1.2552000  3
   3875   3879   3881   3882     1  0.0000000  1.2552000  3
   3875   3879   3881   3884     1  0.0000000  1.2552000  3
   3876   3873   3875   3879     1  0.0000000  0.6508444  3
   3876   3873   3875   3877     1  0.0000000  0.6508444  3
   3876   3873   3875   3878     1  0.0000000  0.6508444  3
   3877   3875   3879   3880     1  0.0000000  1.2552000  3
   3877   3875   3879   3881     1  0.0000000  1.2552000  3
   3878   3875   3879   3880     1  0.0000000  1.2552000  3
   3878   3875   3879   3881     1  0.0000000  1.2552000  3
   3879   3880   3891   3892     1  0.0000000  0.6508444  3
   3879   3880   3891   3893     1  0.0000000  0.6508444  3
   3879   3881   3883   3885     1  0.0000000  0.6508444  3
   3879   3881   3883   3886     1  0.0000000  0.6508444  3
   3880   3879   3881   3882     1  0.0000000  1.2552000  3
   3880   3879   3881   3884     1  0.0000000  1.2552000  3
   3881   3879   3880   3889     1  0.0000000  1.2552000  3
   3881   3879   3880   3890     1  0.0000000  1.2552000  3
   3882   3881   3883   3887     1  0.0000000  0.6508444  3
   3882   3881   3883   3885     1  0.0000000  0.6508444  3
   3882   3881   3883   3886     1  0.0000000  0.6508444  3
   3883   3887   3919   3909     1  180.0000771  6.0668000  2
   3883   3887   3919   3909     1  180.0000771  1.4644000  4
   3884   3881   3883   3887     1  0.0000000  0.6508444  3
   3884   3881   3883   3885     1  0.0000000  0.6508444  3
   3884   3881   3883   3886     1  0.0000000  0.6508444  3
   3885   3883   3887   3888     1  0.0000000  3.3472000  1
   3885   3883   3887   3888     1  0.0000000  0.0000000  2
   3885   3883   3887   3888     1  180.0000771  0.3347200  3
   3885   3883   3887   3919     1  180.0000771  0.0000000  2
   3886   3883   3887   3888     1  0.0000000  3.3472000  1
   3886   3883   3887   3888     1  0.0000000  0.0000000  2
   3886   3883   3887   3888     1  180.0000771  0.3347200  3
   3886   3883   3887   3919     1  180.0000771  0.0000000  2
   3887   3919   3900   3902     1  0.0000000  1.2552000  3
   3888   3887   3919   3909     1  180.0000771  6.0668000  2
   3888   3887   3919   3909     1  180.0000771  1.4644000  4
   3889   3880   3891   3894     1  0.0000000  0.6508444  3
   3889   3880   3891   3892     1  0.0000000  0.6508444  3
   3889   3880   3891   3893     1  0.0000000  0.6508444  3
   3890   3880   3891   3894     1  0.0000000  0.6508444  3
   3890   3880   3891   3892     1  0.0000000  0.6508444  3
   3890   3880   3891   3893     1  0.0000000  0.6508444  3
   3891   3894   3943   3933     1  180.0000771  6.0668000  2
   3891   3894   3943   3933     1  180.0000771  1.4644000  4
   3892   3891   3894   3895     1  0.0000000  3.3472000  1
   3892   3891   3894   3895     1  0.0000000  0.0000000  2
   3892   3891   3894   3895     1  180.0000771  0.3347200  3
   3892   3891   3894   3943     1  180.0000771  0.0000000  2
   3893   3891   3894   3895     1  0.0000000  3.3472000  1
   3893   3891   3894   3895     1  0.0000000  0.0000000  2
   3893   3891   3894   3895     1  180.0000771  0.3347200  3
   3893   3891   3894   3943     1  180.0000771  0.0000000  2
   3894   3943   3924   3926     1  0.0000000  1.2552000  3
   3895   3894   3943   3933     1  180.0000771  6.0668000  2
   3895   3894   3943   3933     1  180.0000771  1.4644000  4
   3896   3897   3899   3903     1  0.0000000  0.6508444  3
   3896   3897   3917   3918     1  0.0000000  1.0460000  1
   3896   3897   3917   3918     1  0.0000000  0.6694400  3
   3896   3907   3912   3913     1  0.0000000  1.0460000  1
   3896   3907   3912   3913     1  0.0000000  0.6694400  3
   3896   3914   3901   3904     1  0.0000000  1.6038667  3
   3897   3896   3907   3910     1  0.0000000  0.6508444  3
   3897   3896   3907   3911     1  0.0000000  0.6508444  3
   3897   3899   3900   3902     1  0.0000000  0.6508444  3
   3897   3899   3906   3908     1  0.0000000  1.0460000  1
   3897   3899   3906   3908     1  0.0000000  0.6694400  3
   3898   3896   3897   3899     1  0.0000000  0.6508444  3
   3898   3896   3897   3917     1  0.0000000  1.0460000  1
   3898   3896   3897   3917     1  0.0000000  0.0000000  3
   3898   3896   3897   3916     1  0.0000000  0.6508444  3
   3898   3896   3907   3912     1  0.0000000  1.0460000  1
   3898   3896   3907   3912     1  0.0000000  0.0000000  3
   3898   3896   3907   3910     1  0.0000000  0.6508444  3
   3898   3896   3907   3911     1  0.0000000  0.6508444  3
   3898   3896   3914   3901     1  0.0000000  1.6038667  3
   3899   3897   3917   3918     1  0.0000000  1.0460000  1
   3899   3897   3917   3918     1  0.0000000  0.6694400  3
   3899   3900   3901   3904     1  0.0000000  0.6508444  3
   3899   3900   3919   3909     1  0.0000000  1.2552000  3
   3900   3899   3897   3916     1  0.0000000  0.6508444  3
   3900   3899   3906   3908     1  0.0000000  1.0460000  1
   3900   3899   3906   3908     1  0.0000000  0.6694400  3
   3900   3901   3905   3915     1  0.0000000  1.0460000  1
   3900   3901   3905   3915     1  0.0000000  0.6694400  3
   3901   3900   3899   3903     1  0.0000000  0.6508444  3
   3901   3900   3919   3909     1  0.0000000  1.2552000  3
   3902   3900   3899   3906     1  0.0000000  1.0460000  1
   3902   3900   3899   3906     1  0.0000000  0.0000000  3
   3902   3900   3899   3903     1  0.0000000  0.6508444  3
   3902   3900   3901   3905     1  0.0000000  1.0460000  1
   3902   3900   3901   3905     1  0.0000000  0.0000000  3
   3902   3900   3901   3914     1  0.0000000  1.0460000  1
   3902   3900   3901   3914     1  0.0000000  0.0000000  3
   3902   3900   3901   3904     1  0.0000000  0.6508444  3
   3902   3900   3919   3909     1  0.0000000  1.2552000  3
   3903   3899   3897   3917     1  0.0000000  1.0460000  1
   3903   3899   3897   3917     1  0.0000000  0.0000000  3
   3903   3899   3897   3916     1  0.0000000  0.6508444  3
   3903   3899   3900   3919     1  0.0000000  0.6508444  3
   3903   3899   3906   3908     1  0.0000000  0.6973333  3
   3904   3901   3900   3919     1  0.0000000  0.6508444  3
   3904   3901   3905   3915     1  0.0000000  0.6973333  3
   3906   3899   3897   3916     1  0.0000000  1.0460000  1
   3906   3899   3897   3916     1  0.0000000  0.0000000  3
   3907   3896   3897   3916     1  0.0000000  0.6508444  3
   3910   3907   3896   3914     1  0.0000000  1.0460000  1
   3910   3907   3896   3914     1  0.0000000  0.0000000  3
   3910   3907   3912   3913     1  0.0000000  0.6973333  3
   3911   3907   3896   3914     1  0.0000000  1.0460000  1
   3911   3907   3896   3914     1  0.0000000  0.0000000  3
   3911   3907   3912   3913     1  0.0000000  0.6973333  3
   3914   3896   3897   3916     1  0.0000000  1.0460000  1
   3914   3896   3897   3916     1  0.0000000  0.0000000  3
   3914   3901   3905   3915     1  0.0000000  0.6973333  3
   3916   3897   3917   3918     1  0.0000000  0.6973333  3
   3920   3921   3923   3927     1  0.0000000  0.6508444  3
   3920   3921   3941   3942     1  0.0000000  1.0460000  1
   3920   3921   3941   3942     1  0.0000000  0.6694400  3
   3920   3931   3936   3937     1  0.0000000  1.0460000  1
   3920   3931   3936   3937     1  0.0000000  0.6694400  3
   3920   3938   3925   3928     1  0.0000000  1.6038667  3
   3921   3920   3931   3934     1  0.0000000  0.6508444  3
   3921   3920   3931   3935     1  0.0000000  0.6508444  3
   3921   3923   3924   3926     1  0.0000000  0.6508444  3
   3921   3923   3930   3932     1  0.0000000  1.0460000  1
   3921   3923   3930   3932     1  0.0000000  0.6694400  3
   3922   3920   3921   3923     1  0.0000000  0.6508444  3
   3922   3920   3921   3941     1  0.0000000  1.0460000  1
   3922   3920   3921   3941     1  0.0000000  0.0000000  3
   3922   3920   3921   3940     1  0.0000000  0.6508444  3
   3922   3920   3931   3936     1  0.0000000  1.0460000  1
   3922   3920   3931   3936     1  0.0000000  0.0000000  3
   3922   3920   3931   3934     1  0.0000000  0.6508444  3
   3922   3920   3931   3935     1  0.0000000  0.6508444  3
   3922   3920   3938   3925     1  0.0000000  1.6038667  3
   3923   3921   3941   3942     1  0.0000000  1.0460000  1
   3923   3921   3941   3942     1  0.0000000  0.6694400  3
   3923   3924   3925   3928     1  0.0000000  0.6508444  3
   3923   3924   3943   3933     1  0.0000000  1.2552000  3
   3924   3923   3921   3940     1  0.0000000  0.6508444  3
   3924   3923   3930   3932     1  0.0000000  1.0460000  1
   3924   3923   3930   3932     1  0.0000000  0.6694400  3
   3924   3925   3929   3939     1  0.0000000  1.0460000  1
   3924   3925   3929   3939     1  0.0000000  0.6694400  3
   3925   3924   3923   3927     1  0.0000000  0.6508444  3
   3925   3924   3943   3933     1  0.0000000  1.2552000  3
   3926   3924   3923   3930     1  0.0000000  1.0460000  1
   3926   3924   3923   3930     1  0.0000000  0.0000000  3
   3926   3924   3923   3927     1  0.0000000  0.6508444  3
   3926   3924   3925   3929     1  0.0000000  1.0460000  1
   3926   3924   3925   3929     1  0.0000000  0.0000000  3
   3926   3924   3925   3938     1  0.0000000  1.0460000  1
   3926   3924   3925   3938     1  0.0000000  0.0000000  3
   3926   3924   3925   3928     1  0.0000000  0.6508444  3
   3926   3924   3943   3933     1  0.0000000  1.2552000  3
   3927   3923   3921   3941     1  0.0000000  1.0460000  1
   3927   3923   3921   3941     1  0.0000000  0.0000000  3
   3927   3923   3921   3940     1  0.0000000  0.6508444  3
   3927   3923   3924   3943     1  0.0000000  0.6508444  3
   3927   3923   3930   3932     1  0.0000000  0.6973333  3
   3928   3925   3924   3943     1  0.0000000  0.6508444  3
   3928   3925   3929   3939     1  0.0000000  0.6973333  3
   3930   3923   3921   3940     1  0.0000000  1.0460000  1
   3930   3923   3921   3940     1  0.0000000  0.0000000  3
   3931   3920   3921   3940     1  0.0000000  0.6508444  3
   3934   3931   3920   3938     1  0.0000000  1.0460000  1
   3934   3931   3920   3938     1  0.0000000  0.0000000  3
   3934   3931   3936   3937     1  0.0000000  0.6973333  3
   3935   3931   3920   3938     1  0.0000000  1.0460000  1
   3935   3931   3920   3938     1  0.0000000  0.0000000  3
   3935   3931   3936   3937     1  0.0000000  0.6973333  3
   3938   3920   3921   3940     1  0.0000000  1.0460000  1
   3938   3920   3921   3940     1  0.0000000  0.0000000  3
   3938   3925   3929   3939     1  0.0000000  0.6973333  3
   3940   3921   3941   3942     1  0.0000000  0.6973333  3
   3944   3946   3948   3950     1  0.0000000  0.6508444  3
   3944   3946   3948   3951     1  0.0000000  0.6508444  3
   3945   3944   3946   3948     1  0.0000000  0.0000000  2
   3945   3944   3946   3947     1  0.0000000  0.0000000  2
   3945   3944   3946   3949     1  0.0000000  0.0000000  2
   3947   3946   3948   3952     1  0.0000000  0.6508444  3
   3947   3946   3948   3950     1  0.0000000  0.6508444  3
   3947   3946   3948   3951     1  0.0000000  0.6508444  3
   3948   3952   3953   3962     1  0.0000000  1.2552000  3
   3948   3952   3953   3963     1  0.0000000  1.2552000  3
   3948   3952   3954   3955     1  0.0000000  1.2552000  3
   3948   3952   3954   3957     1  0.0000000  1.2552000  3
   3949   3946   3948   3952     1  0.0000000  0.6508444  3
   3949   3946   3948   3950     1  0.0000000  0.6508444  3
   3949   3946   3948   3951     1  0.0000000  0.6508444  3
   3950   3948   3952   3953     1  0.0000000  1.2552000  3
   3950   3948   3952   3954     1  0.0000000  1.2552000  3
   3951   3948   3952   3953     1  0.0000000  1.2552000  3
   3951   3948   3952   3954     1  0.0000000  1.2552000  3
   3952   3953   3964   3965     1  0.0000000  0.6508444  3
   3952   3953   3964   3966     1  0.0000000  0.6508444  3
   3952   3954   3956   3958     1  0.0000000  0.6508444  3
   3952   3954   3956   3959     1  0.0000000  0.6508444  3
   3953   3952   3954   3955     1  0.0000000  1.2552000  3
   3953   3952   3954   3957     1  0.0000000  1.2552000  3
   3954   3952   3953   3962     1  0.0000000  1.2552000  3
   3954   3952   3953   3963     1  0.0000000  1.2552000  3
   3955   3954   3956   3960     1  0.0000000  0.6508444  3
   3955   3954   3956   3958     1  0.0000000  0.6508444  3
   3955   3954   3956   3959     1  0.0000000  0.6508444  3
   3956   3960   3992   3982     1  180.0000771  6.0668000  2
   3956   3960   3992   3982     1  180.0000771  1.4644000  4
   3957   3954   3956   3960     1  0.0000000  0.6508444  3
   3957   3954   3956   3958     1  0.0000000  0.6508444  3
   3957   3954   3956   3959     1  0.0000000  0.6508444  3
   3958   3956   3960   3961     1  0.0000000  3.3472000  1
   3958   3956   3960   3961     1  0.0000000  0.0000000  2
   3958   3956   3960   3961     1  180.0000771  0.3347200  3
   3958   3956   3960   3992     1  180.0000771  0.0000000  2
   3959   3956   3960   3961     1  0.0000000  3.3472000  1
   3959   3956   3960   3961     1  0.0000000  0.0000000  2
   3959   3956   3960   3961     1  180.0000771  0.3347200  3
   3959   3956   3960   3992     1  180.0000771  0.0000000  2
   3960   3992   3973   3975     1  0.0000000  1.2552000  3
   3961   3960   3992   3982     1  180.0000771  6.0668000  2
   3961   3960   3992   3982     1  180.0000771  1.4644000  4
   3962   3953   3964   3967     1  0.0000000  0.6508444  3
   3962   3953   3964   3965     1  0.0000000  0.6508444  3
   3962   3953   3964   3966     1  0.0000000  0.6508444  3
   3963   3953   3964   3967     1  0.0000000  0.6508444  3
   3963   3953   3964   3965     1  0.0000000  0.6508444  3
   3963   3953   3964   3966     1  0.0000000  0.6508444  3
   3964   3967   4016   4006     1  180.0000771  6.0668000  2
   3964   3967   4016   4006     1  180.0000771  1.4644000  4
   3965   3964   3967   3968     1  0.0000000  3.3472000  1
   3965   3964   3967   3968     1  0.0000000  0.0000000  2
   3965   3964   3967   3968     1  180.0000771  0.3347200  3
   3965   3964   3967   4016     1  180.0000771  0.0000000  2
   3966   3964   3967   3968     1  0.0000000  3.3472000  1
   3966   3964   3967   3968     1  0.0000000  0.0000000  2
   3966   3964   3967   3968     1  180.0000771  0.3347200  3
   3966   3964   3967   4016     1  180.0000771  0.0000000  2
   3967   4016   3997   3999     1  0.0000000  1.2552000  3
   3968   3967   4016   4006     1  180.0000771  6.0668000  2
   3968   3967   4016   4006     1  180.0000771  1.4644000  4
   3969   3970   3972   3976     1  0.0000000  0.6508444  3
   3969   3970   3990   3991     1  0.0000000  1.0460000  1
   3969   3970   3990   3991     1  0.0000000  0.6694400  3
   3969   3980   3985   3986     1  0.0000000  1.0460000  1
   3969   3980   3985   3986     1  0.0000000  0.6694400  3
   3969   3987   3974   3977     1  0.0000000  1.6038667  3
   3970   3972   3973   3975     1  0.0000000  0.6508444  3
   3970   3972   3979   3981     1  0.0000000  1.0460000  1
   3970   3972   3979   3981     1  0.0000000  0.6694400  3
   3970   3969   3980   3983     1  0.0000000  0.6508444  3
   3970   3969   3980   3984     1  0.0000000  0.6508444  3
   3971   3969   3970   3972     1  0.0000000  0.6508444  3
   3971   3969   3970   3990     1  0.0000000  1.0460000  1
   3971   3969   3970   3990     1  0.0000000  0.0000000  3
   3971   3969   3970   3989     1  0.0000000  0.6508444  3
   3971   3969   3980   3985     1  0.0000000  1.0460000  1
   3971   3969   3980   3985     1  0.0000000  0.0000000  3
   3971   3969   3980   3983     1  0.0000000  0.6508444  3
   3971   3969   3980   3984     1  0.0000000  0.6508444  3
   3971   3969   3987   3974     1  0.0000000  1.6038667  3
   3972   3973   3974   3977     1  0.0000000  0.6508444  3
   3972   3973   3992   3982     1  0.0000000  1.2552000  3
   3972   3970   3990   3991     1  0.0000000  1.0460000  1
   3972   3970   3990   3991     1  0.0000000  0.6694400  3
   3973   3974   3978   3988     1  0.0000000  1.0460000  1
   3973   3974   3978   3988     1  0.0000000  0.6694400  3
   3973   3972   3979   3981     1  0.0000000  1.0460000  1
   3973   3972   3979   3981     1  0.0000000  0.6694400  3
   3973   3972   3970   3989     1  0.0000000  0.6508444  3
   3974   3973   3992   3982     1  0.0000000  1.2552000  3
   3974   3973   3972   3976     1  0.0000000  0.6508444  3
   3975   3973   3974   3978     1  0.0000000  1.0460000  1
   3975   3973   3974   3978     1  0.0000000  0.0000000  3
   3975   3973   3974   3987     1  0.0000000  1.0460000  1
   3975   3973   3974   3987     1  0.0000000  0.0000000  3
   3975   3973   3974   3977     1  0.0000000  0.6508444  3
   3975   3973   3992   3982     1  0.0000000  1.2552000  3
   3975   3973   3972   3979     1  0.0000000  1.0460000  1
   3975   3973   3972   3979     1  0.0000000  0.0000000  3
   3975   3973   3972   3976     1  0.0000000  0.6508444  3
   3976   3972   3973   3992     1  0.0000000  0.6508444  3
   3976   3972   3979   3981     1  0.0000000  0.6973333  3
   3976   3972   3970   3990     1  0.0000000  1.0460000  1
   3976   3972   3970   3990     1  0.0000000  0.0000000  3
   3976   3972   3970   3989     1  0.0000000  0.6508444  3
   3977   3974   3978   3988     1  0.0000000  0.6973333  3
   3977   3974   3973   3992     1  0.0000000  0.6508444  3
   3979   3972   3970   3989     1  0.0000000  1.0460000  1
   3979   3972   3970   3989     1  0.0000000  0.0000000  3
   3980   3969   3970   3989     1  0.0000000  0.6508444  3
   3983   3980   3985   3986     1  0.0000000  0.6973333  3
   3983   3980   3969   3987     1  0.0000000  1.0460000  1
   3983   3980   3969   3987     1  0.0000000  0.0000000  3
   3984   3980   3985   3986     1  0.0000000  0.6973333  3
   3984   3980   3969   3987     1  0.0000000  1.0460000  1
   3984   3980   3969   3987     1  0.0000000  0.0000000  3
   3987   3974   3978   3988     1  0.0000000  0.6973333  3
   3987   3969   3970   3989     1  0.0000000  1.0460000  1
   3987   3969   3970   3989     1  0.0000000  0.0000000  3
   3989   3970   3990   3991     1  0.0000000  0.6973333  3
   3993   3994   3996   4000     1  0.0000000  0.6508444  3
   3993   3994   4014   4015     1  0.0000000  1.0460000  1
   3993   3994   4014   4015     1  0.0000000  0.6694400  3
   3993   4004   4009   4010     1  0.0000000  1.0460000  1
   3993   4004   4009   4010     1  0.0000000  0.6694400  3
   3993   4011   3998   4001     1  0.0000000  1.6038667  3
   3994   3996   3997   3999     1  0.0000000  0.6508444  3
   3994   3996   4003   4005     1  0.0000000  1.0460000  1
   3994   3996   4003   4005     1  0.0000000  0.6694400  3
   3994   3993   4004   4007     1  0.0000000  0.6508444  3
   3994   3993   4004   4008     1  0.0000000  0.6508444  3
   3995   3993   3994   3996     1  0.0000000  0.6508444  3
   3995   3993   3994   4014     1  0.0000000  1.0460000  1
   3995   3993   3994   4014     1  0.0000000  0.0000000  3
   3995   3993   3994   4013     1  0.0000000  0.6508444  3
   3995   3993   4004   4009     1  0.0000000  1.0460000  1
   3995   3993   4004   4009     1  0.0000000  0.0000000  3
   3995   3993   4004   4007     1  0.0000000  0.6508444  3
   3995   3993   4004   4008     1  0.0000000  0.6508444  3
   3995   3993   4011   3998     1  0.0000000  1.6038667  3
   3996   3997   3998   4001     1  0.0000000  0.6508444  3
   3996   3997   4016   4006     1  0.0000000  1.2552000  3
   3996   3994   4014   4015     1  0.0000000  1.0460000  1
   3996   3994   4014   4015     1  0.0000000  0.6694400  3
   3997   3998   4002   4012     1  0.0000000  1.0460000  1
   3997   3998   4002   4012     1  0.0000000  0.6694400  3
   3997   3996   4003   4005     1  0.0000000  1.0460000  1
   3997   3996   4003   4005     1  0.0000000  0.6694400  3
   3997   3996   3994   4013     1  0.0000000  0.6508444  3
   3998   3997   4016   4006     1  0.0000000  1.2552000  3
   3998   3997   3996   4000     1  0.0000000  0.6508444  3
   3999   3997   3998   4002     1  0.0000000  1.0460000  1
   3999   3997   3998   4002     1  0.0000000  0.0000000  3
   3999   3997   3998   4011     1  0.0000000  1.0460000  1
   3999   3997   3998   4011     1  0.0000000  0.0000000  3
   3999   3997   3998   4001     1  0.0000000  0.6508444  3
   3999   3997   4016   4006     1  0.0000000  1.2552000  3
   3999   3997   3996   4003     1  0.0000000  1.0460000  1
   3999   3997   3996   4003     1  0.0000000  0.0000000  3
   3999   3997   3996   4000     1  0.0000000  0.6508444  3
   4000   3996   3997   4016     1  0.0000000  0.6508444  3
   4000   3996   4003   4005     1  0.0000000  0.6973333  3
   4000   3996   3994   4014     1  0.0000000  1.0460000  1
   4000   3996   3994   4014     1  0.0000000  0.0000000  3
   4000   3996   3994   4013     1  0.0000000  0.6508444  3
   4001   3998   4002   4012     1  0.0000000  0.6973333  3
   4001   3998   3997   4016     1  0.0000000  0.6508444  3
   4003   3996   3994   4013     1  0.0000000  1.0460000  1
   4003   3996   3994   4013     1  0.0000000  0.0000000  3
   4004   3993   3994   4013     1  0.0000000  0.6508444  3
   4007   4004   4009   4010     1  0.0000000  0.6973333  3
   4007   4004   3993   4011     1  0.0000000  1.0460000  1
   4007   4004   3993   4011     1  0.0000000  0.0000000  3
   4008   4004   4009   4010     1  0.0000000  0.6973333  3
   4008   4004   3993   4011     1  0.0000000  1.0460000  1
   4008   4004   3993   4011     1  0.0000000  0.0000000  3
   4011   3998   4002   4012     1  0.0000000  0.6973333  3
   4011   3993   3994   4013     1  0.0000000  1.0460000  1
   4011   3993   3994   4013     1  0.0000000  0.0000000  3
   4013   3994   4014   4015     1  0.0000000  0.6973333  3
   4017   4019   4021   4023     1  0.0000000  0.6508444  3
   4017   4019   4021   4024     1  0.0000000  0.6508444  3
   4018   4017   4019   4021     1  0.0000000  0.0000000  2
   4018   4017   4019   4020     1  0.0000000  0.0000000  2
   4018   4017   4019   4022     1  0.0000000  0.0000000  2
   4020   4019   4021   4025     1  0.0000000  0.6508444  3
   4020   4019   4021   4023     1  0.0000000  0.6508444  3
   4020   4019   4021   4024     1  0.0000000  0.6508444  3
   4021   4025   4026   4035     1  0.0000000  1.2552000  3
   4021   4025   4026   4036     1  0.0000000  1.2552000  3
   4021   4025   4027   4028     1  0.0000000  1.2552000  3
   4021   4025   4027   4030     1  0.0000000  1.2552000  3
   4022   4019   4021   4025     1  0.0000000  0.6508444  3
   4022   4019   4021   4023     1  0.0000000  0.6508444  3
   4022   4019   4021   4024     1  0.0000000  0.6508444  3
   4023   4021   4025   4026     1  0.0000000  1.2552000  3
   4023   4021   4025   4027     1  0.0000000  1.2552000  3
   4024   4021   4025   4026     1  0.0000000  1.2552000  3
   4024   4021   4025   4027     1  0.0000000  1.2552000  3
   4025   4026   4037   4038     1  0.0000000  0.6508444  3
   4025   4026   4037   4039     1  0.0000000  0.6508444  3
   4025   4027   4029   4031     1  0.0000000  0.6508444  3
   4025   4027   4029   4032     1  0.0000000  0.6508444  3
   4026   4025   4027   4028     1  0.0000000  1.2552000  3
   4026   4025   4027   4030     1  0.0000000  1.2552000  3
   4027   4025   4026   4035     1  0.0000000  1.2552000  3
   4027   4025   4026   4036     1  0.0000000  1.2552000  3
   4028   4027   4029   4033     1  0.0000000  0.6508444  3
   4028   4027   4029   4031     1  0.0000000  0.6508444  3
   4028   4027   4029   4032     1  0.0000000  0.6508444  3
   4029   4033   4065   4055     1  180.0000771  6.0668000  2
   4029   4033   4065   4055     1  180.0000771  1.4644000  4
   4030   4027   4029   4033     1  0.0000000  0.6508444  3
   4030   4027   4029   4031     1  0.0000000  0.6508444  3
   4030   4027   4029   4032     1  0.0000000  0.6508444  3
   4031   4029   4033   4034     1  0.0000000  3.3472000  1
   4031   4029   4033   4034     1  0.0000000  0.0000000  2
   4031   4029   4033   4034     1  180.0000771  0.3347200  3
   4031   4029   4033   4065     1  180.0000771  0.0000000  2
   4032   4029   4033   4034     1  0.0000000  3.3472000  1
   4032   4029   4033   4034     1  0.0000000  0.0000000  2
   4032   4029   4033   4034     1  180.0000771  0.3347200  3
   4032   4029   4033   4065     1  180.0000771  0.0000000  2
   4033   4065   4046   4048     1  0.0000000  1.2552000  3
   4034   4033   4065   4055     1  180.0000771  6.0668000  2
   4034   4033   4065   4055     1  180.0000771  1.4644000  4
   4035   4026   4037   4040     1  0.0000000  0.6508444  3
   4035   4026   4037   4038     1  0.0000000  0.6508444  3
   4035   4026   4037   4039     1  0.0000000  0.6508444  3
   4036   4026   4037   4040     1  0.0000000  0.6508444  3
   4036   4026   4037   4038     1  0.0000000  0.6508444  3
   4036   4026   4037   4039     1  0.0000000  0.6508444  3
   4037   4040   4089   4079     1  180.0000771  6.0668000  2
   4037   4040   4089   4079     1  180.0000771  1.4644000  4
   4038   4037   4040   4041     1  0.0000000  3.3472000  1
   4038   4037   4040   4041     1  0.0000000  0.0000000  2
   4038   4037   4040   4041     1  180.0000771  0.3347200  3
   4038   4037   4040   4089     1  180.0000771  0.0000000  2
   4039   4037   4040   4041     1  0.0000000  3.3472000  1
   4039   4037   4040   4041     1  0.0000000  0.0000000  2
   4039   4037   4040   4041     1  180.0000771  0.3347200  3
   4039   4037   4040   4089     1  180.0000771  0.0000000  2
   4040   4089   4070   4072     1  0.0000000  1.2552000  3
   4041   4040   4089   4079     1  180.0000771  6.0668000  2
   4041   4040   4089   4079     1  180.0000771  1.4644000  4
   4042   4043   4045   4049     1  0.0000000  0.6508444  3
   4042   4043   4063   4064     1  0.0000000  1.0460000  1
   4042   4043   4063   4064     1  0.0000000  0.6694400  3
   4042   4053   4058   4059     1  0.0000000  1.0460000  1
   4042   4053   4058   4059     1  0.0000000  0.6694400  3
   4042   4060   4047   4050     1  0.0000000  1.6038667  3
   4043   4042   4053   4056     1  0.0000000  0.6508444  3
   4043   4042   4053   4057     1  0.0000000  0.6508444  3
   4043   4045   4046   4048     1  0.0000000  0.6508444  3
   4043   4045   4052   4054     1  0.0000000  1.0460000  1
   4043   4045   4052   4054     1  0.0000000  0.6694400  3
   4044   4042   4043   4045     1  0.0000000  0.6508444  3
   4044   4042   4043   4063     1  0.0000000  1.0460000  1
   4044   4042   4043   4063     1  0.0000000  0.0000000  3
   4044   4042   4043   4062     1  0.0000000  0.6508444  3
   4044   4042   4053   4058     1  0.0000000  1.0460000  1
   4044   4042   4053   4058     1  0.0000000  0.0000000  3
   4044   4042   4053   4056     1  0.0000000  0.6508444  3
   4044   4042   4053   4057     1  0.0000000  0.6508444  3
   4044   4042   4060   4047     1  0.0000000  1.6038667  3
   4045   4043   4063   4064     1  0.0000000  1.0460000  1
   4045   4043   4063   4064     1  0.0000000  0.6694400  3
   4045   4046   4047   4050     1  0.0000000  0.6508444  3
   4045   4046   4065   4055     1  0.0000000  1.2552000  3
   4046   4045   4043   4062     1  0.0000000  0.6508444  3
   4046   4045   4052   4054     1  0.0000000  1.0460000  1
   4046   4045   4052   4054     1  0.0000000  0.6694400  3
   4046   4047   4051   4061     1  0.0000000  1.0460000  1
   4046   4047   4051   4061     1  0.0000000  0.6694400  3
   4047   4046   4045   4049     1  0.0000000  0.6508444  3
   4047   4046   4065   4055     1  0.0000000  1.2552000  3
   4048   4046   4045   4052     1  0.0000000  1.0460000  1
   4048   4046   4045   4052     1  0.0000000  0.0000000  3
   4048   4046   4045   4049     1  0.0000000  0.6508444  3
   4048   4046   4047   4051     1  0.0000000  1.0460000  1
   4048   4046   4047   4051     1  0.0000000  0.0000000  3
   4048   4046   4047   4060     1  0.0000000  1.0460000  1
   4048   4046   4047   4060     1  0.0000000  0.0000000  3
   4048   4046   4047   4050     1  0.0000000  0.6508444  3
   4048   4046   4065   4055     1  0.0000000  1.2552000  3
   4049   4045   4043   4063     1  0.0000000  1.0460000  1
   4049   4045   4043   4063     1  0.0000000  0.0000000  3
   4049   4045   4043   4062     1  0.0000000  0.6508444  3
   4049   4045   4046   4065     1  0.0000000  0.6508444  3
   4049   4045   4052   4054     1  0.0000000  0.6973333  3
   4050   4047   4046   4065     1  0.0000000  0.6508444  3
   4050   4047   4051   4061     1  0.0000000  0.6973333  3
   4052   4045   4043   4062     1  0.0000000  1.0460000  1
   4052   4045   4043   4062     1  0.0000000  0.0000000  3
   4053   4042   4043   4062     1  0.0000000  0.6508444  3
   4056   4053   4042   4060     1  0.0000000  1.0460000  1
   4056   4053   4042   4060     1  0.0000000  0.0000000  3
   4056   4053   4058   4059     1  0.0000000  0.6973333  3
   4057   4053   4042   4060     1  0.0000000  1.0460000  1
   4057   4053   4042   4060     1  0.0000000  0.0000000  3
   4057   4053   4058   4059     1  0.0000000  0.6973333  3
   4060   4042   4043   4062     1  0.0000000  1.0460000  1
   4060   4042   4043   4062     1  0.0000000  0.0000000  3
   4060   4047   4051   4061     1  0.0000000  0.6973333  3
   4062   4043   4063   4064     1  0.0000000  0.6973333  3
   4066   4067   4069   4073     1  0.0000000  0.6508444  3
   4066   4067   4087   4088     1  0.0000000  1.0460000  1
   4066   4067   4087   4088     1  0.0000000  0.6694400  3
   4066   4077   4082   4083     1  0.0000000  1.0460000  1
   4066   4077   4082   4083     1  0.0000000  0.6694400  3
   4066   4084   4071   4074     1  0.0000000  1.6038667  3
   4067   4066   4077   4080     1  0.0000000  0.6508444  3
   4067   4066   4077   4081     1  0.0000000  0.6508444  3
   4067   4069   4070   4072     1  0.0000000  0.6508444  3
   4067   4069   4076   4078     1  0.0000000  1.0460000  1
   4067   4069   4076   4078     1  0.0000000  0.6694400  3
   4068   4066   4067   4069     1  0.0000000  0.6508444  3
   4068   4066   4067   4087     1  0.0000000  1.0460000  1
   4068   4066   4067   4087     1  0.0000000  0.0000000  3
   4068   4066   4067   4086     1  0.0000000  0.6508444  3
   4068   4066   4077   4082     1  0.0000000  1.0460000  1
   4068   4066   4077   4082     1  0.0000000  0.0000000  3
   4068   4066   4077   4080     1  0.0000000  0.6508444  3
   4068   4066   4077   4081     1  0.0000000  0.6508444  3
   4068   4066   4084   4071     1  0.0000000  1.6038667  3
   4069   4067   4087   4088     1  0.0000000  1.0460000  1
   4069   4067   4087   4088     1  0.0000000  0.6694400  3
   4069   4070   4071   4074     1  0.0000000  0.6508444  3
   4069   4070   4089   4079     1  0.0000000  1.2552000  3
   4070   4069   4067   4086     1  0.0000000  0.6508444  3
   4070   4069   4076   4078     1  0.0000000  1.0460000  1
   4070   4069   4076   4078     1  0.0000000  0.6694400  3
   4070   4071   4075   4085     1  0.0000000  1.0460000  1
   4070   4071   4075   4085     1  0.0000000  0.6694400  3
   4071   4070   4069   4073     1  0.0000000  0.6508444  3
   4071   4070   4089   4079     1  0.0000000  1.2552000  3
   4072   4070   4069   4076     1  0.0000000  1.0460000  1
   4072   4070   4069   4076     1  0.0000000  0.0000000  3
   4072   4070   4069   4073     1  0.0000000  0.6508444  3
   4072   4070   4071   4075     1  0.0000000  1.0460000  1
   4072   4070   4071   4075     1  0.0000000  0.0000000  3
   4072   4070   4071   4084     1  0.0000000  1.0460000  1
   4072   4070   4071   4084     1  0.0000000  0.0000000  3
   4072   4070   4071   4074     1  0.0000000  0.6508444  3
   4072   4070   4089   4079     1  0.0000000  1.2552000  3
   4073   4069   4067   4087     1  0.0000000  1.0460000  1
   4073   4069   4067   4087     1  0.0000000  0.0000000  3
   4073   4069   4067   4086     1  0.0000000  0.6508444  3
   4073   4069   4070   4089     1  0.0000000  0.6508444  3
   4073   4069   4076   4078     1  0.0000000  0.6973333  3
   4074   4071   4070   4089     1  0.0000000  0.6508444  3
   4074   4071   4075   4085     1  0.0000000  0.6973333  3
   4076   4069   4067   4086     1  0.0000000  1.0460000  1
   4076   4069   4067   4086     1  0.0000000  0.0000000  3
   4077   4066   4067   4086     1  0.0000000  0.6508444  3
   4080   4077   4066   4084     1  0.0000000  1.0460000  1
   4080   4077   4066   4084     1  0.0000000  0.0000000  3
   4080   4077   4082   4083     1  0.0000000  0.6973333  3
   4081   4077   4066   4084     1  0.0000000  1.0460000  1
   4081   4077   4066   4084     1  0.0000000  0.0000000  3
   4081   4077   4082   4083     1  0.0000000  0.6973333  3
   4084   4066   4067   4086     1  0.0000000  1.0460000  1
   4084   4066   4067   4086     1  0.0000000  0.0000000  3
   4084   4071   4075   4085     1  0.0000000  0.6973333  3
   4086   4067   4087   4088     1  0.0000000  0.6973333  3
   4090   4092   4094   4096     1  0.0000000  0.6508444  3
   4090   4092   4094   4097     1  0.0000000  0.6508444  3
   4091   4090   4092   4094     1  0.0000000  0.0000000  2
   4091   4090   4092   4093     1  0.0000000  0.0000000  2
   4091   4090   4092   4095     1  0.0000000  0.0000000  2
   4093   4092   4094   4098     1  0.0000000  0.6508444  3
   4093   4092   4094   4096     1  0.0000000  0.6508444  3
   4093   4092   4094   4097     1  0.0000000  0.6508444  3
   4094   4098   4099   4108     1  0.0000000  1.2552000  3
   4094   4098   4099   4109     1  0.0000000  1.2552000  3
   4094   4098   4100   4101     1  0.0000000  1.2552000  3
   4094   4098   4100   4103     1  0.0000000  1.2552000  3
   4095   4092   4094   4098     1  0.0000000  0.6508444  3
   4095   4092   4094   4096     1  0.0000000  0.6508444  3
   4095   4092   4094   4097     1  0.0000000  0.6508444  3
   4096   4094   4098   4099     1  0.0000000  1.2552000  3
   4096   4094   4098   4100     1  0.0000000  1.2552000  3
   4097   4094   4098   4099     1  0.0000000  1.2552000  3
   4097   4094   4098   4100     1  0.0000000  1.2552000  3
   4098   4099   4110   4111     1  0.0000000  0.6508444  3
   4098   4099   4110   4112     1  0.0000000  0.6508444  3
   4098   4100   4102   4104     1  0.0000000  0.6508444  3
   4098   4100   4102   4105     1  0.0000000  0.6508444  3
   4099   4098   4100   4101     1  0.0000000  1.2552000  3
   4099   4098   4100   4103     1  0.0000000  1.2552000  3
   4100   4098   4099   4108     1  0.0000000  1.2552000  3
   4100   4098   4099   4109     1  0.0000000  1.2552000  3
   4101   4100   4102   4106     1  0.0000000  0.6508444  3
   4101   4100   4102   4104     1  0.0000000  0.6508444  3
   4101   4100   4102   4105     1  0.0000000  0.6508444  3
   4102   4106   4138   4128     1  180.0000771  6.0668000  2
   4102   4106   4138   4128     1  180.0000771  1.4644000  4
   4103   4100   4102   4106     1  0.0000000  0.6508444  3
   4103   4100   4102   4104     1  0.0000000  0.6508444  3
   4103   4100   4102   4105     1  0.0000000  0.6508444  3
   4104   4102   4106   4107     1  0.0000000  3.3472000  1
   4104   4102   4106   4107     1  0.0000000  0.0000000  2
   4104   4102   4106   4107     1  180.0000771  0.3347200  3
   4104   4102   4106   4138     1  180.0000771  0.0000000  2
   4105   4102   4106   4107     1  0.0000000  3.3472000  1
   4105   4102   4106   4107     1  0.0000000  0.0000000  2
   4105   4102   4106   4107     1  180.0000771  0.3347200  3
   4105   4102   4106   4138     1  180.0000771  0.0000000  2
   4106   4138   4119   4121     1  0.0000000  1.2552000  3
   4107   4106   4138   4128     1  180.0000771  6.0668000  2
   4107   4106   4138   4128     1  180.0000771  1.4644000  4
   4108   4099   4110   4113     1  0.0000000  0.6508444  3
   4108   4099   4110   4111     1  0.0000000  0.6508444  3
   4108   4099   4110   4112     1  0.0000000  0.6508444  3
   4109   4099   4110   4113     1  0.0000000  0.6508444  3
   4109   4099   4110   4111     1  0.0000000  0.6508444  3
   4109   4099   4110   4112     1  0.0000000  0.6508444  3
   4110   4113   4162   4152     1  180.0000771  6.0668000  2
   4110   4113   4162   4152     1  180.0000771  1.4644000  4
   4111   4110   4113   4114     1  0.0000000  3.3472000  1
   4111   4110   4113   4114     1  0.0000000  0.0000000  2
   4111   4110   4113   4114     1  180.0000771  0.3347200  3
   4111   4110   4113   4162     1  180.0000771  0.0000000  2
   4112   4110   4113   4114     1  0.0000000  3.3472000  1
   4112   4110   4113   4114     1  0.0000000  0.0000000  2
   4112   4110   4113   4114     1  180.0000771  0.3347200  3
   4112   4110   4113   4162     1  180.0000771  0.0000000  2
   4113   4162   4143   4145     1  0.0000000  1.2552000  3
   4114   4113   4162   4152     1  180.0000771  6.0668000  2
   4114   4113   4162   4152     1  180.0000771  1.4644000  4
   4115   4116   4118   4122     1  0.0000000  0.6508444  3
   4115   4116   4136   4137     1  0.0000000  1.0460000  1
   4115   4116   4136   4137     1  0.0000000  0.6694400  3
   4115   4126   4131   4132     1  0.0000000  1.0460000  1
   4115   4126   4131   4132     1  0.0000000  0.6694400  3
   4115   4133   4120   4123     1  0.0000000  1.6038667  3
   4116   4118   4119   4121     1  0.0000000  0.6508444  3
   4116   4118   4125   4127     1  0.0000000  1.0460000  1
   4116   4118   4125   4127     1  0.0000000  0.6694400  3
   4116   4115   4126   4129     1  0.0000000  0.6508444  3
   4116   4115   4126   4130     1  0.0000000  0.6508444  3
   4117   4115   4116   4118     1  0.0000000  0.6508444  3
   4117   4115   4116   4136     1  0.0000000  1.0460000  1
   4117   4115   4116   4136     1  0.0000000  0.0000000  3
   4117   4115   4116   4135     1  0.0000000  0.6508444  3
   4117   4115   4126   4131     1  0.0000000  1.0460000  1
   4117   4115   4126   4131     1  0.0000000  0.0000000  3
   4117   4115   4126   4129     1  0.0000000  0.6508444  3
   4117   4115   4126   4130     1  0.0000000  0.6508444  3
   4117   4115   4133   4120     1  0.0000000  1.6038667  3
   4118   4119   4120   4123     1  0.0000000  0.6508444  3
   4118   4119   4138   4128     1  0.0000000  1.2552000  3
   4118   4116   4136   4137     1  0.0000000  1.0460000  1
   4118   4116   4136   4137     1  0.0000000  0.6694400  3
   4119   4120   4124   4134     1  0.0000000  1.0460000  1
   4119   4120   4124   4134     1  0.0000000  0.6694400  3
   4119   4118   4125   4127     1  0.0000000  1.0460000  1
   4119   4118   4125   4127     1  0.0000000  0.6694400  3
   4119   4118   4116   4135     1  0.0000000  0.6508444  3
   4120   4119   4138   4128     1  0.0000000  1.2552000  3
   4120   4119   4118   4122     1  0.0000000  0.6508444  3
   4121   4119   4120   4124     1  0.0000000  1.0460000  1
   4121   4119   4120   4124     1  0.0000000  0.0000000  3
   4121   4119   4120   4133     1  0.0000000  1.0460000  1
   4121   4119   4120   4133     1  0.0000000  0.0000000  3
   4121   4119   4120   4123     1  0.0000000  0.6508444  3
   4121   4119   4138   4128     1  0.0000000  1.2552000  3
   4121   4119   4118   4125     1  0.0000000  1.0460000  1
   4121   4119   4118   4125     1  0.0000000  0.0000000  3
   4121   4119   4118   4122     1  0.0000000  0.6508444  3
   4122   4118   4119   4138     1  0.0000000  0.6508444  3
   4122   4118   4125   4127     1  0.0000000  0.6973333  3
   4122   4118   4116   4136     1  0.0000000  1.0460000  1
   4122   4118   4116   4136     1  0.0000000  0.0000000  3
   4122   4118   4116   4135     1  0.0000000  0.6508444  3
   4123   4120   4124   4134     1  0.0000000  0.6973333  3
   4123   4120   4119   4138     1  0.0000000  0.6508444  3
   4125   4118   4116   4135     1  0.0000000  1.0460000  1
   4125   4118   4116   4135     1  0.0000000  0.0000000  3
   4126   4115   4116   4135     1  0.0000000  0.6508444  3
   4129   4126   4131   4132     1  0.0000000  0.6973333  3
   4129   4126   4115   4133     1  0.0000000  1.0460000  1
   4129   4126   4115   4133     1  0.0000000  0.0000000  3
   4130   4126   4131   4132     1  0.0000000  0.6973333  3
   4130   4126   4115   4133     1  0.0000000  1.0460000  1
   4130   4126   4115   4133     1  0.0000000  0.0000000  3
   4133   4120   4124   4134     1  0.0000000  0.6973333  3
   4133   4115   4116   4135     1  0.0000000  1.0460000  1
   4133   4115   4116   4135     1  0.0000000  0.0000000  3
   4135   4116   4136   4137     1  0.0000000  0.6973333  3
   4139   4140   4142   4146     1  0.0000000  0.6508444  3
   4139   4140   4160   4161     1  0.0000000  1.0460000  1
   4139   4140   4160   4161     1  0.0000000  0.6694400  3
   4139   4150   4155   4156     1  0.0000000  1.0460000  1
   4139   4150   4155   4156     1  0.0000000  0.6694400  3
   4139   4157   4144   4147     1  0.0000000  1.6038667  3
   4140   4142   4143   4145     1  0.0000000  0.6508444  3
   4140   4142   4149   4151     1  0.0000000  1.0460000  1
   4140   4142   4149   4151     1  0.0000000  0.6694400  3
   4140   4139   4150   4153     1  0.0000000  0.6508444  3
   4140   4139   4150   4154     1  0.0000000  0.6508444  3
   4141   4139   4140   4142     1  0.0000000  0.6508444  3
   4141   4139   4140   4160     1  0.0000000  1.0460000  1
   4141   4139   4140   4160     1  0.0000000  0.0000000  3
   4141   4139   4140   4159     1  0.0000000  0.6508444  3
   4141   4139   4150   4155     1  0.0000000  1.0460000  1
   4141   4139   4150   4155     1  0.0000000  0.0000000  3
   4141   4139   4150   4153     1  0.0000000  0.6508444  3
   4141   4139   4150   4154     1  0.0000000  0.6508444  3
   4141   4139   4157   4144     1  0.0000000  1.6038667  3
   4142   4143   4144   4147     1  0.0000000  0.6508444  3
   4142   4143   4162   4152     1  0.0000000  1.2552000  3
   4142   4140   4160   4161     1  0.0000000  1.0460000  1
   4142   4140   4160   4161     1  0.0000000  0.6694400  3
   4143   4144   4148   4158     1  0.0000000  1.0460000  1
   4143   4144   4148   4158     1  0.0000000  0.6694400  3
   4143   4142   4149   4151     1  0.0000000  1.0460000  1
   4143   4142   4149   4151     1  0.0000000  0.6694400  3
   4143   4142   4140   4159     1  0.0000000  0.6508444  3
   4144   4143   4162   4152     1  0.0000000  1.2552000  3
   4144   4143   4142   4146     1  0.0000000  0.6508444  3
   4145   4143   4144   4148     1  0.0000000  1.0460000  1
   4145   4143   4144   4148     1  0.0000000  0.0000000  3
   4145   4143   4144   4157     1  0.0000000  1.0460000  1
   4145   4143   4144   4157     1  0.0000000  0.0000000  3
   4145   4143   4144   4147     1  0.0000000  0.6508444  3
   4145   4143   4162   4152     1  0.0000000  1.2552000  3
   4145   4143   4142   4149     1  0.0000000  1.0460000  1
   4145   4143   4142   4149     1  0.0000000  0.0000000  3
   4145   4143   4142   4146     1  0.0000000  0.6508444  3
   4146   4142   4143   4162     1  0.0000000  0.6508444  3
   4146   4142   4149   4151     1  0.0000000  0.6973333  3
   4146   4142   4140   4160     1  0.0000000  1.0460000  1
   4146   4142   4140   4160     1  0.0000000  0.0000000  3
   4146   4142   4140   4159     1  0.0000000  0.6508444  3
   4147   4144   4148   4158     1  0.0000000  0.6973333  3
   4147   4144   4143   4162     1  0.0000000  0.6508444  3
   4149   4142   4140   4159     1  0.0000000  1.0460000  1
   4149   4142   4140   4159     1  0.0000000  0.0000000  3
   4150   4139   4140   4159     1  0.0000000  0.6508444  3
   4153   4150   4155   4156     1  0.0000000  0.6973333  3
   4153   4150   4139   4157     1  0.0000000  1.0460000  1
   4153   4150   4139   4157     1  0.0000000  0.0000000  3
   4154   4150   4155   4156     1  0.0000000  0.6973333  3
   4154   4150   4139   4157     1  0.0000000  1.0460000  1
   4154   4150   4139   4157     1  0.0000000  0.0000000  3
   4157   4144   4148   4158     1  0.0000000  0.6973333  3
   4157   4139   4140   4159     1  0.0000000  1.0460000  1
   4157   4139   4140   4159     1  0.0000000  0.0000000  3
   4159   4140   4160   4161     1  0.0000000  0.6973333  3
   4163   4165   4167   4169     1  0.0000000  0.6508444  3
   4163   4165   4167   4170     1  0.0000000  0.6508444  3
   4164   4163   4165   4167     1  0.0000000  0.0000000  2
   4164   4163   4165   4166     1  0.0000000  0.0000000  2
   4164   4163   4165   4168     1  0.0000000  0.0000000  2
   4166   4165   4167   4171     1  0.0000000  0.6508444  3
   4166   4165   4167   4169     1  0.0000000  0.6508444  3
   4166   4165   4167   4170     1  0.0000000  0.6508444  3
   4167   4171   4172   4181     1  0.0000000  1.2552000  3
   4167   4171   4172   4182     1  0.0000000  1.2552000  3
   4167   4171   4173   4174     1  0.0000000  1.2552000  3
   4167   4171   4173   4176     1  0.0000000  1.2552000  3
   4168   4165   4167   4171     1  0.0000000  0.6508444  3
   4168   4165   4167   4169     1  0.0000000  0.6508444  3
   4168   4165   4167   4170     1  0.0000000  0.6508444  3
   4169   4167   4171   4172     1  0.0000000  1.2552000  3
   4169   4167   4171   4173     1  0.0000000  1.2552000  3
   4170   4167   4171   4172     1  0.0000000  1.2552000  3
   4170   4167   4171   4173     1  0.0000000  1.2552000  3
   4171   4172   4183   4184     1  0.0000000  0.6508444  3
   4171   4172   4183   4185     1  0.0000000  0.6508444  3
   4171   4173   4175   4177     1  0.0000000  0.6508444  3
   4171   4173   4175   4178     1  0.0000000  0.6508444  3
   4172   4171   4173   4174     1  0.0000000  1.2552000  3
   4172   4171   4173   4176     1  0.0000000  1.2552000  3
   4173   4171   4172   4181     1  0.0000000  1.2552000  3
   4173   4171   4172   4182     1  0.0000000  1.2552000  3
   4174   4173   4175   4179     1  0.0000000  0.6508444  3
   4174   4173   4175   4177     1  0.0000000  0.6508444  3
   4174   4173   4175   4178     1  0.0000000  0.6508444  3
   4175   4179   4211   4201     1  180.0000771  6.0668000  2
   4175   4179   4211   4201     1  180.0000771  1.4644000  4
   4176   4173   4175   4179     1  0.0000000  0.6508444  3
   4176   4173   4175   4177     1  0.0000000  0.6508444  3
   4176   4173   4175   4178     1  0.0000000  0.6508444  3
   4177   4175   4179   4180     1  0.0000000  3.3472000  1
   4177   4175   4179   4180     1  0.0000000  0.0000000  2
   4177   4175   4179   4180     1  180.0000771  0.3347200  3
   4177   4175   4179   4211     1  180.0000771  0.0000000  2
   4178   4175   4179   4180     1  0.0000000  3.3472000  1
   4178   4175   4179   4180     1  0.0000000  0.0000000  2
   4178   4175   4179   4180     1  180.0000771  0.3347200  3
   4178   4175   4179   4211     1  180.0000771  0.0000000  2
   4179   4211   4192   4194     1  0.0000000  1.2552000  3
   4180   4179   4211   4201     1  180.0000771  6.0668000  2
   4180   4179   4211   4201     1  180.0000771  1.4644000  4
   4181   4172   4183   4186     1  0.0000000  0.6508444  3
   4181   4172   4183   4184     1  0.0000000  0.6508444  3
   4181   4172   4183   4185     1  0.0000000  0.6508444  3
   4182   4172   4183   4186     1  0.0000000  0.6508444  3
   4182   4172   4183   4184     1  0.0000000  0.6508444  3
   4182   4172   4183   4185     1  0.0000000  0.6508444  3
   4183   4186   4235   4225     1  180.0000771  6.0668000  2
   4183   4186   4235   4225     1  180.0000771  1.4644000  4
   4184   4183   4186   4187     1  0.0000000  3.3472000  1
   4184   4183   4186   4187     1  0.0000000  0.0000000  2
   4184   4183   4186   4187     1  180.0000771  0.3347200  3
   4184   4183   4186   4235     1  180.0000771  0.0000000  2
   4185   4183   4186   4187     1  0.0000000  3.3472000  1
   4185   4183   4186   4187     1  0.0000000  0.0000000  2
   4185   4183   4186   4187     1  180.0000771  0.3347200  3
   4185   4183   4186   4235     1  180.0000771  0.0000000  2
   4186   4235   4216   4218     1  0.0000000  1.2552000  3
   4187   4186   4235   4225     1  180.0000771  6.0668000  2
   4187   4186   4235   4225     1  180.0000771  1.4644000  4
   4188   4189   4191   4195     1  0.0000000  0.6508444  3
   4188   4189   4209   4210     1  0.0000000  1.0460000  1
   4188   4189   4209   4210     1  0.0000000  0.6694400  3
   4188   4199   4204   4205     1  0.0000000  1.0460000  1
   4188   4199   4204   4205     1  0.0000000  0.6694400  3
   4188   4206   4193   4196     1  0.0000000  1.6038667  3
   4189   4188   4199   4202     1  0.0000000  0.6508444  3
   4189   4188   4199   4203     1  0.0000000  0.6508444  3
   4189   4191   4192   4194     1  0.0000000  0.6508444  3
   4189   4191   4198   4200     1  0.0000000  1.0460000  1
   4189   4191   4198   4200     1  0.0000000  0.6694400  3
   4190   4188   4189   4191     1  0.0000000  0.6508444  3
   4190   4188   4189   4209     1  0.0000000  1.0460000  1
   4190   4188   4189   4209     1  0.0000000  0.0000000  3
   4190   4188   4189   4208     1  0.0000000  0.6508444  3
   4190   4188   4199   4204     1  0.0000000  1.0460000  1
   4190   4188   4199   4204     1  0.0000000  0.0000000  3
   4190   4188   4199   4202     1  0.0000000  0.6508444  3
   4190   4188   4199   4203     1  0.0000000  0.6508444  3
   4190   4188   4206   4193     1  0.0000000  1.6038667  3
   4191   4189   4209   4210     1  0.0000000  1.0460000  1
   4191   4189   4209   4210     1  0.0000000  0.6694400  3
   4191   4192   4193   4196     1  0.0000000  0.6508444  3
   4191   4192   4211   4201     1  0.0000000  1.2552000  3
   4192   4191   4189   4208     1  0.0000000  0.6508444  3
   4192   4191   4198   4200     1  0.0000000  1.0460000  1
   4192   4191   4198   4200     1  0.0000000  0.6694400  3
   4192   4193   4197   4207     1  0.0000000  1.0460000  1
   4192   4193   4197   4207     1  0.0000000  0.6694400  3
   4193   4192   4191   4195     1  0.0000000  0.6508444  3
   4193   4192   4211   4201     1  0.0000000  1.2552000  3
   4194   4192   4191   4198     1  0.0000000  1.0460000  1
   4194   4192   4191   4198     1  0.0000000  0.0000000  3
   4194   4192   4191   4195     1  0.0000000  0.6508444  3
   4194   4192   4193   4197     1  0.0000000  1.0460000  1
   4194   4192   4193   4197     1  0.0000000  0.0000000  3
   4194   4192   4193   4206     1  0.0000000  1.0460000  1
   4194   4192   4193   4206     1  0.0000000  0.0000000  3
   4194   4192   4193   4196     1  0.0000000  0.6508444  3
   4194   4192   4211   4201     1  0.0000000  1.2552000  3
   4195   4191   4189   4209     1  0.0000000  1.0460000  1
   4195   4191   4189   4209     1  0.0000000  0.0000000  3
   4195   4191   4189   4208     1  0.0000000  0.6508444  3
   4195   4191   4192   4211     1  0.0000000  0.6508444  3
   4195   4191   4198   4200     1  0.0000000  0.6973333  3
   4196   4193   4192   4211     1  0.0000000  0.6508444  3
   4196   4193   4197   4207     1  0.0000000  0.6973333  3
   4198   4191   4189   4208     1  0.0000000  1.0460000  1
   4198   4191   4189   4208     1  0.0000000  0.0000000  3
   4199   4188   4189   4208     1  0.0000000  0.6508444  3
   4202   4199   4188   4206     1  0.0000000  1.0460000  1
   4202   4199   4188   4206     1  0.0000000  0.0000000  3
   4202   4199   4204   4205     1  0.0000000  0.6973333  3
   4203   4199   4188   4206     1  0.0000000  1.0460000  1
   4203   4199   4188   4206     1  0.0000000  0.0000000  3
   4203   4199   4204   4205     1  0.0000000  0.6973333  3
   4206   4188   4189   4208     1  0.0000000  1.0460000  1
   4206   4188   4189   4208     1  0.0000000  0.0000000  3
   4206   4193   4197   4207     1  0.0000000  0.6973333  3
   4208   4189   4209   4210     1  0.0000000  0.6973333  3
   4212   4213   4215   4219     1  0.0000000  0.6508444  3
   4212   4213   4233   4234     1  0.0000000  1.0460000  1
   4212   4213   4233   4234     1  0.0000000  0.6694400  3
   4212   4223   4228   4229     1  0.0000000  1.0460000  1
   4212   4223   4228   4229     1  0.0000000  0.6694400  3
   4212   4230   4217   4220     1  0.0000000  1.6038667  3
   4213   4212   4223   4226     1  0.0000000  0.6508444  3
   4213   4212   4223   4227     1  0.0000000  0.6508444  3
   4213   4215   4216   4218     1  0.0000000  0.6508444  3
   4213   4215   4222   4224     1  0.0000000  1.0460000  1
   4213   4215   4222   4224     1  0.0000000  0.6694400  3
   4214   4212   4213   4215     1  0.0000000  0.6508444  3
   4214   4212   4213   4233     1  0.0000000  1.0460000  1
   4214   4212   4213   4233     1  0.0000000  0.0000000  3
   4214   4212   4213   4232     1  0.0000000  0.6508444  3
   4214   4212   4223   4228     1  0.0000000  1.0460000  1
   4214   4212   4223   4228     1  0.0000000  0.0000000  3
   4214   4212   4223   4226     1  0.0000000  0.6508444  3
   4214   4212   4223   4227     1  0.0000000  0.6508444  3
   4214   4212   4230   4217     1  0.0000000  1.6038667  3
   4215   4213   4233   4234     1  0.0000000  1.0460000  1
   4215   4213   4233   4234     1  0.0000000  0.6694400  3
   4215   4216   4217   4220     1  0.0000000  0.6508444  3
   4215   4216   4235   4225     1  0.0000000  1.2552000  3
   4216   4215   4213   4232     1  0.0000000  0.6508444  3
   4216   4215   4222   4224     1  0.0000000  1.0460000  1
   4216   4215   4222   4224     1  0.0000000  0.6694400  3
   4216   4217   4221   4231     1  0.0000000  1.0460000  1
   4216   4217   4221   4231     1  0.0000000  0.6694400  3
   4217   4216   4215   4219     1  0.0000000  0.6508444  3
   4217   4216   4235   4225     1  0.0000000  1.2552000  3
   4218   4216   4215   4222     1  0.0000000  1.0460000  1
   4218   4216   4215   4222     1  0.0000000  0.0000000  3
   4218   4216   4215   4219     1  0.0000000  0.6508444  3
   4218   4216   4217   4221     1  0.0000000  1.0460000  1
   4218   4216   4217   4221     1  0.0000000  0.0000000  3
   4218   4216   4217   4230     1  0.0000000  1.0460000  1
   4218   4216   4217   4230     1  0.0000000  0.0000000  3
   4218   4216   4217   4220     1  0.0000000  0.6508444  3
   4218   4216   4235   4225     1  0.0000000  1.2552000  3
   4219   4215   4213   4233     1  0.0000000  1.0460000  1
   4219   4215   4213   4233     1  0.0000000  0.0000000  3
   4219   4215   4213   4232     1  0.0000000  0.6508444  3
   4219   4215   4216   4235     1  0.0000000  0.6508444  3
   4219   4215   4222   4224     1  0.0000000  0.6973333  3
   4220   4217   4216   4235     1  0.0000000  0.6508444  3
   4220   4217   4221   4231     1  0.0000000  0.6973333  3
   4222   4215   4213   4232     1  0.0000000  1.0460000  1
   4222   4215   4213   4232     1  0.0000000  0.0000000  3
   4223   4212   4213   4232     1  0.0000000  0.6508444  3
   4226   4223   4212   4230     1  0.0000000  1.0460000  1
   4226   4223   4212   4230     1  0.0000000  0.0000000  3
   4226   4223   4228   4229     1  0.0000000  0.6973333  3
   4227   4223   4212   4230     1  0.0000000  1.0460000  1
   4227   4223   4212   4230     1  0.0000000  0.0000000  3
   4227   4223   4228   4229     1  0.0000000  0.6973333  3
   4230   4212   4213   4232     1  0.0000000  1.0460000  1
   4230   4212   4213   4232     1  0.0000000  0.0000000  3
   4230   4217   4221   4231     1  0.0000000  0.6973333  3
   4232   4213   4233   4234     1  0.0000000  0.6973333  3
   4236   4238   4240   4242     1  0.0000000  0.6508444  3
   4236   4238   4240   4243     1  0.0000000  0.6508444  3
   4237   4236   4238   4240     1  0.0000000  0.0000000  2
   4237   4236   4238   4239     1  0.0000000  0.0000000  2
   4237   4236   4238   4241     1  0.0000000  0.0000000  2
   4239   4238   4240   4244     1  0.0000000  0.6508444  3
   4239   4238   4240   4242     1  0.0000000  0.6508444  3
   4239   4238   4240   4243     1  0.0000000  0.6508444  3
   4240   4244   4245   4254     1  0.0000000  1.2552000  3
   4240   4244   4245   4255     1  0.0000000  1.2552000  3
   4240   4244   4246   4247     1  0.0000000  1.2552000  3
   4240   4244   4246   4249     1  0.0000000  1.2552000  3
   4241   4238   4240   4244     1  0.0000000  0.6508444  3
   4241   4238   4240   4242     1  0.0000000  0.6508444  3
   4241   4238   4240   4243     1  0.0000000  0.6508444  3
   4242   4240   4244   4245     1  0.0000000  1.2552000  3
   4242   4240   4244   4246     1  0.0000000  1.2552000  3
   4243   4240   4244   4245     1  0.0000000  1.2552000  3
   4243   4240   4244   4246     1  0.0000000  1.2552000  3
   4244   4245   4256   4257     1  0.0000000  0.6508444  3
   4244   4245   4256   4258     1  0.0000000  0.6508444  3
   4244   4246   4248   4250     1  0.0000000  0.6508444  3
   4244   4246   4248   4251     1  0.0000000  0.6508444  3
   4245   4244   4246   4247     1  0.0000000  1.2552000  3
   4245   4244   4246   4249     1  0.0000000  1.2552000  3
   4246   4244   4245   4254     1  0.0000000  1.2552000  3
   4246   4244   4245   4255     1  0.0000000  1.2552000  3
   4247   4246   4248   4252     1  0.0000000  0.6508444  3
   4247   4246   4248   4250     1  0.0000000  0.6508444  3
   4247   4246   4248   4251     1  0.0000000  0.6508444  3
   4248   4252   4284   4274     1  180.0000771  6.0668000  2
   4248   4252   4284   4274     1  180.0000771  1.4644000  4
   4249   4246   4248   4252     1  0.0000000  0.6508444  3
   4249   4246   4248   4250     1  0.0000000  0.6508444  3
   4249   4246   4248   4251     1  0.0000000  0.6508444  3
   4250   4248   4252   4253     1  0.0000000  3.3472000  1
   4250   4248   4252   4253     1  0.0000000  0.0000000  2
   4250   4248   4252   4253     1  180.0000771  0.3347200  3
   4250   4248   4252   4284     1  180.0000771  0.0000000  2
   4251   4248   4252   4253     1  0.0000000  3.3472000  1
   4251   4248   4252   4253     1  0.0000000  0.0000000  2
   4251   4248   4252   4253     1  180.0000771  0.3347200  3
   4251   4248   4252   4284     1  180.0000771  0.0000000  2
   4252   4284   4265   4267     1  0.0000000  1.2552000  3
   4253   4252   4284   4274     1  180.0000771  6.0668000  2
   4253   4252   4284   4274     1  180.0000771  1.4644000  4
   4254   4245   4256   4259     1  0.0000000  0.6508444  3
   4254   4245   4256   4257     1  0.0000000  0.6508444  3
   4254   4245   4256   4258     1  0.0000000  0.6508444  3
   4255   4245   4256   4259     1  0.0000000  0.6508444  3
   4255   4245   4256   4257     1  0.0000000  0.6508444  3
   4255   4245   4256   4258     1  0.0000000  0.6508444  3
   4256   4259   4308   4298     1  180.0000771  6.0668000  2
   4256   4259   4308   4298     1  180.0000771  1.4644000  4
   4257   4256   4259   4260     1  0.0000000  3.3472000  1
   4257   4256   4259   4260     1  0.0000000  0.0000000  2
   4257   4256   4259   4260     1  180.0000771  0.3347200  3
   4257   4256   4259   4308     1  180.0000771  0.0000000  2
   4258   4256   4259   4260     1  0.0000000  3.3472000  1
   4258   4256   4259   4260     1  0.0000000  0.0000000  2
   4258   4256   4259   4260     1  180.0000771  0.3347200  3
   4258   4256   4259   4308     1  180.0000771  0.0000000  2
   4259   4308   4289   4291     1  0.0000000  1.2552000  3
   4260   4259   4308   4298     1  180.0000771  6.0668000  2
   4260   4259   4308   4298     1  180.0000771  1.4644000  4
   4261   4262   4264   4268     1  0.0000000  0.6508444  3
   4261   4262   4282   4283     1  0.0000000  1.0460000  1
   4261   4262   4282   4283     1  0.0000000  0.6694400  3
   4261   4272   4277   4278     1  0.0000000  1.0460000  1
   4261   4272   4277   4278     1  0.0000000  0.6694400  3
   4261   4279   4266   4269     1  0.0000000  1.6038667  3
   4262   4264   4265   4267     1  0.0000000  0.6508444  3
   4262   4264   4271   4273     1  0.0000000  1.0460000  1
   4262   4264   4271   4273     1  0.0000000  0.6694400  3
   4262   4261   4272   4275     1  0.0000000  0.6508444  3
   4262   4261   4272   4276     1  0.0000000  0.6508444  3
   4263   4261   4262   4264     1  0.0000000  0.6508444  3
   4263   4261   4262   4282     1  0.0000000  1.0460000  1
   4263   4261   4262   4282     1  0.0000000  0.0000000  3
   4263   4261   4262   4281     1  0.0000000  0.6508444  3
   4263   4261   4272   4277     1  0.0000000  1.0460000  1
   4263   4261   4272   4277     1  0.0000000  0.0000000  3
   4263   4261   4272   4275     1  0.0000000  0.6508444  3
   4263   4261   4272   4276     1  0.0000000  0.6508444  3
   4263   4261   4279   4266     1  0.0000000  1.6038667  3
   4264   4265   4266   4269     1  0.0000000  0.6508444  3
   4264   4265   4284   4274     1  0.0000000  1.2552000  3
   4264   4262   4282   4283     1  0.0000000  1.0460000  1
   4264   4262   4282   4283     1  0.0000000  0.6694400  3
   4265   4266   4270   4280     1  0.0000000  1.0460000  1
   4265   4266   4270   4280     1  0.0000000  0.6694400  3
   4265   4264   4271   4273     1  0.0000000  1.0460000  1
   4265   4264   4271   4273     1  0.0000000  0.6694400  3
   4265   4264   4262   4281     1  0.0000000  0.6508444  3
   4266   4265   4284   4274     1  0.0000000  1.2552000  3
   4266   4265   4264   4268     1  0.0000000  0.6508444  3
   4267   4265   4266   4270     1  0.0000000  1.0460000  1
   4267   4265   4266   4270     1  0.0000000  0.0000000  3
   4267   4265   4266   4279     1  0.0000000  1.0460000  1
   4267   4265   4266   4279     1  0.0000000  0.0000000  3
   4267   4265   4266   4269     1  0.0000000  0.6508444  3
   4267   4265   4284   4274     1  0.0000000  1.2552000  3
   4267   4265   4264   4271     1  0.0000000  1.0460000  1
   4267   4265   4264   4271     1  0.0000000  0.0000000  3
   4267   4265   4264   4268     1  0.0000000  0.6508444  3
   4268   4264   4265   4284     1  0.0000000  0.6508444  3
   4268   4264   4271   4273     1  0.0000000  0.6973333  3
   4268   4264   4262   4282     1  0.0000000  1.0460000  1
   4268   4264   4262   4282     1  0.0000000  0.0000000  3
   4268   4264   4262   4281     1  0.0000000  0.6508444  3
   4269   4266   4270   4280     1  0.0000000  0.6973333  3
   4269   4266   4265   4284     1  0.0000000  0.6508444  3
   4271   4264   4262   4281     1  0.0000000  1.0460000  1
   4271   4264   4262   4281     1  0.0000000  0.0000000  3
   4272   4261   4262   4281     1  0.0000000  0.6508444  3
   4275   4272   4277   4278     1  0.0000000  0.6973333  3
   4275   4272   4261   4279     1  0.0000000  1.0460000  1
   4275   4272   4261   4279     1  0.0000000  0.0000000  3
   4276   4272   4277   4278     1  0.0000000  0.6973333  3
   4276   4272   4261   4279     1  0.0000000  1.0460000  1
   4276   4272   4261   4279     1  0.0000000  0.0000000  3
   4279   4266   4270   4280     1  0.0000000  0.6973333  3
   4279   4261   4262   4281     1  0.0000000  1.0460000  1
   4279   4261   4262   4281     1  0.0000000  0.0000000  3
   4281   4262   4282   4283     1  0.0000000  0.6973333  3
   4285   4286   4288   4292     1  0.0000000  0.6508444  3
   4285   4286   4306   4307     1  0.0000000  1.0460000  1
   4285   4286   4306   4307     1  0.0000000  0.6694400  3
   4285   4296   4301   4302     1  0.0000000  1.0460000  1
   4285   4296   4301   4302     1  0.0000000  0.6694400  3
   4285   4303   4290   4293     1  0.0000000  1.6038667  3
   4286   4288   4289   4291     1  0.0000000  0.6508444  3
   4286   4288   4295   4297     1  0.0000000  1.0460000  1
   4286   4288   4295   4297     1  0.0000000  0.6694400  3
   4286   4285   4296   4299     1  0.0000000  0.6508444  3
   4286   4285   4296   4300     1  0.0000000  0.6508444  3
   4287   4285   4286   4288     1  0.0000000  0.6508444  3
   4287   4285   4286   4306     1  0.0000000  1.0460000  1
   4287   4285   4286   4306     1  0.0000000  0.0000000  3
   4287   4285   4286   4305     1  0.0000000  0.6508444  3
   4287   4285   4296   4301     1  0.0000000  1.0460000  1
   4287   4285   4296   4301     1  0.0000000  0.0000000  3
   4287   4285   4296   4299     1  0.0000000  0.6508444  3
   4287   4285   4296   4300     1  0.0000000  0.6508444  3
   4287   4285   4303   4290     1  0.0000000  1.6038667  3
   4288   4289   4290   4293     1  0.0000000  0.6508444  3
   4288   4289   4308   4298     1  0.0000000  1.2552000  3
   4288   4286   4306   4307     1  0.0000000  1.0460000  1
   4288   4286   4306   4307     1  0.0000000  0.6694400  3
   4289   4290   4294   4304     1  0.0000000  1.0460000  1
   4289   4290   4294   4304     1  0.0000000  0.6694400  3
   4289   4288   4295   4297     1  0.0000000  1.0460000  1
   4289   4288   4295   4297     1  0.0000000  0.6694400  3
   4289   4288   4286   4305     1  0.0000000  0.6508444  3
   4290   4289   4308   4298     1  0.0000000  1.2552000  3
   4290   4289   4288   4292     1  0.0000000  0.6508444  3
   4291   4289   4290   4294     1  0.0000000  1.0460000  1
   4291   4289   4290   4294     1  0.0000000  0.0000000  3
   4291   4289   4290   4303     1  0.0000000  1.0460000  1
   4291   4289   4290   4303     1  0.0000000  0.0000000  3
   4291   4289   4290   4293     1  0.0000000  0.6508444  3
   4291   4289   4308   4298     1  0.0000000  1.2552000  3
   4291   4289   4288   4295     1  0.0000000  1.0460000  1
   4291   4289   4288   4295     1  0.0000000  0.0000000  3
   4291   4289   4288   4292     1  0.0000000  0.6508444  3
   4292   4288   4289   4308     1  0.0000000  0.6508444  3
   4292   4288   4295   4297     1  0.0000000  0.6973333  3
   4292   4288   4286   4306     1  0.0000000  1.0460000  1
   4292   4288   4286   4306     1  0.0000000  0.0000000  3
   4292   4288   4286   4305     1  0.0000000  0.6508444  3
   4293   4290   4294   4304     1  0.0000000  0.6973333  3
   4293   4290   4289   4308     1  0.0000000  0.6508444  3
   4295   4288   4286   4305     1  0.0000000  1.0460000  1
   4295   4288   4286   4305     1  0.0000000  0.0000000  3
   4296   4285   4286   4305     1  0.0000000  0.6508444  3
   4299   4296   4301   4302     1  0.0000000  0.6973333  3
   4299   4296   4285   4303     1  0.0000000  1.0460000  1
   4299   4296   4285   4303     1  0.0000000  0.0000000  3
   4300   4296   4301   4302     1  0.0000000  0.6973333  3
   4300   4296   4285   4303     1  0.0000000  1.0460000  1
   4300   4296   4285   4303     1  0.0000000  0.0000000  3
   4303   4290   4294   4304     1  0.0000000  0.6973333  3
   4303   4285   4286   4305     1  0.0000000  1.0460000  1
   4303   4285   4286   4305     1  0.0000000  0.0000000  3
   4305   4286   4306   4307     1  0.0000000  0.6973333  3
   4309   4311   4313   4315     1  0.0000000  0.6508444  3
   4309   4311   4313   4316     1  0.0000000  0.6508444  3
   4310   4309   4311   4313     1  0.0000000  0.0000000  2
   4310   4309   4311   4312     1  0.0000000  0.0000000  2
   4310   4309   4311   4314     1  0.0000000  0.0000000  2
   4312   4311   4313   4317     1  0.0000000  0.6508444  3
   4312   4311   4313   4315     1  0.0000000  0.6508444  3
   4312   4311   4313   4316     1  0.0000000  0.6508444  3
   4313   4317   4318   4327     1  0.0000000  1.2552000  3
   4313   4317   4318   4328     1  0.0000000  1.2552000  3
   4313   4317   4319   4320     1  0.0000000  1.2552000  3
   4313   4317   4319   4322     1  0.0000000  1.2552000  3
   4314   4311   4313   4317     1  0.0000000  0.6508444  3
   4314   4311   4313   4315     1  0.0000000  0.6508444  3
   4314   4311   4313   4316     1  0.0000000  0.6508444  3
   4315   4313   4317   4318     1  0.0000000  1.2552000  3
   4315   4313   4317   4319     1  0.0000000  1.2552000  3
   4316   4313   4317   4318     1  0.0000000  1.2552000  3
   4316   4313   4317   4319     1  0.0000000  1.2552000  3
   4317   4318   4329   4330     1  0.0000000  0.6508444  3
   4317   4318   4329   4331     1  0.0000000  0.6508444  3
   4317   4319   4321   4323     1  0.0000000  0.6508444  3
   4317   4319   4321   4324     1  0.0000000  0.6508444  3
   4318   4317   4319   4320     1  0.0000000  1.2552000  3
   4318   4317   4319   4322     1  0.0000000  1.2552000  3
   4319   4317   4318   4327     1  0.0000000  1.2552000  3
   4319   4317   4318   4328     1  0.0000000  1.2552000  3
   4320   4319   4321   4325     1  0.0000000  0.6508444  3
   4320   4319   4321   4323     1  0.0000000  0.6508444  3
   4320   4319   4321   4324     1  0.0000000  0.6508444  3
   4321   4325   4357   4347     1  180.0000771  6.0668000  2
   4321   4325   4357   4347     1  180.0000771  1.4644000  4
   4322   4319   4321   4325     1  0.0000000  0.6508444  3
   4322   4319   4321   4323     1  0.0000000  0.6508444  3
   4322   4319   4321   4324     1  0.0000000  0.6508444  3
   4323   4321   4325   4326     1  0.0000000  3.3472000  1
   4323   4321   4325   4326     1  0.0000000  0.0000000  2
   4323   4321   4325   4326     1  180.0000771  0.3347200  3
   4323   4321   4325   4357     1  180.0000771  0.0000000  2
   4324   4321   4325   4326     1  0.0000000  3.3472000  1
   4324   4321   4325   4326     1  0.0000000  0.0000000  2
   4324   4321   4325   4326     1  180.0000771  0.3347200  3
   4324   4321   4325   4357     1  180.0000771  0.0000000  2
   4325   4357   4338   4340     1  0.0000000  1.2552000  3
   4326   4325   4357   4347     1  180.0000771  6.0668000  2
   4326   4325   4357   4347     1  180.0000771  1.4644000  4
   4327   4318   4329   4332     1  0.0000000  0.6508444  3
   4327   4318   4329   4330     1  0.0000000  0.6508444  3
   4327   4318   4329   4331     1  0.0000000  0.6508444  3
   4328   4318   4329   4332     1  0.0000000  0.6508444  3
   4328   4318   4329   4330     1  0.0000000  0.6508444  3
   4328   4318   4329   4331     1  0.0000000  0.6508444  3
   4329   4332   4381   4371     1  180.0000771  6.0668000  2
   4329   4332   4381   4371     1  180.0000771  1.4644000  4
   4330   4329   4332   4333     1  0.0000000  3.3472000  1
   4330   4329   4332   4333     1  0.0000000  0.0000000  2
   4330   4329   4332   4333     1  180.0000771  0.3347200  3
   4330   4329   4332   4381     1  180.0000771  0.0000000  2
   4331   4329   4332   4333     1  0.0000000  3.3472000  1
   4331   4329   4332   4333     1  0.0000000  0.0000000  2
   4331   4329   4332   4333     1  180.0000771  0.3347200  3
   4331   4329   4332   4381     1  180.0000771  0.0000000  2
   4332   4381   4362   4364     1  0.0000000  1.2552000  3
   4333   4332   4381   4371     1  180.0000771  6.0668000  2
   4333   4332   4381   4371     1  180.0000771  1.4644000  4
   4334   4335   4337   4341     1  0.0000000  0.6508444  3
   4334   4335   4355   4356     1  0.0000000  1.0460000  1
   4334   4335   4355   4356     1  0.0000000  0.6694400  3
   4334   4345   4350   4351     1  0.0000000  1.0460000  1
   4334   4345   4350   4351     1  0.0000000  0.6694400  3
   4334   4352   4339   4342     1  0.0000000  1.6038667  3
   4335   4334   4345   4348     1  0.0000000  0.6508444  3
   4335   4334   4345   4349     1  0.0000000  0.6508444  3
   4335   4337   4338   4340     1  0.0000000  0.6508444  3
   4335   4337   4344   4346     1  0.0000000  1.0460000  1
   4335   4337   4344   4346     1  0.0000000  0.6694400  3
   4336   4334   4335   4337     1  0.0000000  0.6508444  3
   4336   4334   4335   4355     1  0.0000000  1.0460000  1
   4336   4334   4335   4355     1  0.0000000  0.0000000  3
   4336   4334   4335   4354     1  0.0000000  0.6508444  3
   4336   4334   4345   4350     1  0.0000000  1.0460000  1
   4336   4334   4345   4350     1  0.0000000  0.0000000  3
   4336   4334   4345   4348     1  0.0000000  0.6508444  3
   4336   4334   4345   4349     1  0.0000000  0.6508444  3
   4336   4334   4352   4339     1  0.0000000  1.6038667  3
   4337   4335   4355   4356     1  0.0000000  1.0460000  1
   4337   4335   4355   4356     1  0.0000000  0.6694400  3
   4337   4338   4339   4342     1  0.0000000  0.6508444  3
   4337   4338   4357   4347     1  0.0000000  1.2552000  3
   4338   4337   4335   4354     1  0.0000000  0.6508444  3
   4338   4337   4344   4346     1  0.0000000  1.0460000  1
   4338   4337   4344   4346     1  0.0000000  0.6694400  3
   4338   4339   4343   4353     1  0.0000000  1.0460000  1
   4338   4339   4343   4353     1  0.0000000  0.6694400  3
   4339   4338   4337   4341     1  0.0000000  0.6508444  3
   4339   4338   4357   4347     1  0.0000000  1.2552000  3
   4340   4338   4337   4344     1  0.0000000  1.0460000  1
   4340   4338   4337   4344     1  0.0000000  0.0000000  3
   4340   4338   4337   4341     1  0.0000000  0.6508444  3
   4340   4338   4339   4343     1  0.0000000  1.0460000  1
   4340   4338   4339   4343     1  0.0000000  0.0000000  3
   4340   4338   4339   4352     1  0.0000000  1.0460000  1
   4340   4338   4339   4352     1  0.0000000  0.0000000  3
   4340   4338   4339   4342     1  0.0000000  0.6508444  3
   4340   4338   4357   4347     1  0.0000000  1.2552000  3
   4341   4337   4335   4355     1  0.0000000  1.0460000  1
   4341   4337   4335   4355     1  0.0000000  0.0000000  3
   4341   4337   4335   4354     1  0.0000000  0.6508444  3
   4341   4337   4338   4357     1  0.0000000  0.6508444  3
   4341   4337   4344   4346     1  0.0000000  0.6973333  3
   4342   4339   4338   4357     1  0.0000000  0.6508444  3
   4342   4339   4343   4353     1  0.0000000  0.6973333  3
   4344   4337   4335   4354     1  0.0000000  1.0460000  1
   4344   4337   4335   4354     1  0.0000000  0.0000000  3
   4345   4334   4335   4354     1  0.0000000  0.6508444  3
   4348   4345   4334   4352     1  0.0000000  1.0460000  1
   4348   4345   4334   4352     1  0.0000000  0.0000000  3
   4348   4345   4350   4351     1  0.0000000  0.6973333  3
   4349   4345   4334   4352     1  0.0000000  1.0460000  1
   4349   4345   4334   4352     1  0.0000000  0.0000000  3
   4349   4345   4350   4351     1  0.0000000  0.6973333  3
   4352   4334   4335   4354     1  0.0000000  1.0460000  1
   4352   4334   4335   4354     1  0.0000000  0.0000000  3
   4352   4339   4343   4353     1  0.0000000  0.6973333  3
   4354   4335   4355   4356     1  0.0000000  0.6973333  3
   4358   4359   4361   4365     1  0.0000000  0.6508444  3
   4358   4359   4379   4380     1  0.0000000  1.0460000  1
   4358   4359   4379   4380     1  0.0000000  0.6694400  3
   4358   4369   4374   4375     1  0.0000000  1.0460000  1
   4358   4369   4374   4375     1  0.0000000  0.6694400  3
   4358   4376   4363   4366     1  0.0000000  1.6038667  3
   4359   4358   4369   4372     1  0.0000000  0.6508444  3
   4359   4358   4369   4373     1  0.0000000  0.6508444  3
   4359   4361   4362   4364     1  0.0000000  0.6508444  3
   4359   4361   4368   4370     1  0.0000000  1.0460000  1
   4359   4361   4368   4370     1  0.0000000  0.6694400  3
   4360   4358   4359   4361     1  0.0000000  0.6508444  3
   4360   4358   4359   4379     1  0.0000000  1.0460000  1
   4360   4358   4359   4379     1  0.0000000  0.0000000  3
   4360   4358   4359   4378     1  0.0000000  0.6508444  3
   4360   4358   4369   4374     1  0.0000000  1.0460000  1
   4360   4358   4369   4374     1  0.0000000  0.0000000  3
   4360   4358   4369   4372     1  0.0000000  0.6508444  3
   4360   4358   4369   4373     1  0.0000000  0.6508444  3
   4360   4358   4376   4363     1  0.0000000  1.6038667  3
   4361   4359   4379   4380     1  0.0000000  1.0460000  1
   4361   4359   4379   4380     1  0.0000000  0.6694400  3
   4361   4362   4363   4366     1  0.0000000  0.6508444  3
   4361   4362   4381   4371     1  0.0000000  1.2552000  3
   4362   4361   4359   4378     1  0.0000000  0.6508444  3
   4362   4361   4368   4370     1  0.0000000  1.0460000  1
   4362   4361   4368   4370     1  0.0000000  0.6694400  3
   4362   4363   4367   4377     1  0.0000000  1.0460000  1
   4362   4363   4367   4377     1  0.0000000  0.6694400  3
   4363   4362   4361   4365     1  0.0000000  0.6508444  3
   4363   4362   4381   4371     1  0.0000000  1.2552000  3
   4364   4362   4361   4368     1  0.0000000  1.0460000  1
   4364   4362   4361   4368     1  0.0000000  0.0000000  3
   4364   4362   4361   4365     1  0.0000000  0.6508444  3
   4364   4362   4363   4367     1  0.0000000  1.0460000  1
   4364   4362   4363   4367     1  0.0000000  0.0000000  3
   4364   4362   4363   4376     1  0.0000000  1.0460000  1
   4364   4362   4363   4376     1  0.0000000  0.0000000  3
   4364   4362   4363   4366     1  0.0000000  0.6508444  3
   4364   4362   4381   4371     1  0.0000000  1.2552000  3
   4365   4361   4359   4379     1  0.0000000  1.0460000  1
   4365   4361   4359   4379     1  0.0000000  0.0000000  3
   4365   4361   4359   4378     1  0.0000000  0.6508444  3
   4365   4361   4362   4381     1  0.0000000  0.6508444  3
   4365   4361   4368   4370     1  0.0000000  0.6973333  3
   4366   4363   4362   4381     1  0.0000000  0.6508444  3
   4366   4363   4367   4377     1  0.0000000  0.6973333  3
   4368   4361   4359   4378     1  0.0000000  1.0460000  1
   4368   4361   4359   4378     1  0.0000000  0.0000000  3
   4369   4358   4359   4378     1  0.0000000  0.6508444  3
   4372   4369   4358   4376     1  0.0000000  1.0460000  1
   4372   4369   4358   4376     1  0.0000000  0.0000000  3
   4372   4369   4374   4375     1  0.0000000  0.6973333  3
   4373   4369   4358   4376     1  0.0000000  1.0460000  1
   4373   4369   4358   4376     1  0.0000000  0.0000000  3
   4373   4369   4374   4375     1  0.0000000  0.6973333  3
   4376   4358   4359   4378     1  0.0000000  1.0460000  1
   4376   4358   4359   4378     1  0.0000000  0.0000000  3
   4376   4363   4367   4377     1  0.0000000  0.6973333  3
   4378   4359   4379   4380     1  0.0000000  0.6973333  3
   4382   4384   4386   4388     1  0.0000000  0.6508444  3
   4382   4384   4386   4389     1  0.0000000  0.6508444  3
   4383   4382   4384   4386     1  0.0000000  0.0000000  2
   4383   4382   4384   4385     1  0.0000000  0.0000000  2
   4383   4382   4384   4387     1  0.0000000  0.0000000  2
   4385   4384   4386   4390     1  0.0000000  0.6508444  3
   4385   4384   4386   4388     1  0.0000000  0.6508444  3
   4385   4384   4386   4389     1  0.0000000  0.6508444  3
   4386   4390   4391   4400     1  0.0000000  1.2552000  3
   4386   4390   4391   4401     1  0.0000000  1.2552000  3
   4386   4390   4392   4393     1  0.0000000  1.2552000  3
   4386   4390   4392   4395     1  0.0000000  1.2552000  3
   4387   4384   4386   4390     1  0.0000000  0.6508444  3
   4387   4384   4386   4388     1  0.0000000  0.6508444  3
   4387   4384   4386   4389     1  0.0000000  0.6508444  3
   4388   4386   4390   4391     1  0.0000000  1.2552000  3
   4388   4386   4390   4392     1  0.0000000  1.2552000  3
   4389   4386   4390   4391     1  0.0000000  1.2552000  3
   4389   4386   4390   4392     1  0.0000000  1.2552000  3
   4390   4391   4402   4403     1  0.0000000  0.6508444  3
   4390   4391   4402   4404     1  0.0000000  0.6508444  3
   4390   4392   4394   4396     1  0.0000000  0.6508444  3
   4390   4392   4394   4397     1  0.0000000  0.6508444  3
   4391   4390   4392   4393     1  0.0000000  1.2552000  3
   4391   4390   4392   4395     1  0.0000000  1.2552000  3
   4392   4390   4391   4400     1  0.0000000  1.2552000  3
   4392   4390   4391   4401     1  0.0000000  1.2552000  3
   4393   4392   4394   4398     1  0.0000000  0.6508444  3
   4393   4392   4394   4396     1  0.0000000  0.6508444  3
   4393   4392   4394   4397     1  0.0000000  0.6508444  3
   4394   4398   4430   4420     1  180.0000771  6.0668000  2
   4394   4398   4430   4420     1  180.0000771  1.4644000  4
   4395   4392   4394   4398     1  0.0000000  0.6508444  3
   4395   4392   4394   4396     1  0.0000000  0.6508444  3
   4395   4392   4394   4397     1  0.0000000  0.6508444  3
   4396   4394   4398   4399     1  0.0000000  3.3472000  1
   4396   4394   4398   4399     1  0.0000000  0.0000000  2
   4396   4394   4398   4399     1  180.0000771  0.3347200  3
   4396   4394   4398   4430     1  180.0000771  0.0000000  2
   4397   4394   4398   4399     1  0.0000000  3.3472000  1
   4397   4394   4398   4399     1  0.0000000  0.0000000  2
   4397   4394   4398   4399     1  180.0000771  0.3347200  3
   4397   4394   4398   4430     1  180.0000771  0.0000000  2
   4398   4430   4411   4413     1  0.0000000  1.2552000  3
   4399   4398   4430   4420     1  180.0000771  6.0668000  2
   4399   4398   4430   4420     1  180.0000771  1.4644000  4
   4400   4391   4402   4405     1  0.0000000  0.6508444  3
   4400   4391   4402   4403     1  0.0000000  0.6508444  3
   4400   4391   4402   4404     1  0.0000000  0.6508444  3
   4401   4391   4402   4405     1  0.0000000  0.6508444  3
   4401   4391   4402   4403     1  0.0000000  0.6508444  3
   4401   4391   4402   4404     1  0.0000000  0.6508444  3
   4402   4405   4454   4444     1  180.0000771  6.0668000  2
   4402   4405   4454   4444     1  180.0000771  1.4644000  4
   4403   4402   4405   4406     1  0.0000000  3.3472000  1
   4403   4402   4405   4406     1  0.0000000  0.0000000  2
   4403   4402   4405   4406     1  180.0000771  0.3347200  3
   4403   4402   4405   4454     1  180.0000771  0.0000000  2
   4404   4402   4405   4406     1  0.0000000  3.3472000  1
   4404   4402   4405   4406     1  0.0000000  0.0000000  2
   4404   4402   4405   4406     1  180.0000771  0.3347200  3
   4404   4402   4405   4454     1  180.0000771  0.0000000  2
   4405   4454   4435   4437     1  0.0000000  1.2552000  3
   4406   4405   4454   4444     1  180.0000771  6.0668000  2
   4406   4405   4454   4444     1  180.0000771  1.4644000  4
   4407   4408   4410   4414     1  0.0000000  0.6508444  3
   4407   4408   4428   4429     1  0.0000000  1.0460000  1
   4407   4408   4428   4429     1  0.0000000  0.6694400  3
   4407   4418   4423   4424     1  0.0000000  1.0460000  1
   4407   4418   4423   4424     1  0.0000000  0.6694400  3
   4407   4425   4412   4415     1  0.0000000  1.6038667  3
   4408   4410   4411   4413     1  0.0000000  0.6508444  3
   4408   4410   4417   4419     1  0.0000000  1.0460000  1
   4408   4410   4417   4419     1  0.0000000  0.6694400  3
   4408   4407   4418   4421     1  0.0000000  0.6508444  3
   4408   4407   4418   4422     1  0.0000000  0.6508444  3
   4409   4407   4408   4410     1  0.0000000  0.6508444  3
   4409   4407   4408   4428     1  0.0000000  1.0460000  1
   4409   4407   4408   4428     1  0.0000000  0.0000000  3
   4409   4407   4408   4427     1  0.0000000  0.6508444  3
   4409   4407   4418   4423     1  0.0000000  1.0460000  1
   4409   4407   4418   4423     1  0.0000000  0.0000000  3
   4409   4407   4418   4421     1  0.0000000  0.6508444  3
   4409   4407   4418   4422     1  0.0000000  0.6508444  3
   4409   4407   4425   4412     1  0.0000000  1.6038667  3
   4410   4411   4412   4415     1  0.0000000  0.6508444  3
   4410   4411   4430   4420     1  0.0000000  1.2552000  3
   4410   4408   4428   4429     1  0.0000000  1.0460000  1
   4410   4408   4428   4429     1  0.0000000  0.6694400  3
   4411   4412   4416   4426     1  0.0000000  1.0460000  1
   4411   4412   4416   4426     1  0.0000000  0.6694400  3
   4411   4410   4417   4419     1  0.0000000  1.0460000  1
   4411   4410   4417   4419     1  0.0000000  0.6694400  3
   4411   4410   4408   4427     1  0.0000000  0.6508444  3
   4412   4411   4430   4420     1  0.0000000  1.2552000  3
   4412   4411   4410   4414     1  0.0000000  0.6508444  3
   4413   4411   4412   4416     1  0.0000000  1.0460000  1
   4413   4411   4412   4416     1  0.0000000  0.0000000  3
   4413   4411   4412   4425     1  0.0000000  1.0460000  1
   4413   4411   4412   4425     1  0.0000000  0.0000000  3
   4413   4411   4412   4415     1  0.0000000  0.6508444  3
   4413   4411   4430   4420     1  0.0000000  1.2552000  3
   4413   4411   4410   4417     1  0.0000000  1.0460000  1
   4413   4411   4410   4417     1  0.0000000  0.0000000  3
   4413   4411   4410   4414     1  0.0000000  0.6508444  3
   4414   4410   4411   4430     1  0.0000000  0.6508444  3
   4414   4410   4417   4419     1  0.0000000  0.6973333  3
   4414   4410   4408   4428     1  0.0000000  1.0460000  1
   4414   4410   4408   4428     1  0.0000000  0.0000000  3
   4414   4410   4408   4427     1  0.0000000  0.6508444  3
   4415   4412   4416   4426     1  0.0000000  0.6973333  3
   4415   4412   4411   4430     1  0.0000000  0.6508444  3
   4417   4410   4408   4427     1  0.0000000  1.0460000  1
   4417   4410   4408   4427     1  0.0000000  0.0000000  3
   4418   4407   4408   4427     1  0.0000000  0.6508444  3
   4421   4418   4423   4424     1  0.0000000  0.6973333  3
   4421   4418   4407   4425     1  0.0000000  1.0460000  1
   4421   4418   4407   4425     1  0.0000000  0.0000000  3
   4422   4418   4423   4424     1  0.0000000  0.6973333  3
   4422   4418   4407   4425     1  0.0000000  1.0460000  1
   4422   4418   4407   4425     1  0.0000000  0.0000000  3
   4425   4412   4416   4426     1  0.0000000  0.6973333  3
   4425   4407   4408   4427     1  0.0000000  1.0460000  1
   4425   4407   4408   4427     1  0.0000000  0.0000000  3
   4427   4408   4428   4429     1  0.0000000  0.6973333  3
   4431   4432   4434   4438     1  0.0000000  0.6508444  3
   4431   4432   4452   4453     1  0.0000000  1.0460000  1
   4431   4432   4452   4453     1  0.0000000  0.6694400  3
   4431   4442   4447   4448     1  0.0000000  1.0460000  1
   4431   4442   4447   4448     1  0.0000000  0.6694400  3
   4431   4449   4436   4439     1  0.0000000  1.6038667  3
   4432   4434   4435   4437     1  0.0000000  0.6508444  3
   4432   4434   4441   4443     1  0.0000000  1.0460000  1
   4432   4434   4441   4443     1  0.0000000  0.6694400  3
   4432   4431   4442   4445     1  0.0000000  0.6508444  3
   4432   4431   4442   4446     1  0.0000000  0.6508444  3
   4433   4431   4432   4434     1  0.0000000  0.6508444  3
   4433   4431   4432   4452     1  0.0000000  1.0460000  1
   4433   4431   4432   4452     1  0.0000000  0.0000000  3
   4433   4431   4432   4451     1  0.0000000  0.6508444  3
   4433   4431   4442   4447     1  0.0000000  1.0460000  1
   4433   4431   4442   4447     1  0.0000000  0.0000000  3
   4433   4431   4442   4445     1  0.0000000  0.6508444  3
   4433   4431   4442   4446     1  0.0000000  0.6508444  3
   4433   4431   4449   4436     1  0.0000000  1.6038667  3
   4434   4435   4436   4439     1  0.0000000  0.6508444  3
   4434   4435   4454   4444     1  0.0000000  1.2552000  3
   4434   4432   4452   4453     1  0.0000000  1.0460000  1
   4434   4432   4452   4453     1  0.0000000  0.6694400  3
   4435   4436   4440   4450     1  0.0000000  1.0460000  1
   4435   4436   4440   4450     1  0.0000000  0.6694400  3
   4435   4434   4441   4443     1  0.0000000  1.0460000  1
   4435   4434   4441   4443     1  0.0000000  0.6694400  3
   4435   4434   4432   4451     1  0.0000000  0.6508444  3
   4436   4435   4454   4444     1  0.0000000  1.2552000  3
   4436   4435   4434   4438     1  0.0000000  0.6508444  3
   4437   4435   4436   4440     1  0.0000000  1.0460000  1
   4437   4435   4436   4440     1  0.0000000  0.0000000  3
   4437   4435   4436   4449     1  0.0000000  1.0460000  1
   4437   4435   4436   4449     1  0.0000000  0.0000000  3
   4437   4435   4436   4439     1  0.0000000  0.6508444  3
   4437   4435   4454   4444     1  0.0000000  1.2552000  3
   4437   4435   4434   4441     1  0.0000000  1.0460000  1
   4437   4435   4434   4441     1  0.0000000  0.0000000  3
   4437   4435   4434   4438     1  0.0000000  0.6508444  3
   4438   4434   4435   4454     1  0.0000000  0.6508444  3
   4438   4434   4441   4443     1  0.0000000  0.6973333  3
   4438   4434   4432   4452     1  0.0000000  1.0460000  1
   4438   4434   4432   4452     1  0.0000000  0.0000000  3
   4438   4434   4432   4451     1  0.0000000  0.6508444  3
   4439   4436   4440   4450     1  0.0000000  0.6973333  3
   4439   4436   4435   4454     1  0.0000000  0.6508444  3
   4441   4434   4432   4451     1  0.0000000  1.0460000  1
   4441   4434   4432   4451     1  0.0000000  0.0000000  3
   4442   4431   4432   4451     1  0.0000000  0.6508444  3
   4445   4442   4447   4448     1  0.0000000  0.6973333  3
   4445   4442   4431   4449     1  0.0000000  1.0460000  1
   4445   4442   4431   4449     1  0.0000000  0.0000000  3
   4446   4442   4447   4448     1  0.0000000  0.6973333  3
   4446   4442   4431   4449     1  0.0000000  1.0460000  1
   4446   4442   4431   4449     1  0.0000000  0.0000000  3
   4449   4436   4440   4450     1  0.0000000  0.6973333  3
   4449   4431   4432   4451     1  0.0000000  1.0460000  1
   4449   4431   4432   4451     1  0.0000000  0.0000000  3
   4451   4432   4452   4453     1  0.0000000  0.6973333  3
   4455   4457   4459   4461     1  0.0000000  0.6508444  3
   4455   4457   4459   4462     1  0.0000000  0.6508444  3
   4456   4455   4457   4459     1  0.0000000  0.0000000  2
   4456   4455   4457   4458     1  0.0000000  0.0000000  2
   4456   4455   4457   4460     1  0.0000000  0.0000000  2
   4458   4457   4459   4463     1  0.0000000  0.6508444  3
   4458   4457   4459   4461     1  0.0000000  0.6508444  3
   4458   4457   4459   4462     1  0.0000000  0.6508444  3
   4459   4463   4464   4473     1  0.0000000  1.2552000  3
   4459   4463   4464   4474     1  0.0000000  1.2552000  3
   4459   4463   4465   4466     1  0.0000000  1.2552000  3
   4459   4463   4465   4468     1  0.0000000  1.2552000  3
   4460   4457   4459   4463     1  0.0000000  0.6508444  3
   4460   4457   4459   4461     1  0.0000000  0.6508444  3
   4460   4457   4459   4462     1  0.0000000  0.6508444  3
   4461   4459   4463   4464     1  0.0000000  1.2552000  3
   4461   4459   4463   4465     1  0.0000000  1.2552000  3
   4462   4459   4463   4464     1  0.0000000  1.2552000  3
   4462   4459   4463   4465     1  0.0000000  1.2552000  3
   4463   4464   4475   4476     1  0.0000000  0.6508444  3
   4463   4464   4475   4477     1  0.0000000  0.6508444  3
   4463   4465   4467   4469     1  0.0000000  0.6508444  3
   4463   4465   4467   4470     1  0.0000000  0.6508444  3
   4464   4463   4465   4466     1  0.0000000  1.2552000  3
   4464   4463   4465   4468     1  0.0000000  1.2552000  3
   4465   4463   4464   4473     1  0.0000000  1.2552000  3
   4465   4463   4464   4474     1  0.0000000  1.2552000  3
   4466   4465   4467   4471     1  0.0000000  0.6508444  3
   4466   4465   4467   4469     1  0.0000000  0.6508444  3
   4466   4465   4467   4470     1  0.0000000  0.6508444  3
   4467   4471   4503   4493     1  180.0000771  6.0668000  2
   4467   4471   4503   4493     1  180.0000771  1.4644000  4
   4468   4465   4467   4471     1  0.0000000  0.6508444  3
   4468   4465   4467   4469     1  0.0000000  0.6508444  3
   4468   4465   4467   4470     1  0.0000000  0.6508444  3
   4469   4467   4471   4472     1  0.0000000  3.3472000  1
   4469   4467   4471   4472     1  0.0000000  0.0000000  2
   4469   4467   4471   4472     1  180.0000771  0.3347200  3
   4469   4467   4471   4503     1  180.0000771  0.0000000  2
   4470   4467   4471   4472     1  0.0000000  3.3472000  1
   4470   4467   4471   4472     1  0.0000000  0.0000000  2
   4470   4467   4471   4472     1  180.0000771  0.3347200  3
   4470   4467   4471   4503     1  180.0000771  0.0000000  2
   4471   4503   4484   4486     1  0.0000000  1.2552000  3
   4472   4471   4503   4493     1  180.0000771  6.0668000  2
   4472   4471   4503   4493     1  180.0000771  1.4644000  4
   4473   4464   4475   4478     1  0.0000000  0.6508444  3
   4473   4464   4475   4476     1  0.0000000  0.6508444  3
   4473   4464   4475   4477     1  0.0000000  0.6508444  3
   4474   4464   4475   4478     1  0.0000000  0.6508444  3
   4474   4464   4475   4476     1  0.0000000  0.6508444  3
   4474   4464   4475   4477     1  0.0000000  0.6508444  3
   4475   4478   4527   4517     1  180.0000771  6.0668000  2
   4475   4478   4527   4517     1  180.0000771  1.4644000  4
   4476   4475   4478   4479     1  0.0000000  3.3472000  1
   4476   4475   4478   4479     1  0.0000000  0.0000000  2
   4476   4475   4478   4479     1  180.0000771  0.3347200  3
   4476   4475   4478   4527     1  180.0000771  0.0000000  2
   4477   4475   4478   4479     1  0.0000000  3.3472000  1
   4477   4475   4478   4479     1  0.0000000  0.0000000  2
   4477   4475   4478   4479     1  180.0000771  0.3347200  3
   4477   4475   4478   4527     1  180.0000771  0.0000000  2
   4478   4527   4508   4510     1  0.0000000  1.2552000  3
   4479   4478   4527   4517     1  180.0000771  6.0668000  2
   4479   4478   4527   4517     1  180.0000771  1.4644000  4
   4480   4481   4483   4487     1  0.0000000  0.6508444  3
   4480   4481   4501   4502     1  0.0000000  1.0460000  1
   4480   4481   4501   4502     1  0.0000000  0.6694400  3
   4480   4491   4496   4497     1  0.0000000  1.0460000  1
   4480   4491   4496   4497     1  0.0000000  0.6694400  3
   4480   4498   4485   4488     1  0.0000000  1.6038667  3
   4481   4480   4491   4494     1  0.0000000  0.6508444  3
   4481   4480   4491   4495     1  0.0000000  0.6508444  3
   4481   4483   4484   4486     1  0.0000000  0.6508444  3
   4481   4483   4490   4492     1  0.0000000  1.0460000  1
   4481   4483   4490   4492     1  0.0000000  0.6694400  3
   4482   4480   4481   4483     1  0.0000000  0.6508444  3
   4482   4480   4481   4501     1  0.0000000  1.0460000  1
   4482   4480   4481   4501     1  0.0000000  0.0000000  3
   4482   4480   4481   4500     1  0.0000000  0.6508444  3
   4482   4480   4491   4496     1  0.0000000  1.0460000  1
   4482   4480   4491   4496     1  0.0000000  0.0000000  3
   4482   4480   4491   4494     1  0.0000000  0.6508444  3
   4482   4480   4491   4495     1  0.0000000  0.6508444  3
   4482   4480   4498   4485     1  0.0000000  1.6038667  3
   4483   4481   4501   4502     1  0.0000000  1.0460000  1
   4483   4481   4501   4502     1  0.0000000  0.6694400  3
   4483   4484   4485   4488     1  0.0000000  0.6508444  3
   4483   4484   4503   4493     1  0.0000000  1.2552000  3
   4484   4483   4481   4500     1  0.0000000  0.6508444  3
   4484   4483   4490   4492     1  0.0000000  1.0460000  1
   4484   4483   4490   4492     1  0.0000000  0.6694400  3
   4484   4485   4489   4499     1  0.0000000  1.0460000  1
   4484   4485   4489   4499     1  0.0000000  0.6694400  3
   4485   4484   4483   4487     1  0.0000000  0.6508444  3
   4485   4484   4503   4493     1  0.0000000  1.2552000  3
   4486   4484   4483   4490     1  0.0000000  1.0460000  1
   4486   4484   4483   4490     1  0.0000000  0.0000000  3
   4486   4484   4483   4487     1  0.0000000  0.6508444  3
   4486   4484   4485   4489     1  0.0000000  1.0460000  1
   4486   4484   4485   4489     1  0.0000000  0.0000000  3
   4486   4484   4485   4498     1  0.0000000  1.0460000  1
   4486   4484   4485   4498     1  0.0000000  0.0000000  3
   4486   4484   4485   4488     1  0.0000000  0.6508444  3
   4486   4484   4503   4493     1  0.0000000  1.2552000  3
   4487   4483   4481   4501     1  0.0000000  1.0460000  1
   4487   4483   4481   4501     1  0.0000000  0.0000000  3
   4487   4483   4481   4500     1  0.0000000  0.6508444  3
   4487   4483   4484   4503     1  0.0000000  0.6508444  3
   4487   4483   4490   4492     1  0.0000000  0.6973333  3
   4488   4485   4484   4503     1  0.0000000  0.6508444  3
   4488   4485   4489   4499     1  0.0000000  0.6973333  3
   4490   4483   4481   4500     1  0.0000000  1.0460000  1
   4490   4483   4481   4500     1  0.0000000  0.0000000  3
   4491   4480   4481   4500     1  0.0000000  0.6508444  3
   4494   4491   4480   4498     1  0.0000000  1.0460000  1
   4494   4491   4480   4498     1  0.0000000  0.0000000  3
   4494   4491   4496   4497     1  0.0000000  0.6973333  3
   4495   4491   4480   4498     1  0.0000000  1.0460000  1
   4495   4491   4480   4498     1  0.0000000  0.0000000  3
   4495   4491   4496   4497     1  0.0000000  0.6973333  3
   4498   4480   4481   4500     1  0.0000000  1.0460000  1
   4498   4480   4481   4500     1  0.0000000  0.0000000  3
   4498   4485   4489   4499     1  0.0000000  0.6973333  3
   4500   4481   4501   4502     1  0.0000000  0.6973333  3
   4504   4505   4507   4511     1  0.0000000  0.6508444  3
   4504   4505   4525   4526     1  0.0000000  1.0460000  1
   4504   4505   4525   4526     1  0.0000000  0.6694400  3
   4504   4515   4520   4521     1  0.0000000  1.0460000  1
   4504   4515   4520   4521     1  0.0000000  0.6694400  3
   4504   4522   4509   4512     1  0.0000000  1.6038667  3
   4505   4504   4515   4518     1  0.0000000  0.6508444  3
   4505   4504   4515   4519     1  0.0000000  0.6508444  3
   4505   4507   4508   4510     1  0.0000000  0.6508444  3
   4505   4507   4514   4516     1  0.0000000  1.0460000  1
   4505   4507   4514   4516     1  0.0000000  0.6694400  3
   4506   4504   4505   4507     1  0.0000000  0.6508444  3
   4506   4504   4505   4525     1  0.0000000  1.0460000  1
   4506   4504   4505   4525     1  0.0000000  0.0000000  3
   4506   4504   4505   4524     1  0.0000000  0.6508444  3
   4506   4504   4515   4520     1  0.0000000  1.0460000  1
   4506   4504   4515   4520     1  0.0000000  0.0000000  3
   4506   4504   4515   4518     1  0.0000000  0.6508444  3
   4506   4504   4515   4519     1  0.0000000  0.6508444  3
   4506   4504   4522   4509     1  0.0000000  1.6038667  3
   4507   4505   4525   4526     1  0.0000000  1.0460000  1
   4507   4505   4525   4526     1  0.0000000  0.6694400  3
   4507   4508   4509   4512     1  0.0000000  0.6508444  3
   4507   4508   4527   4517     1  0.0000000  1.2552000  3
   4508   4507   4505   4524     1  0.0000000  0.6508444  3
   4508   4507   4514   4516     1  0.0000000  1.0460000  1
   4508   4507   4514   4516     1  0.0000000  0.6694400  3
   4508   4509   4513   4523     1  0.0000000  1.0460000  1
   4508   4509   4513   4523     1  0.0000000  0.6694400  3
   4509   4508   4507   4511     1  0.0000000  0.6508444  3
   4509   4508   4527   4517     1  0.0000000  1.2552000  3
   4510   4508   4507   4514     1  0.0000000  1.0460000  1
   4510   4508   4507   4514     1  0.0000000  0.0000000  3
   4510   4508   4507   4511     1  0.0000000  0.6508444  3
   4510   4508   4509   4513     1  0.0000000  1.0460000  1
   4510   4508   4509   4513     1  0.0000000  0.0000000  3
   4510   4508   4509   4522     1  0.0000000  1.0460000  1
   4510   4508   4509   4522     1  0.0000000  0.0000000  3
   4510   4508   4509   4512     1  0.0000000  0.6508444  3
   4510   4508   4527   4517     1  0.0000000  1.2552000  3
   4511   4507   4505   4525     1  0.0000000  1.0460000  1
   4511   4507   4505   4525     1  0.0000000  0.0000000  3
   4511   4507   4505   4524     1  0.0000000  0.6508444  3
   4511   4507   4508   4527     1  0.0000000  0.6508444  3
   4511   4507   4514   4516     1  0.0000000  0.6973333  3
   4512   4509   4508   4527     1  0.0000000  0.6508444  3
   4512   4509   4513   4523     1  0.0000000  0.6973333  3
   4514   4507   4505   4524     1  0.0000000  1.0460000  1
   4514   4507   4505   4524     1  0.0000000  0.0000000  3
   4515   4504   4505   4524     1  0.0000000  0.6508444  3
   4518   4515   4504   4522     1  0.0000000  1.0460000  1
   4518   4515   4504   4522     1  0.0000000  0.0000000  3
   4518   4515   4520   4521     1  0.0000000  0.6973333  3
   4519   4515   4504   4522     1  0.0000000  1.0460000  1
   4519   4515   4504   4522     1  0.0000000  0.0000000  3
   4519   4515   4520   4521     1  0.0000000  0.6973333  3
   4522   4504   4505   4524     1  0.0000000  1.0460000  1
   4522   4504   4505   4524     1  0.0000000  0.0000000  3
   4522   4509   4513   4523     1  0.0000000  0.6973333  3
   4524   4505   4525   4526     1  0.0000000  0.6973333  3
   4528   4530   4532   4534     1  0.0000000  0.6508444  3
   4528   4530   4532   4535     1  0.0000000  0.6508444  3
   4529   4528   4530   4532     1  0.0000000  0.0000000  2
   4529   4528   4530   4531     1  0.0000000  0.0000000  2
   4529   4528   4530   4533     1  0.0000000  0.0000000  2
   4531   4530   4532   4536     1  0.0000000  0.6508444  3
   4531   4530   4532   4534     1  0.0000000  0.6508444  3
   4531   4530   4532   4535     1  0.0000000  0.6508444  3
   4532   4536   4537   4546     1  0.0000000  1.2552000  3
   4532   4536   4537   4547     1  0.0000000  1.2552000  3
   4532   4536   4538   4539     1  0.0000000  1.2552000  3
   4532   4536   4538   4541     1  0.0000000  1.2552000  3
   4533   4530   4532   4536     1  0.0000000  0.6508444  3
   4533   4530   4532   4534     1  0.0000000  0.6508444  3
   4533   4530   4532   4535     1  0.0000000  0.6508444  3
   4534   4532   4536   4537     1  0.0000000  1.2552000  3
   4534   4532   4536   4538     1  0.0000000  1.2552000  3
   4535   4532   4536   4537     1  0.0000000  1.2552000  3
   4535   4532   4536   4538     1  0.0000000  1.2552000  3
   4536   4537   4548   4549     1  0.0000000  0.6508444  3
   4536   4537   4548   4550     1  0.0000000  0.6508444  3
   4536   4538   4540   4542     1  0.0000000  0.6508444  3
   4536   4538   4540   4543     1  0.0000000  0.6508444  3
   4537   4536   4538   4539     1  0.0000000  1.2552000  3
   4537   4536   4538   4541     1  0.0000000  1.2552000  3
   4538   4536   4537   4546     1  0.0000000  1.2552000  3
   4538   4536   4537   4547     1  0.0000000  1.2552000  3
   4539   4538   4540   4544     1  0.0000000  0.6508444  3
   4539   4538   4540   4542     1  0.0000000  0.6508444  3
   4539   4538   4540   4543     1  0.0000000  0.6508444  3
   4540   4544   4576   4566     1  180.0000771  6.0668000  2
   4540   4544   4576   4566     1  180.0000771  1.4644000  4
   4541   4538   4540   4544     1  0.0000000  0.6508444  3
   4541   4538   4540   4542     1  0.0000000  0.6508444  3
   4541   4538   4540   4543     1  0.0000000  0.6508444  3
   4542   4540   4544   4545     1  0.0000000  3.3472000  1
   4542   4540   4544   4545     1  0.0000000  0.0000000  2
   4542   4540   4544   4545     1  180.0000771  0.3347200  3
   4542   4540   4544   4576     1  180.0000771  0.0000000  2
   4543   4540   4544   4545     1  0.0000000  3.3472000  1
   4543   4540   4544   4545     1  0.0000000  0.0000000  2
   4543   4540   4544   4545     1  180.0000771  0.3347200  3
   4543   4540   4544   4576     1  180.0000771  0.0000000  2
   4544   4576   4557   4559     1  0.0000000  1.2552000  3
   4545   4544   4576   4566     1  180.0000771  6.0668000  2
   4545   4544   4576   4566     1  180.0000771  1.4644000  4
   4546   4537   4548   4551     1  0.0000000  0.6508444  3
   4546   4537   4548   4549     1  0.0000000  0.6508444  3
   4546   4537   4548   4550     1  0.0000000  0.6508444  3
   4547   4537   4548   4551     1  0.0000000  0.6508444  3
   4547   4537   4548   4549     1  0.0000000  0.6508444  3
   4547   4537   4548   4550     1  0.0000000  0.6508444  3
   4548   4551   4600   4590     1  180.0000771  6.0668000  2
   4548   4551   4600   4590     1  180.0000771  1.4644000  4
   4549   4548   4551   4552     1  0.0000000  3.3472000  1
   4549   4548   4551   4552     1  0.0000000  0.0000000  2
   4549   4548   4551   4552     1  180.0000771  0.3347200  3
   4549   4548   4551   4600     1  180.0000771  0.0000000  2
   4550   4548   4551   4552     1  0.0000000  3.3472000  1
   4550   4548   4551   4552     1  0.0000000  0.0000000  2
   4550   4548   4551   4552     1  180.0000771  0.3347200  3
   4550   4548   4551   4600     1  180.0000771  0.0000000  2
   4551   4600   4581   4583     1  0.0000000  1.2552000  3
   4552   4551   4600   4590     1  180.0000771  6.0668000  2
   4552   4551   4600   4590     1  180.0000771  1.4644000  4
   4553   4554   4556   4560     1  0.0000000  0.6508444  3
   4553   4554   4574   4575     1  0.0000000  1.0460000  1
   4553   4554   4574   4575     1  0.0000000  0.6694400  3
   4553   4564   4569   4570     1  0.0000000  1.0460000  1
   4553   4564   4569   4570     1  0.0000000  0.6694400  3
   4553   4571   4558   4561     1  0.0000000  1.6038667  3
   4554   4556   4557   4559     1  0.0000000  0.6508444  3
   4554   4556   4563   4565     1  0.0000000  1.0460000  1
   4554   4556   4563   4565     1  0.0000000  0.6694400  3
   4554   4553   4564   4567     1  0.0000000  0.6508444  3
   4554   4553   4564   4568     1  0.0000000  0.6508444  3
   4555   4553   4554   4556     1  0.0000000  0.6508444  3
   4555   4553   4554   4574     1  0.0000000  1.0460000  1
   4555   4553   4554   4574     1  0.0000000  0.0000000  3
   4555   4553   4554   4573     1  0.0000000  0.6508444  3
   4555   4553   4564   4569     1  0.0000000  1.0460000  1
   4555   4553   4564   4569     1  0.0000000  0.0000000  3
   4555   4553   4564   4567     1  0.0000000  0.6508444  3
   4555   4553   4564   4568     1  0.0000000  0.6508444  3
   4555   4553   4571   4558     1  0.0000000  1.6038667  3
   4556   4557   4558   4561     1  0.0000000  0.6508444  3
   4556   4557   4576   4566     1  0.0000000  1.2552000  3
   4556   4554   4574   4575     1  0.0000000  1.0460000  1
   4556   4554   4574   4575     1  0.0000000  0.6694400  3
   4557   4558   4562   4572     1  0.0000000  1.0460000  1
   4557   4558   4562   4572     1  0.0000000  0.6694400  3
   4557   4556   4563   4565     1  0.0000000  1.0460000  1
   4557   4556   4563   4565     1  0.0000000  0.6694400  3
   4557   4556   4554   4573     1  0.0000000  0.6508444  3
   4558   4557   4576   4566     1  0.0000000  1.2552000  3
   4558   4557   4556   4560     1  0.0000000  0.6508444  3
   4559   4557   4558   4562     1  0.0000000  1.0460000  1
   4559   4557   4558   4562     1  0.0000000  0.0000000  3
   4559   4557   4558   4571     1  0.0000000  1.0460000  1
   4559   4557   4558   4571     1  0.0000000  0.0000000  3
   4559   4557   4558   4561     1  0.0000000  0.6508444  3
   4559   4557   4576   4566     1  0.0000000  1.2552000  3
   4559   4557   4556   4563     1  0.0000000  1.0460000  1
   4559   4557   4556   4563     1  0.0000000  0.0000000  3
   4559   4557   4556   4560     1  0.0000000  0.6508444  3
   4560   4556   4557   4576     1  0.0000000  0.6508444  3
   4560   4556   4563   4565     1  0.0000000  0.6973333  3
   4560   4556   4554   4574     1  0.0000000  1.0460000  1
   4560   4556   4554   4574     1  0.0000000  0.0000000  3
   4560   4556   4554   4573     1  0.0000000  0.6508444  3
   4561   4558   4562   4572     1  0.0000000  0.6973333  3
   4561   4558   4557   4576     1  0.0000000  0.6508444  3
   4563   4556   4554   4573     1  0.0000000  1.0460000  1
   4563   4556   4554   4573     1  0.0000000  0.0000000  3
   4564   4553   4554   4573     1  0.0000000  0.6508444  3
   4567   4564   4569   4570     1  0.0000000  0.6973333  3
   4567   4564   4553   4571     1  0.0000000  1.0460000  1
   4567   4564   4553   4571     1  0.0000000  0.0000000  3
   4568   4564   4569   4570     1  0.0000000  0.6973333  3
   4568   4564   4553   4571     1  0.0000000  1.0460000  1
   4568   4564   4553   4571     1  0.0000000  0.0000000  3
   4571   4558   4562   4572     1  0.0000000  0.6973333  3
   4571   4553   4554   4573     1  0.0000000  1.0460000  1
   4571   4553   4554   4573     1  0.0000000  0.0000000  3
   4573   4554   4574   4575     1  0.0000000  0.6973333  3
   4577   4578   4580   4584     1  0.0000000  0.6508444  3
   4577   4578   4598   4599     1  0.0000000  1.0460000  1
   4577   4578   4598   4599     1  0.0000000  0.6694400  3
   4577   4588   4593   4594     1  0.0000000  1.0460000  1
   4577   4588   4593   4594     1  0.0000000  0.6694400  3
   4577   4595   4582   4585     1  0.0000000  1.6038667  3
   4578   4580   4581   4583     1  0.0000000  0.6508444  3
   4578   4580   4587   4589     1  0.0000000  1.0460000  1
   4578   4580   4587   4589     1  0.0000000  0.6694400  3
   4578   4577   4588   4591     1  0.0000000  0.6508444  3
   4578   4577   4588   4592     1  0.0000000  0.6508444  3
   4579   4577   4578   4580     1  0.0000000  0.6508444  3
   4579   4577   4578   4598     1  0.0000000  1.0460000  1
   4579   4577   4578   4598     1  0.0000000  0.0000000  3
   4579   4577   4578   4597     1  0.0000000  0.6508444  3
   4579   4577   4588   4593     1  0.0000000  1.0460000  1
   4579   4577   4588   4593     1  0.0000000  0.0000000  3
   4579   4577   4588   4591     1  0.0000000  0.6508444  3
   4579   4577   4588   4592     1  0.0000000  0.6508444  3
   4579   4577   4595   4582     1  0.0000000  1.6038667  3
   4580   4581   4582   4585     1  0.0000000  0.6508444  3
   4580   4581   4600   4590     1  0.0000000  1.2552000  3
   4580   4578   4598   4599     1  0.0000000  1.0460000  1
   4580   4578   4598   4599     1  0.0000000  0.6694400  3
   4581   4582   4586   4596     1  0.0000000  1.0460000  1
   4581   4582   4586   4596     1  0.0000000  0.6694400  3
   4581   4580   4587   4589     1  0.0000000  1.0460000  1
   4581   4580   4587   4589     1  0.0000000  0.6694400  3
   4581   4580   4578   4597     1  0.0000000  0.6508444  3
   4582   4581   4600   4590     1  0.0000000  1.2552000  3
   4582   4581   4580   4584     1  0.0000000  0.6508444  3
   4583   4581   4582   4586     1  0.0000000  1.0460000  1
   4583   4581   4582   4586     1  0.0000000  0.0000000  3
   4583   4581   4582   4595     1  0.0000000  1.0460000  1
   4583   4581   4582   4595     1  0.0000000  0.0000000  3
   4583   4581   4582   4585     1  0.0000000  0.6508444  3
   4583   4581   4600   4590     1  0.0000000  1.2552000  3
   4583   4581   4580   4587     1  0.0000000  1.0460000  1
   4583   4581   4580   4587     1  0.0000000  0.0000000  3
   4583   4581   4580   4584     1  0.0000000  0.6508444  3
   4584   4580   4581   4600     1  0.0000000  0.6508444  3
   4584   4580   4587   4589     1  0.0000000  0.6973333  3
   4584   4580   4578   4598     1  0.0000000  1.0460000  1
   4584   4580   4578   4598     1  0.0000000  0.0000000  3
   4584   4580   4578   4597     1  0.0000000  0.6508444  3
   4585   4582   4586   4596     1  0.0000000  0.6973333  3
   4585   4582   4581   4600     1  0.0000000  0.6508444  3
   4587   4580   4578   4597     1  0.0000000  1.0460000  1
   4587   4580   4578   4597     1  0.0000000  0.0000000  3
   4588   4577   4578   4597     1  0.0000000  0.6508444  3
   4591   4588   4593   4594     1  0.0000000  0.6973333  3
   4591   4588   4577   4595     1  0.0000000  1.0460000  1
   4591   4588   4577   4595     1  0.0000000  0.0000000  3
   4592   4588   4593   4594     1  0.0000000  0.6973333  3
   4592   4588   4577   4595     1  0.0000000  1.0460000  1
   4592   4588   4577   4595     1  0.0000000  0.0000000  3
   4595   4582   4586   4596     1  0.0000000  0.6973333  3
   4595   4577   4578   4597     1  0.0000000  1.0460000  1
   4595   4577   4578   4597     1  0.0000000  0.0000000  3
   4597   4578   4598   4599     1  0.0000000  0.6973333  3
   4601   4603   4605   4607     1  0.0000000  0.6508444  3
   4601   4603   4605   4608     1  0.0000000  0.6508444  3
   4602   4601   4603   4605     1  0.0000000  0.0000000  2
   4602   4601   4603   4604     1  0.0000000  0.0000000  2
   4602   4601   4603   4606     1  0.0000000  0.0000000  2
   4604   4603   4605   4609     1  0.0000000  0.6508444  3
   4604   4603   4605   4607     1  0.0000000  0.6508444  3
   4604   4603   4605   4608     1  0.0000000  0.6508444  3
   4605   4609   4610   4619     1  0.0000000  1.2552000  3
   4605   4609   4610   4620     1  0.0000000  1.2552000  3
   4605   4609   4611   4612     1  0.0000000  1.2552000  3
   4605   4609   4611   4614     1  0.0000000  1.2552000  3
   4606   4603   4605   4609     1  0.0000000  0.6508444  3
   4606   4603   4605   4607     1  0.0000000  0.6508444  3
   4606   4603   4605   4608     1  0.0000000  0.6508444  3
   4607   4605   4609   4610     1  0.0000000  1.2552000  3
   4607   4605   4609   4611     1  0.0000000  1.2552000  3
   4608   4605   4609   4610     1  0.0000000  1.2552000  3
   4608   4605   4609   4611     1  0.0000000  1.2552000  3
   4609   4610   4621   4622     1  0.0000000  0.6508444  3
   4609   4610   4621   4623     1  0.0000000  0.6508444  3
   4609   4611   4613   4615     1  0.0000000  0.6508444  3
   4609   4611   4613   4616     1  0.0000000  0.6508444  3
   4610   4609   4611   4612     1  0.0000000  1.2552000  3
   4610   4609   4611   4614     1  0.0000000  1.2552000  3
   4611   4609   4610   4619     1  0.0000000  1.2552000  3
   4611   4609   4610   4620     1  0.0000000  1.2552000  3
   4612   4611   4613   4617     1  0.0000000  0.6508444  3
   4612   4611   4613   4615     1  0.0000000  0.6508444  3
   4612   4611   4613   4616     1  0.0000000  0.6508444  3
   4613   4617   4649   4639     1  180.0000771  6.0668000  2
   4613   4617   4649   4639     1  180.0000771  1.4644000  4
   4614   4611   4613   4617     1  0.0000000  0.6508444  3
   4614   4611   4613   4615     1  0.0000000  0.6508444  3
   4614   4611   4613   4616     1  0.0000000  0.6508444  3
   4615   4613   4617   4618     1  0.0000000  3.3472000  1
   4615   4613   4617   4618     1  0.0000000  0.0000000  2
   4615   4613   4617   4618     1  180.0000771  0.3347200  3
   4615   4613   4617   4649     1  180.0000771  0.0000000  2
   4616   4613   4617   4618     1  0.0000000  3.3472000  1
   4616   4613   4617   4618     1  0.0000000  0.0000000  2
   4616   4613   4617   4618     1  180.0000771  0.3347200  3
   4616   4613   4617   4649     1  180.0000771  0.0000000  2
   4617   4649   4630   4632     1  0.0000000  1.2552000  3
   4618   4617   4649   4639     1  180.0000771  6.0668000  2
   4618   4617   4649   4639     1  180.0000771  1.4644000  4
   4619   4610   4621   4624     1  0.0000000  0.6508444  3
   4619   4610   4621   4622     1  0.0000000  0.6508444  3
   4619   4610   4621   4623     1  0.0000000  0.6508444  3
   4620   4610   4621   4624     1  0.0000000  0.6508444  3
   4620   4610   4621   4622     1  0.0000000  0.6508444  3
   4620   4610   4621   4623     1  0.0000000  0.6508444  3
   4621   4624   4673   4663     1  180.0000771  6.0668000  2
   4621   4624   4673   4663     1  180.0000771  1.4644000  4
   4622   4621   4624   4625     1  0.0000000  3.3472000  1
   4622   4621   4624   4625     1  0.0000000  0.0000000  2
   4622   4621   4624   4625     1  180.0000771  0.3347200  3
   4622   4621   4624   4673     1  180.0000771  0.0000000  2
   4623   4621   4624   4625     1  0.0000000  3.3472000  1
   4623   4621   4624   4625     1  0.0000000  0.0000000  2
   4623   4621   4624   4625     1  180.0000771  0.3347200  3
   4623   4621   4624   4673     1  180.0000771  0.0000000  2
   4624   4673   4654   4656     1  0.0000000  1.2552000  3
   4625   4624   4673   4663     1  180.0000771  6.0668000  2
   4625   4624   4673   4663     1  180.0000771  1.4644000  4
   4626   4627   4629   4633     1  0.0000000  0.6508444  3
   4626   4627   4647   4648     1  0.0000000  1.0460000  1
   4626   4627   4647   4648     1  0.0000000  0.6694400  3
   4626   4637   4642   4643     1  0.0000000  1.0460000  1
   4626   4637   4642   4643     1  0.0000000  0.6694400  3
   4626   4644   4631   4634     1  0.0000000  1.6038667  3
   4627   4626   4637   4640     1  0.0000000  0.6508444  3
   4627   4626   4637   4641     1  0.0000000  0.6508444  3
   4627   4629   4630   4632     1  0.0000000  0.6508444  3
   4627   4629   4636   4638     1  0.0000000  1.0460000  1
   4627   4629   4636   4638     1  0.0000000  0.6694400  3
   4628   4626   4627   4629     1  0.0000000  0.6508444  3
   4628   4626   4627   4647     1  0.0000000  1.0460000  1
   4628   4626   4627   4647     1  0.0000000  0.0000000  3
   4628   4626   4627   4646     1  0.0000000  0.6508444  3
   4628   4626   4637   4642     1  0.0000000  1.0460000  1
   4628   4626   4637   4642     1  0.0000000  0.0000000  3
   4628   4626   4637   4640     1  0.0000000  0.6508444  3
   4628   4626   4637   4641     1  0.0000000  0.6508444  3
   4628   4626   4644   4631     1  0.0000000  1.6038667  3
   4629   4627   4647   4648     1  0.0000000  1.0460000  1
   4629   4627   4647   4648     1  0.0000000  0.6694400  3
   4629   4630   4631   4634     1  0.0000000  0.6508444  3
   4629   4630   4649   4639     1  0.0000000  1.2552000  3
   4630   4629   4627   4646     1  0.0000000  0.6508444  3
   4630   4629   4636   4638     1  0.0000000  1.0460000  1
   4630   4629   4636   4638     1  0.0000000  0.6694400  3
   4630   4631   4635   4645     1  0.0000000  1.0460000  1
   4630   4631   4635   4645     1  0.0000000  0.6694400  3
   4631   4630   4629   4633     1  0.0000000  0.6508444  3
   4631   4630   4649   4639     1  0.0000000  1.2552000  3
   4632   4630   4629   4636     1  0.0000000  1.0460000  1
   4632   4630   4629   4636     1  0.0000000  0.0000000  3
   4632   4630   4629   4633     1  0.0000000  0.6508444  3
   4632   4630   4631   4635     1  0.0000000  1.0460000  1
   4632   4630   4631   4635     1  0.0000000  0.0000000  3
   4632   4630   4631   4644     1  0.0000000  1.0460000  1
   4632   4630   4631   4644     1  0.0000000  0.0000000  3
   4632   4630   4631   4634     1  0.0000000  0.6508444  3
   4632   4630   4649   4639     1  0.0000000  1.2552000  3
   4633   4629   4627   4647     1  0.0000000  1.0460000  1
   4633   4629   4627   4647     1  0.0000000  0.0000000  3
   4633   4629   4627   4646     1  0.0000000  0.6508444  3
   4633   4629   4630   4649     1  0.0000000  0.6508444  3
   4633   4629   4636   4638     1  0.0000000  0.6973333  3
   4634   4631   4630   4649     1  0.0000000  0.6508444  3
   4634   4631   4635   4645     1  0.0000000  0.6973333  3
   4636   4629   4627   4646     1  0.0000000  1.0460000  1
   4636   4629   4627   4646     1  0.0000000  0.0000000  3
   4637   4626   4627   4646     1  0.0000000  0.6508444  3
   4640   4637   4626   4644     1  0.0000000  1.0460000  1
   4640   4637   4626   4644     1  0.0000000  0.0000000  3
   4640   4637   4642   4643     1  0.0000000  0.6973333  3
   4641   4637   4626   4644     1  0.0000000  1.0460000  1
   4641   4637   4626   4644     1  0.0000000  0.0000000  3
   4641   4637   4642   4643     1  0.0000000  0.6973333  3
   4644   4626   4627   4646     1  0.0000000  1.0460000  1
   4644   4626   4627   4646     1  0.0000000  0.0000000  3
   4644   4631   4635   4645     1  0.0000000  0.6973333  3
   4646   4627   4647   4648     1  0.0000000  0.6973333  3
   4650   4651   4653   4657     1  0.0000000  0.6508444  3
   4650   4651   4671   4672     1  0.0000000  1.0460000  1
   4650   4651   4671   4672     1  0.0000000  0.6694400  3
   4650   4661   4666   4667     1  0.0000000  1.0460000  1
   4650   4661   4666   4667     1  0.0000000  0.6694400  3
   4650   4668   4655   4658     1  0.0000000  1.6038667  3
   4651   4650   4661   4664     1  0.0000000  0.6508444  3
   4651   4650   4661   4665     1  0.0000000  0.6508444  3
   4651   4653   4654   4656     1  0.0000000  0.6508444  3
   4651   4653   4660   4662     1  0.0000000  1.0460000  1
   4651   4653   4660   4662     1  0.0000000  0.6694400  3
   4652   4650   4651   4653     1  0.0000000  0.6508444  3
   4652   4650   4651   4671     1  0.0000000  1.0460000  1
   4652   4650   4651   4671     1  0.0000000  0.0000000  3
   4652   4650   4651   4670     1  0.0000000  0.6508444  3
   4652   4650   4661   4666     1  0.0000000  1.0460000  1
   4652   4650   4661   4666     1  0.0000000  0.0000000  3
   4652   4650   4661   4664     1  0.0000000  0.6508444  3
   4652   4650   4661   4665     1  0.0000000  0.6508444  3
   4652   4650   4668   4655     1  0.0000000  1.6038667  3
   4653   4651   4671   4672     1  0.0000000  1.0460000  1
   4653   4651   4671   4672     1  0.0000000  0.6694400  3
   4653   4654   4655   4658     1  0.0000000  0.6508444  3
   4653   4654   4673   4663     1  0.0000000  1.2552000  3
   4654   4653   4651   4670     1  0.0000000  0.6508444  3
   4654   4653   4660   4662     1  0.0000000  1.0460000  1
   4654   4653   4660   4662     1  0.0000000  0.6694400  3
   4654   4655   4659   4669     1  0.0000000  1.0460000  1
   4654   4655   4659   4669     1  0.0000000  0.6694400  3
   4655   4654   4653   4657     1  0.0000000  0.6508444  3
   4655   4654   4673   4663     1  0.0000000  1.2552000  3
   4656   4654   4653   4660     1  0.0000000  1.0460000  1
   4656   4654   4653   4660     1  0.0000000  0.0000000  3
   4656   4654   4653   4657     1  0.0000000  0.6508444  3
   4656   4654   4655   4659     1  0.0000000  1.0460000  1
   4656   4654   4655   4659     1  0.0000000  0.0000000  3
   4656   4654   4655   4668     1  0.0000000  1.0460000  1
   4656   4654   4655   4668     1  0.0000000  0.0000000  3
   4656   4654   4655   4658     1  0.0000000  0.6508444  3
   4656   4654   4673   4663     1  0.0000000  1.2552000  3
   4657   4653   4651   4671     1  0.0000000  1.0460000  1
   4657   4653   4651   4671     1  0.0000000  0.0000000  3
   4657   4653   4651   4670     1  0.0000000  0.6508444  3
   4657   4653   4654   4673     1  0.0000000  0.6508444  3
   4657   4653   4660   4662     1  0.0000000  0.6973333  3
   4658   4655   4654   4673     1  0.0000000  0.6508444  3
   4658   4655   4659   4669     1  0.0000000  0.6973333  3
   4660   4653   4651   4670     1  0.0000000  1.0460000  1
   4660   4653   4651   4670     1  0.0000000  0.0000000  3
   4661   4650   4651   4670     1  0.0000000  0.6508444  3
   4664   4661   4650   4668     1  0.0000000  1.0460000  1
   4664   4661   4650   4668     1  0.0000000  0.0000000  3
   4664   4661   4666   4667     1  0.0000000  0.6973333  3
   4665   4661   4650   4668     1  0.0000000  1.0460000  1
   4665   4661   4650   4668     1  0.0000000  0.0000000  3
   4665   4661   4666   4667     1  0.0000000  0.6973333  3
   4668   4650   4651   4670     1  0.0000000  1.0460000  1
   4668   4650   4651   4670     1  0.0000000  0.0000000  3
   4668   4655   4659   4669     1  0.0000000  0.6973333  3
   4670   4651   4671   4672     1  0.0000000  0.6973333  3
   4674   4676   4678   4680     1  0.0000000  0.6508444  3
   4674   4676   4678   4681     1  0.0000000  0.6508444  3
   4675   4674   4676   4678     1  0.0000000  0.0000000  2
   4675   4674   4676   4677     1  0.0000000  0.0000000  2
   4675   4674   4676   4679     1  0.0000000  0.0000000  2
   4677   4676   4678   4682     1  0.0000000  0.6508444  3
   4677   4676   4678   4680     1  0.0000000  0.6508444  3
   4677   4676   4678   4681     1  0.0000000  0.6508444  3
   4678   4682   4683   4692     1  0.0000000  1.2552000  3
   4678   4682   4683   4693     1  0.0000000  1.2552000  3
   4678   4682   4684   4685     1  0.0000000  1.2552000  3
   4678   4682   4684   4687     1  0.0000000  1.2552000  3
   4679   4676   4678   4682     1  0.0000000  0.6508444  3
   4679   4676   4678   4680     1  0.0000000  0.6508444  3
   4679   4676   4678   4681     1  0.0000000  0.6508444  3
   4680   4678   4682   4683     1  0.0000000  1.2552000  3
   4680   4678   4682   4684     1  0.0000000  1.2552000  3
   4681   4678   4682   4683     1  0.0000000  1.2552000  3
   4681   4678   4682   4684     1  0.0000000  1.2552000  3
   4682   4683   4694   4695     1  0.0000000  0.6508444  3
   4682   4683   4694   4696     1  0.0000000  0.6508444  3
   4682   4684   4686   4688     1  0.0000000  0.6508444  3
   4682   4684   4686   4689     1  0.0000000  0.6508444  3
   4683   4682   4684   4685     1  0.0000000  1.2552000  3
   4683   4682   4684   4687     1  0.0000000  1.2552000  3
   4684   4682   4683   4692     1  0.0000000  1.2552000  3
   4684   4682   4683   4693     1  0.0000000  1.2552000  3
   4685   4684   4686   4690     1  0.0000000  0.6508444  3
   4685   4684   4686   4688     1  0.0000000  0.6508444  3
   4685   4684   4686   4689     1  0.0000000  0.6508444  3
   4686   4690   4722   4712     1  180.0000771  6.0668000  2
   4686   4690   4722   4712     1  180.0000771  1.4644000  4
   4687   4684   4686   4690     1  0.0000000  0.6508444  3
   4687   4684   4686   4688     1  0.0000000  0.6508444  3
   4687   4684   4686   4689     1  0.0000000  0.6508444  3
   4688   4686   4690   4691     1  0.0000000  3.3472000  1
   4688   4686   4690   4691     1  0.0000000  0.0000000  2
   4688   4686   4690   4691     1  180.0000771  0.3347200  3
   4688   4686   4690   4722     1  180.0000771  0.0000000  2
   4689   4686   4690   4691     1  0.0000000  3.3472000  1
   4689   4686   4690   4691     1  0.0000000  0.0000000  2
   4689   4686   4690   4691     1  180.0000771  0.3347200  3
   4689   4686   4690   4722     1  180.0000771  0.0000000  2
   4690   4722   4703   4705     1  0.0000000  1.2552000  3
   4691   4690   4722   4712     1  180.0000771  6.0668000  2
   4691   4690   4722   4712     1  180.0000771  1.4644000  4
   4692   4683   4694   4697     1  0.0000000  0.6508444  3
   4692   4683   4694   4695     1  0.0000000  0.6508444  3
   4692   4683   4694   4696     1  0.0000000  0.6508444  3
   4693   4683   4694   4697     1  0.0000000  0.6508444  3
   4693   4683   4694   4695     1  0.0000000  0.6508444  3
   4693   4683   4694   4696     1  0.0000000  0.6508444  3
   4694   4697   4746   4736     1  180.0000771  6.0668000  2
   4694   4697   4746   4736     1  180.0000771  1.4644000  4
   4695   4694   4697   4698     1  0.0000000  3.3472000  1
   4695   4694   4697   4698     1  0.0000000  0.0000000  2
   4695   4694   4697   4698     1  180.0000771  0.3347200  3
   4695   4694   4697   4746     1  180.0000771  0.0000000  2
   4696   4694   4697   4698     1  0.0000000  3.3472000  1
   4696   4694   4697   4698     1  0.0000000  0.0000000  2
   4696   4694   4697   4698     1  180.0000771  0.3347200  3
   4696   4694   4697   4746     1  180.0000771  0.0000000  2
   4697   4746   4727   4729     1  0.0000000  1.2552000  3
   4698   4697   4746   4736     1  180.0000771  6.0668000  2
   4698   4697   4746   4736     1  180.0000771  1.4644000  4
   4699   4700   4702   4706     1  0.0000000  0.6508444  3
   4699   4700   4720   4721     1  0.0000000  1.0460000  1
   4699   4700   4720   4721     1  0.0000000  0.6694400  3
   4699   4710   4715   4716     1  0.0000000  1.0460000  1
   4699   4710   4715   4716     1  0.0000000  0.6694400  3
   4699   4717   4704   4707     1  0.0000000  1.6038667  3
   4700   4702   4703   4705     1  0.0000000  0.6508444  3
   4700   4702   4709   4711     1  0.0000000  1.0460000  1
   4700   4702   4709   4711     1  0.0000000  0.6694400  3
   4700   4699   4710   4713     1  0.0000000  0.6508444  3
   4700   4699   4710   4714     1  0.0000000  0.6508444  3
   4701   4699   4700   4702     1  0.0000000  0.6508444  3
   4701   4699   4700   4720     1  0.0000000  1.0460000  1
   4701   4699   4700   4720     1  0.0000000  0.0000000  3
   4701   4699   4700   4719     1  0.0000000  0.6508444  3
   4701   4699   4710   4715     1  0.0000000  1.0460000  1
   4701   4699   4710   4715     1  0.0000000  0.0000000  3
   4701   4699   4710   4713     1  0.0000000  0.6508444  3
   4701   4699   4710   4714     1  0.0000000  0.6508444  3
   4701   4699   4717   4704     1  0.0000000  1.6038667  3
   4702   4703   4704   4707     1  0.0000000  0.6508444  3
   4702   4703   4722   4712     1  0.0000000  1.2552000  3
   4702   4700   4720   4721     1  0.0000000  1.0460000  1
   4702   4700   4720   4721     1  0.0000000  0.6694400  3
   4703   4704   4708   4718     1  0.0000000  1.0460000  1
   4703   4704   4708   4718     1  0.0000000  0.6694400  3
   4703   4702   4709   4711     1  0.0000000  1.0460000  1
   4703   4702   4709   4711     1  0.0000000  0.6694400  3
   4703   4702   4700   4719     1  0.0000000  0.6508444  3
   4704   4703   4722   4712     1  0.0000000  1.2552000  3
   4704   4703   4702   4706     1  0.0000000  0.6508444  3
   4705   4703   4704   4708     1  0.0000000  1.0460000  1
   4705   4703   4704   4708     1  0.0000000  0.0000000  3
   4705   4703   4704   4717     1  0.0000000  1.0460000  1
   4705   4703   4704   4717     1  0.0000000  0.0000000  3
   4705   4703   4704   4707     1  0.0000000  0.6508444  3
   4705   4703   4722   4712     1  0.0000000  1.2552000  3
   4705   4703   4702   4709     1  0.0000000  1.0460000  1
   4705   4703   4702   4709     1  0.0000000  0.0000000  3
   4705   4703   4702   4706     1  0.0000000  0.6508444  3
   4706   4702   4703   4722     1  0.0000000  0.6508444  3
   4706   4702   4709   4711     1  0.0000000  0.6973333  3
   4706   4702   4700   4720     1  0.0000000  1.0460000  1
   4706   4702   4700   4720     1  0.0000000  0.0000000  3
   4706   4702   4700   4719     1  0.0000000  0.6508444  3
   4707   4704   4708   4718     1  0.0000000  0.6973333  3
   4707   4704   4703   4722     1  0.0000000  0.6508444  3
   4709   4702   4700   4719     1  0.0000000  1.0460000  1
   4709   4702   4700   4719     1  0.0000000  0.0000000  3
   4710   4699   4700   4719     1  0.0000000  0.6508444  3
   4713   4710   4715   4716     1  0.0000000  0.6973333  3
   4713   4710   4699   4717     1  0.0000000  1.0460000  1
   4713   4710   4699   4717     1  0.0000000  0.0000000  3
   4714   4710   4715   4716     1  0.0000000  0.6973333  3
   4714   4710   4699   4717     1  0.0000000  1.0460000  1
   4714   4710   4699   4717     1  0.0000000  0.0000000  3
   4717   4704   4708   4718     1  0.0000000  0.6973333  3
   4717   4699   4700   4719     1  0.0000000  1.0460000  1
   4717   4699   4700   4719     1  0.0000000  0.0000000  3
   4719   4700   4720   4721     1  0.0000000  0.6973333  3
   4723   4724   4726   4730     1  0.0000000  0.6508444  3
   4723   4724   4744   4745     1  0.0000000  1.0460000  1
   4723   4724   4744   4745     1  0.0000000  0.6694400  3
   4723   4734   4739   4740     1  0.0000000  1.0460000  1
   4723   4734   4739   4740     1  0.0000000  0.6694400  3
   4723   4741   4728   4731     1  0.0000000  1.6038667  3
   4724   4726   4727   4729     1  0.0000000  0.6508444  3
   4724   4726   4733   4735     1  0.0000000  1.0460000  1
   4724   4726   4733   4735     1  0.0000000  0.6694400  3
   4724   4723   4734   4737     1  0.0000000  0.6508444  3
   4724   4723   4734   4738     1  0.0000000  0.6508444  3
   4725   4723   4724   4726     1  0.0000000  0.6508444  3
   4725   4723   4724   4744     1  0.0000000  1.0460000  1
   4725   4723   4724   4744     1  0.0000000  0.0000000  3
   4725   4723   4724   4743     1  0.0000000  0.6508444  3
   4725   4723   4734   4739     1  0.0000000  1.0460000  1
   4725   4723   4734   4739     1  0.0000000  0.0000000  3
   4725   4723   4734   4737     1  0.0000000  0.6508444  3
   4725   4723   4734   4738     1  0.0000000  0.6508444  3
   4725   4723   4741   4728     1  0.0000000  1.6038667  3
   4726   4727   4728   4731     1  0.0000000  0.6508444  3
   4726   4727   4746   4736     1  0.0000000  1.2552000  3
   4726   4724   4744   4745     1  0.0000000  1.0460000  1
   4726   4724   4744   4745     1  0.0000000  0.6694400  3
   4727   4728   4732   4742     1  0.0000000  1.0460000  1
   4727   4728   4732   4742     1  0.0000000  0.6694400  3
   4727   4726   4733   4735     1  0.0000000  1.0460000  1
   4727   4726   4733   4735     1  0.0000000  0.6694400  3
   4727   4726   4724   4743     1  0.0000000  0.6508444  3
   4728   4727   4746   4736     1  0.0000000  1.2552000  3
   4728   4727   4726   4730     1  0.0000000  0.6508444  3
   4729   4727   4728   4732     1  0.0000000  1.0460000  1
   4729   4727   4728   4732     1  0.0000000  0.0000000  3
   4729   4727   4728   4741     1  0.0000000  1.0460000  1
   4729   4727   4728   4741     1  0.0000000  0.0000000  3
   4729   4727   4728   4731     1  0.0000000  0.6508444  3
   4729   4727   4746   4736     1  0.0000000  1.2552000  3
   4729   4727   4726   4733     1  0.0000000  1.0460000  1
   4729   4727   4726   4733     1  0.0000000  0.0000000  3
   4729   4727   4726   4730     1  0.0000000  0.6508444  3
   4730   4726   4727   4746     1  0.0000000  0.6508444  3
   4730   4726   4733   4735     1  0.0000000  0.6973333  3
   4730   4726   4724   4744     1  0.0000000  1.0460000  1
   4730   4726   4724   4744     1  0.0000000  0.0000000  3
   4730   4726   4724   4743     1  0.0000000  0.6508444  3
   4731   4728   4732   4742     1  0.0000000  0.6973333  3
   4731   4728   4727   4746     1  0.0000000  0.6508444  3
   4733   4726   4724   4743     1  0.0000000  1.0460000  1
   4733   4726   4724   4743     1  0.0000000  0.0000000  3
   4734   4723   4724   4743     1  0.0000000  0.6508444  3
   4737   4734   4739   4740     1  0.0000000  0.6973333  3
   4737   4734   4723   4741     1  0.0000000  1.0460000  1
   4737   4734   4723   4741     1  0.0000000  0.0000000  3
   4738   4734   4739   4740     1  0.0000000  0.6973333  3
   4738   4734   4723   4741     1  0.0000000  1.0460000  1
   4738   4734   4723   4741     1  0.0000000  0.0000000  3
   4741   4728   4732   4742     1  0.0000000  0.6973333  3
   4741   4723   4724   4743     1  0.0000000  1.0460000  1
   4741   4723   4724   4743     1  0.0000000  0.0000000  3
   4743   4724   4744   4745     1  0.0000000  0.6973333  3
   4747   4749   4751   4753     1  0.0000000  0.6508444  3
   4747   4749   4751   4754     1  0.0000000  0.6508444  3
   4748   4747   4749   4751     1  0.0000000  0.0000000  2
   4748   4747   4749   4750     1  0.0000000  0.0000000  2
   4748   4747   4749   4752     1  0.0000000  0.0000000  2
   4750   4749   4751   4755     1  0.0000000  0.6508444  3
   4750   4749   4751   4753     1  0.0000000  0.6508444  3
   4750   4749   4751   4754     1  0.0000000  0.6508444  3
   4751   4755   4756   4765     1  0.0000000  1.2552000  3
   4751   4755   4756   4766     1  0.0000000  1.2552000  3
   4751   4755   4757   4758     1  0.0000000  1.2552000  3
   4751   4755   4757   4760     1  0.0000000  1.2552000  3
   4752   4749   4751   4755     1  0.0000000  0.6508444  3
   4752   4749   4751   4753     1  0.0000000  0.6508444  3
   4752   4749   4751   4754     1  0.0000000  0.6508444  3
   4753   4751   4755   4756     1  0.0000000  1.2552000  3
   4753   4751   4755   4757     1  0.0000000  1.2552000  3
   4754   4751   4755   4756     1  0.0000000  1.2552000  3
   4754   4751   4755   4757     1  0.0000000  1.2552000  3
   4755   4756   4767   4768     1  0.0000000  0.6508444  3
   4755   4756   4767   4769     1  0.0000000  0.6508444  3
   4755   4757   4759   4761     1  0.0000000  0.6508444  3
   4755   4757   4759   4762     1  0.0000000  0.6508444  3
   4756   4755   4757   4758     1  0.0000000  1.2552000  3
   4756   4755   4757   4760     1  0.0000000  1.2552000  3
   4757   4755   4756   4765     1  0.0000000  1.2552000  3
   4757   4755   4756   4766     1  0.0000000  1.2552000  3
   4758   4757   4759   4763     1  0.0000000  0.6508444  3
   4758   4757   4759   4761     1  0.0000000  0.6508444  3
   4758   4757   4759   4762     1  0.0000000  0.6508444  3
   4759   4763   4795   4785     1  180.0000771  6.0668000  2
   4759   4763   4795   4785     1  180.0000771  1.4644000  4
   4760   4757   4759   4763     1  0.0000000  0.6508444  3
   4760   4757   4759   4761     1  0.0000000  0.6508444  3
   4760   4757   4759   4762     1  0.0000000  0.6508444  3
   4761   4759   4763   4764     1  0.0000000  3.3472000  1
   4761   4759   4763   4764     1  0.0000000  0.0000000  2
   4761   4759   4763   4764     1  180.0000771  0.3347200  3
   4761   4759   4763   4795     1  180.0000771  0.0000000  2
   4762   4759   4763   4764     1  0.0000000  3.3472000  1
   4762   4759   4763   4764     1  0.0000000  0.0000000  2
   4762   4759   4763   4764     1  180.0000771  0.3347200  3
   4762   4759   4763   4795     1  180.0000771  0.0000000  2
   4763   4795   4776   4778     1  0.0000000  1.2552000  3
   4764   4763   4795   4785     1  180.0000771  6.0668000  2
   4764   4763   4795   4785     1  180.0000771  1.4644000  4
   4765   4756   4767   4770     1  0.0000000  0.6508444  3
   4765   4756   4767   4768     1  0.0000000  0.6508444  3
   4765   4756   4767   4769     1  0.0000000  0.6508444  3
   4766   4756   4767   4770     1  0.0000000  0.6508444  3
   4766   4756   4767   4768     1  0.0000000  0.6508444  3
   4766   4756   4767   4769     1  0.0000000  0.6508444  3
   4767   4770   4819   4809     1  180.0000771  6.0668000  2
   4767   4770   4819   4809     1  180.0000771  1.4644000  4
   4768   4767   4770   4771     1  0.0000000  3.3472000  1
   4768   4767   4770   4771     1  0.0000000  0.0000000  2
   4768   4767   4770   4771     1  180.0000771  0.3347200  3
   4768   4767   4770   4819     1  180.0000771  0.0000000  2
   4769   4767   4770   4771     1  0.0000000  3.3472000  1
   4769   4767   4770   4771     1  0.0000000  0.0000000  2
   4769   4767   4770   4771     1  180.0000771  0.3347200  3
   4769   4767   4770   4819     1  180.0000771  0.0000000  2
   4770   4819   4800   4802     1  0.0000000  1.2552000  3
   4771   4770   4819   4809     1  180.0000771  6.0668000  2
   4771   4770   4819   4809     1  180.0000771  1.4644000  4
   4772   4773   4775   4779     1  0.0000000  0.6508444  3
   4772   4773   4793   4794     1  0.0000000  1.0460000  1
   4772   4773   4793   4794     1  0.0000000  0.6694400  3
   4772   4783   4788   4789     1  0.0000000  1.0460000  1
   4772   4783   4788   4789     1  0.0000000  0.6694400  3
   4772   4790   4777   4780     1  0.0000000  1.6038667  3
   4773   4772   4783   4786     1  0.0000000  0.6508444  3
   4773   4772   4783   4787     1  0.0000000  0.6508444  3
   4773   4775   4776   4778     1  0.0000000  0.6508444  3
   4773   4775   4782   4784     1  0.0000000  1.0460000  1
   4773   4775   4782   4784     1  0.0000000  0.6694400  3
   4774   4772   4773   4775     1  0.0000000  0.6508444  3
   4774   4772   4773   4793     1  0.0000000  1.0460000  1
   4774   4772   4773   4793     1  0.0000000  0.0000000  3
   4774   4772   4773   4792     1  0.0000000  0.6508444  3
   4774   4772   4783   4788     1  0.0000000  1.0460000  1
   4774   4772   4783   4788     1  0.0000000  0.0000000  3
   4774   4772   4783   4786     1  0.0000000  0.6508444  3
   4774   4772   4783   4787     1  0.0000000  0.6508444  3
   4774   4772   4790   4777     1  0.0000000  1.6038667  3
   4775   4773   4793   4794     1  0.0000000  1.0460000  1
   4775   4773   4793   4794     1  0.0000000  0.6694400  3
   4775   4776   4777   4780     1  0.0000000  0.6508444  3
   4775   4776   4795   4785     1  0.0000000  1.2552000  3
   4776   4775   4773   4792     1  0.0000000  0.6508444  3
   4776   4775   4782   4784     1  0.0000000  1.0460000  1
   4776   4775   4782   4784     1  0.0000000  0.6694400  3
   4776   4777   4781   4791     1  0.0000000  1.0460000  1
   4776   4777   4781   4791     1  0.0000000  0.6694400  3
   4777   4776   4775   4779     1  0.0000000  0.6508444  3
   4777   4776   4795   4785     1  0.0000000  1.2552000  3
   4778   4776   4775   4782     1  0.0000000  1.0460000  1
   4778   4776   4775   4782     1  0.0000000  0.0000000  3
   4778   4776   4775   4779     1  0.0000000  0.6508444  3
   4778   4776   4777   4781     1  0.0000000  1.0460000  1
   4778   4776   4777   4781     1  0.0000000  0.0000000  3
   4778   4776   4777   4790     1  0.0000000  1.0460000  1
   4778   4776   4777   4790     1  0.0000000  0.0000000  3
   4778   4776   4777   4780     1  0.0000000  0.6508444  3
   4778   4776   4795   4785     1  0.0000000  1.2552000  3
   4779   4775   4773   4793     1  0.0000000  1.0460000  1
   4779   4775   4773   4793     1  0.0000000  0.0000000  3
   4779   4775   4773   4792     1  0.0000000  0.6508444  3
   4779   4775   4776   4795     1  0.0000000  0.6508444  3
   4779   4775   4782   4784     1  0.0000000  0.6973333  3
   4780   4777   4776   4795     1  0.0000000  0.6508444  3
   4780   4777   4781   4791     1  0.0000000  0.6973333  3
   4782   4775   4773   4792     1  0.0000000  1.0460000  1
   4782   4775   4773   4792     1  0.0000000  0.0000000  3
   4783   4772   4773   4792     1  0.0000000  0.6508444  3
   4786   4783   4772   4790     1  0.0000000  1.0460000  1
   4786   4783   4772   4790     1  0.0000000  0.0000000  3
   4786   4783   4788   4789     1  0.0000000  0.6973333  3
   4787   4783   4772   4790     1  0.0000000  1.0460000  1
   4787   4783   4772   4790     1  0.0000000  0.0000000  3
   4787   4783   4788   4789     1  0.0000000  0.6973333  3
   4790   4772   4773   4792     1  0.0000000  1.0460000  1
   4790   4772   4773   4792     1  0.0000000  0.0000000  3
   4790   4777   4781   4791     1  0.0000000  0.6973333  3
   4792   4773   4793   4794     1  0.0000000  0.6973333  3
   4796   4797   4799   4803     1  0.0000000  0.6508444  3
   4796   4797   4817   4818     1  0.0000000  1.0460000  1
   4796   4797   4817   4818     1  0.0000000  0.6694400  3
   4796   4807   4812   4813     1  0.0000000  1.0460000  1
   4796   4807   4812   4813     1  0.0000000  0.6694400  3
   4796   4814   4801   4804     1  0.0000000  1.6038667  3
   4797   4796   4807   4810     1  0.0000000  0.6508444  3
   4797   4796   4807   4811     1  0.0000000  0.6508444  3
   4797   4799   4800   4802     1  0.0000000  0.6508444  3
   4797   4799   4806   4808     1  0.0000000  1.0460000  1
   4797   4799   4806   4808     1  0.0000000  0.6694400  3
   4798   4796   4797   4799     1  0.0000000  0.6508444  3
   4798   4796   4797   4817     1  0.0000000  1.0460000  1
   4798   4796   4797   4817     1  0.0000000  0.0000000  3
   4798   4796   4797   4816     1  0.0000000  0.6508444  3
   4798   4796   4807   4812     1  0.0000000  1.0460000  1
   4798   4796   4807   4812     1  0.0000000  0.0000000  3
   4798   4796   4807   4810     1  0.0000000  0.6508444  3
   4798   4796   4807   4811     1  0.0000000  0.6508444  3
   4798   4796   4814   4801     1  0.0000000  1.6038667  3
   4799   4797   4817   4818     1  0.0000000  1.0460000  1
   4799   4797   4817   4818     1  0.0000000  0.6694400  3
   4799   4800   4801   4804     1  0.0000000  0.6508444  3
   4799   4800   4819   4809     1  0.0000000  1.2552000  3
   4800   4799   4797   4816     1  0.0000000  0.6508444  3
   4800   4799   4806   4808     1  0.0000000  1.0460000  1
   4800   4799   4806   4808     1  0.0000000  0.6694400  3
   4800   4801   4805   4815     1  0.0000000  1.0460000  1
   4800   4801   4805   4815     1  0.0000000  0.6694400  3
   4801   4800   4799   4803     1  0.0000000  0.6508444  3
   4801   4800   4819   4809     1  0.0000000  1.2552000  3
   4802   4800   4799   4806     1  0.0000000  1.0460000  1
   4802   4800   4799   4806     1  0.0000000  0.0000000  3
   4802   4800   4799   4803     1  0.0000000  0.6508444  3
   4802   4800   4801   4805     1  0.0000000  1.0460000  1
   4802   4800   4801   4805     1  0.0000000  0.0000000  3
   4802   4800   4801   4814     1  0.0000000  1.0460000  1
   4802   4800   4801   4814     1  0.0000000  0.0000000  3
   4802   4800   4801   4804     1  0.0000000  0.6508444  3
   4802   4800   4819   4809     1  0.0000000  1.2552000  3
   4803   4799   4797   4817     1  0.0000000  1.0460000  1
   4803   4799   4797   4817     1  0.0000000  0.0000000  3
   4803   4799   4797   4816     1  0.0000000  0.6508444  3
   4803   4799   4800   4819     1  0.0000000  0.6508444  3
   4803   4799   4806   4808     1  0.0000000  0.6973333  3
   4804   4801   4800   4819     1  0.0000000  0.6508444  3
   4804   4801   4805   4815     1  0.0000000  0.6973333  3
   4806   4799   4797   4816     1  0.0000000  1.0460000  1
   4806   4799   4797   4816     1  0.0000000  0.0000000  3
   4807   4796   4797   4816     1  0.0000000  0.6508444  3
   4810   4807   4796   4814     1  0.0000000  1.0460000  1
   4810   4807   4796   4814     1  0.0000000  0.0000000  3
   4810   4807   4812   4813     1  0.0000000  0.6973333  3
   4811   4807   4796   4814     1  0.0000000  1.0460000  1
   4811   4807   4796   4814     1  0.0000000  0.0000000  3
   4811   4807   4812   4813     1  0.0000000  0.6973333  3
   4814   4796   4797   4816     1  0.0000000  1.0460000  1
   4814   4796   4797   4816     1  0.0000000  0.0000000  3
   4814   4801   4805   4815     1  0.0000000  0.6973333  3
   4816   4797   4817   4818     1  0.0000000  0.6973333  3
   4820   4822   4824   4826     1  0.0000000  0.6508444  3
   4820   4822   4824   4827     1  0.0000000  0.6508444  3
   4821   4820   4822   4824     1  0.0000000  0.0000000  2
   4821   4820   4822   4823     1  0.0000000  0.0000000  2
   4821   4820   4822   4825     1  0.0000000  0.0000000  2
   4823   4822   4824   4828     1  0.0000000  0.6508444  3
   4823   4822   4824   4826     1  0.0000000  0.6508444  3
   4823   4822   4824   4827     1  0.0000000  0.6508444  3
   4824   4828   4829   4838     1  0.0000000  1.2552000  3
   4824   4828   4829   4839     1  0.0000000  1.2552000  3
   4824   4828   4830   4831     1  0.0000000  1.2552000  3
   4824   4828   4830   4833     1  0.0000000  1.2552000  3
   4825   4822   4824   4828     1  0.0000000  0.6508444  3
   4825   4822   4824   4826     1  0.0000000  0.6508444  3
   4825   4822   4824   4827     1  0.0000000  0.6508444  3
   4826   4824   4828   4829     1  0.0000000  1.2552000  3
   4826   4824   4828   4830     1  0.0000000  1.2552000  3
   4827   4824   4828   4829     1  0.0000000  1.2552000  3
   4827   4824   4828   4830     1  0.0000000  1.2552000  3
   4828   4829   4840   4841     1  0.0000000  0.6508444  3
   4828   4829   4840   4842     1  0.0000000  0.6508444  3
   4828   4830   4832   4834     1  0.0000000  0.6508444  3
   4828   4830   4832   4835     1  0.0000000  0.6508444  3
   4829   4828   4830   4831     1  0.0000000  1.2552000  3
   4829   4828   4830   4833     1  0.0000000  1.2552000  3
   4830   4828   4829   4838     1  0.0000000  1.2552000  3
   4830   4828   4829   4839     1  0.0000000  1.2552000  3
   4831   4830   4832   4836     1  0.0000000  0.6508444  3
   4831   4830   4832   4834     1  0.0000000  0.6508444  3
   4831   4830   4832   4835     1  0.0000000  0.6508444  3
   4832   4836   4868   4858     1  180.0000771  6.0668000  2
   4832   4836   4868   4858     1  180.0000771  1.4644000  4
   4833   4830   4832   4836     1  0.0000000  0.6508444  3
   4833   4830   4832   4834     1  0.0000000  0.6508444  3
   4833   4830   4832   4835     1  0.0000000  0.6508444  3
   4834   4832   4836   4837     1  0.0000000  3.3472000  1
   4834   4832   4836   4837     1  0.0000000  0.0000000  2
   4834   4832   4836   4837     1  180.0000771  0.3347200  3
   4834   4832   4836   4868     1  180.0000771  0.0000000  2
   4835   4832   4836   4837     1  0.0000000  3.3472000  1
   4835   4832   4836   4837     1  0.0000000  0.0000000  2
   4835   4832   4836   4837     1  180.0000771  0.3347200  3
   4835   4832   4836   4868     1  180.0000771  0.0000000  2
   4836   4868   4849   4851     1  0.0000000  1.2552000  3
   4837   4836   4868   4858     1  180.0000771  6.0668000  2
   4837   4836   4868   4858     1  180.0000771  1.4644000  4
   4838   4829   4840   4843     1  0.0000000  0.6508444  3
   4838   4829   4840   4841     1  0.0000000  0.6508444  3
   4838   4829   4840   4842     1  0.0000000  0.6508444  3
   4839   4829   4840   4843     1  0.0000000  0.6508444  3
   4839   4829   4840   4841     1  0.0000000  0.6508444  3
   4839   4829   4840   4842     1  0.0000000  0.6508444  3
   4840   4843   4892   4882     1  180.0000771  6.0668000  2
   4840   4843   4892   4882     1  180.0000771  1.4644000  4
   4841   4840   4843   4844     1  0.0000000  3.3472000  1
   4841   4840   4843   4844     1  0.0000000  0.0000000  2
   4841   4840   4843   4844     1  180.0000771  0.3347200  3
   4841   4840   4843   4892     1  180.0000771  0.0000000  2
   4842   4840   4843   4844     1  0.0000000  3.3472000  1
   4842   4840   4843   4844     1  0.0000000  0.0000000  2
   4842   4840   4843   4844     1  180.0000771  0.3347200  3
   4842   4840   4843   4892     1  180.0000771  0.0000000  2
   4843   4892   4873   4875     1  0.0000000  1.2552000  3
   4844   4843   4892   4882     1  180.0000771  6.0668000  2
   4844   4843   4892   4882     1  180.0000771  1.4644000  4
   4845   4846   4848   4852     1  0.0000000  0.6508444  3
   4845   4846   4866   4867     1  0.0000000  1.0460000  1
   4845   4846   4866   4867     1  0.0000000  0.6694400  3
   4845   4856   4861   4862     1  0.0000000  1.0460000  1
   4845   4856   4861   4862     1  0.0000000  0.6694400  3
   4845   4863   4850   4853     1  0.0000000  1.6038667  3
   4846   4848   4849   4851     1  0.0000000  0.6508444  3
   4846   4848   4855   4857     1  0.0000000  1.0460000  1
   4846   4848   4855   4857     1  0.0000000  0.6694400  3
   4846   4845   4856   4859     1  0.0000000  0.6508444  3
   4846   4845   4856   4860     1  0.0000000  0.6508444  3
   4847   4845   4846   4848     1  0.0000000  0.6508444  3
   4847   4845   4846   4866     1  0.0000000  1.0460000  1
   4847   4845   4846   4866     1  0.0000000  0.0000000  3
   4847   4845   4846   4865     1  0.0000000  0.6508444  3
   4847   4845   4856   4861     1  0.0000000  1.0460000  1
   4847   4845   4856   4861     1  0.0000000  0.0000000  3
   4847   4845   4856   4859     1  0.0000000  0.6508444  3
   4847   4845   4856   4860     1  0.0000000  0.6508444  3
   4847   4845   4863   4850     1  0.0000000  1.6038667  3
   4848   4849   4850   4853     1  0.0000000  0.6508444  3
   4848   4849   4868   4858     1  0.0000000  1.2552000  3
   4848   4846   4866   4867     1  0.0000000  1.0460000  1
   4848   4846   4866   4867     1  0.0000000  0.6694400  3
   4849   4850   4854   4864     1  0.0000000  1.0460000  1
   4849   4850   4854   4864     1  0.0000000  0.6694400  3
   4849   4848   4855   4857     1  0.0000000  1.0460000  1
   4849   4848   4855   4857     1  0.0000000  0.6694400  3
   4849   4848   4846   4865     1  0.0000000  0.6508444  3
   4850   4849   4868   4858     1  0.0000000  1.2552000  3
   4850   4849   4848   4852     1  0.0000000  0.6508444  3
   4851   4849   4850   4854     1  0.0000000  1.0460000  1
   4851   4849   4850   4854     1  0.0000000  0.0000000  3
   4851   4849   4850   4863     1  0.0000000  1.0460000  1
   4851   4849   4850   4863     1  0.0000000  0.0000000  3
   4851   4849   4850   4853     1  0.0000000  0.6508444  3
   4851   4849   4868   4858     1  0.0000000  1.2552000  3
   4851   4849   4848   4855     1  0.0000000  1.0460000  1
   4851   4849   4848   4855     1  0.0000000  0.0000000  3
   4851   4849   4848   4852     1  0.0000000  0.6508444  3
   4852   4848   4849   4868     1  0.0000000  0.6508444  3
   4852   4848   4855   4857     1  0.0000000  0.6973333  3
   4852   4848   4846   4866     1  0.0000000  1.0460000  1
   4852   4848   4846   4866     1  0.0000000  0.0000000  3
   4852   4848   4846   4865     1  0.0000000  0.6508444  3
   4853   4850   4854   4864     1  0.0000000  0.6973333  3
   4853   4850   4849   4868     1  0.0000000  0.6508444  3
   4855   4848   4846   4865     1  0.0000000  1.0460000  1
   4855   4848   4846   4865     1  0.0000000  0.0000000  3
   4856   4845   4846   4865     1  0.0000000  0.6508444  3
   4859   4856   4861   4862     1  0.0000000  0.6973333  3
   4859   4856   4845   4863     1  0.0000000  1.0460000  1
   4859   4856   4845   4863     1  0.0000000  0.0000000  3
   4860   4856   4861   4862     1  0.0000000  0.6973333  3
   4860   4856   4845   4863     1  0.0000000  1.0460000  1
   4860   4856   4845   4863     1  0.0000000  0.0000000  3
   4863   4850   4854   4864     1  0.0000000  0.6973333  3
   4863   4845   4846   4865     1  0.0000000  1.0460000  1
   4863   4845   4846   4865     1  0.0000000  0.0000000  3
   4865   4846   4866   4867     1  0.0000000  0.6973333  3
   4869   4870   4872   4876     1  0.0000000  0.6508444  3
   4869   4870   4890   4891     1  0.0000000  1.0460000  1
   4869   4870   4890   4891     1  0.0000000  0.6694400  3
   4869   4880   4885   4886     1  0.0000000  1.0460000  1
   4869   4880   4885   4886     1  0.0000000  0.6694400  3
   4869   4887   4874   4877     1  0.0000000  1.6038667  3
   4870   4872   4873   4875     1  0.0000000  0.6508444  3
   4870   4872   4879   4881     1  0.0000000  1.0460000  1
   4870   4872   4879   4881     1  0.0000000  0.6694400  3
   4870   4869   4880   4883     1  0.0000000  0.6508444  3
   4870   4869   4880   4884     1  0.0000000  0.6508444  3
   4871   4869   4870   4872     1  0.0000000  0.6508444  3
   4871   4869   4870   4890     1  0.0000000  1.0460000  1
   4871   4869   4870   4890     1  0.0000000  0.0000000  3
   4871   4869   4870   4889     1  0.0000000  0.6508444  3
   4871   4869   4880   4885     1  0.0000000  1.0460000  1
   4871   4869   4880   4885     1  0.0000000  0.0000000  3
   4871   4869   4880   4883     1  0.0000000  0.6508444  3
   4871   4869   4880   4884     1  0.0000000  0.6508444  3
   4871   4869   4887   4874     1  0.0000000  1.6038667  3
   4872   4873   4874   4877     1  0.0000000  0.6508444  3
   4872   4873   4892   4882     1  0.0000000  1.2552000  3
   4872   4870   4890   4891     1  0.0000000  1.0460000  1
   4872   4870   4890   4891     1  0.0000000  0.6694400  3
   4873   4874   4878   4888     1  0.0000000  1.0460000  1
   4873   4874   4878   4888     1  0.0000000  0.6694400  3
   4873   4872   4879   4881     1  0.0000000  1.0460000  1
   4873   4872   4879   4881     1  0.0000000  0.6694400  3
   4873   4872   4870   4889     1  0.0000000  0.6508444  3
   4874   4873   4892   4882     1  0.0000000  1.2552000  3
   4874   4873   4872   4876     1  0.0000000  0.6508444  3
   4875   4873   4874   4878     1  0.0000000  1.0460000  1
   4875   4873   4874   4878     1  0.0000000  0.0000000  3
   4875   4873   4874   4887     1  0.0000000  1.0460000  1
   4875   4873   4874   4887     1  0.0000000  0.0000000  3
   4875   4873   4874   4877     1  0.0000000  0.6508444  3
   4875   4873   4892   4882     1  0.0000000  1.2552000  3
   4875   4873   4872   4879     1  0.0000000  1.0460000  1
   4875   4873   4872   4879     1  0.0000000  0.0000000  3
   4875   4873   4872   4876     1  0.0000000  0.6508444  3
   4876   4872   4873   4892     1  0.0000000  0.6508444  3
   4876   4872   4879   4881     1  0.0000000  0.6973333  3
   4876   4872   4870   4890     1  0.0000000  1.0460000  1
   4876   4872   4870   4890     1  0.0000000  0.0000000  3
   4876   4872   4870   4889     1  0.0000000  0.6508444  3
   4877   4874   4878   4888     1  0.0000000  0.6973333  3
   4877   4874   4873   4892     1  0.0000000  0.6508444  3
   4879   4872   4870   4889     1  0.0000000  1.0460000  1
   4879   4872   4870   4889     1  0.0000000  0.0000000  3
   4880   4869   4870   4889     1  0.0000000  0.6508444  3
   4883   4880   4885   4886     1  0.0000000  0.6973333  3
   4883   4880   4869   4887     1  0.0000000  1.0460000  1
   4883   4880   4869   4887     1  0.0000000  0.0000000  3
   4884   4880   4885   4886     1  0.0000000  0.6973333  3
   4884   4880   4869   4887     1  0.0000000  1.0460000  1
   4884   4880   4869   4887     1  0.0000000  0.0000000  3
   4887   4874   4878   4888     1  0.0000000  0.6973333  3
   4887   4869   4870   4889     1  0.0000000  1.0460000  1
   4887   4869   4870   4889     1  0.0000000  0.0000000  3
   4889   4870   4890   4891     1  0.0000000  0.6973333  3
   4893   4895   4897   4899     1  0.0000000  0.6508444  3
   4893   4895   4897   4900     1  0.0000000  0.6508444  3
   4894   4893   4895   4897     1  0.0000000  0.0000000  2
   4894   4893   4895   4896     1  0.0000000  0.0000000  2
   4894   4893   4895   4898     1  0.0000000  0.0000000  2
   4896   4895   4897   4901     1  0.0000000  0.6508444  3
   4896   4895   4897   4899     1  0.0000000  0.6508444  3
   4896   4895   4897   4900     1  0.0000000  0.6508444  3
   4897   4901   4902   4911     1  0.0000000  1.2552000  3
   4897   4901   4902   4912     1  0.0000000  1.2552000  3
   4897   4901   4903   4904     1  0.0000000  1.2552000  3
   4897   4901   4903   4906     1  0.0000000  1.2552000  3
   4898   4895   4897   4901     1  0.0000000  0.6508444  3
   4898   4895   4897   4899     1  0.0000000  0.6508444  3
   4898   4895   4897   4900     1  0.0000000  0.6508444  3
   4899   4897   4901   4902     1  0.0000000  1.2552000  3
   4899   4897   4901   4903     1  0.0000000  1.2552000  3
   4900   4897   4901   4902     1  0.0000000  1.2552000  3
   4900   4897   4901   4903     1  0.0000000  1.2552000  3
   4901   4902   4913   4914     1  0.0000000  0.6508444  3
   4901   4902   4913   4915     1  0.0000000  0.6508444  3
   4901   4903   4905   4907     1  0.0000000  0.6508444  3
   4901   4903   4905   4908     1  0.0000000  0.6508444  3
   4902   4901   4903   4904     1  0.0000000  1.2552000  3
   4902   4901   4903   4906     1  0.0000000  1.2552000  3
   4903   4901   4902   4911     1  0.0000000  1.2552000  3
   4903   4901   4902   4912     1  0.0000000  1.2552000  3
   4904   4903   4905   4909     1  0.0000000  0.6508444  3
   4904   4903   4905   4907     1  0.0000000  0.6508444  3
   4904   4903   4905   4908     1  0.0000000  0.6508444  3
   4905   4909   4941   4931     1  180.0000771  6.0668000  2
   4905   4909   4941   4931     1  180.0000771  1.4644000  4
   4906   4903   4905   4909     1  0.0000000  0.6508444  3
   4906   4903   4905   4907     1  0.0000000  0.6508444  3
   4906   4903   4905   4908     1  0.0000000  0.6508444  3
   4907   4905   4909   4910     1  0.0000000  3.3472000  1
   4907   4905   4909   4910     1  0.0000000  0.0000000  2
   4907   4905   4909   4910     1  180.0000771  0.3347200  3
   4907   4905   4909   4941     1  180.0000771  0.0000000  2
   4908   4905   4909   4910     1  0.0000000  3.3472000  1
   4908   4905   4909   4910     1  0.0000000  0.0000000  2
   4908   4905   4909   4910     1  180.0000771  0.3347200  3
   4908   4905   4909   4941     1  180.0000771  0.0000000  2
   4909   4941   4922   4924     1  0.0000000  1.2552000  3
   4910   4909   4941   4931     1  180.0000771  6.0668000  2
   4910   4909   4941   4931     1  180.0000771  1.4644000  4
   4911   4902   4913   4916     1  0.0000000  0.6508444  3
   4911   4902   4913   4914     1  0.0000000  0.6508444  3
   4911   4902   4913   4915     1  0.0000000  0.6508444  3
   4912   4902   4913   4916     1  0.0000000  0.6508444  3
   4912   4902   4913   4914     1  0.0000000  0.6508444  3
   4912   4902   4913   4915     1  0.0000000  0.6508444  3
   4913   4916   4965   4955     1  180.0000771  6.0668000  2
   4913   4916   4965   4955     1  180.0000771  1.4644000  4
   4914   4913   4916   4917     1  0.0000000  3.3472000  1
   4914   4913   4916   4917     1  0.0000000  0.0000000  2
   4914   4913   4916   4917     1  180.0000771  0.3347200  3
   4914   4913   4916   4965     1  180.0000771  0.0000000  2
   4915   4913   4916   4917     1  0.0000000  3.3472000  1
   4915   4913   4916   4917     1  0.0000000  0.0000000  2
   4915   4913   4916   4917     1  180.0000771  0.3347200  3
   4915   4913   4916   4965     1  180.0000771  0.0000000  2
   4916   4965   4946   4948     1  0.0000000  1.2552000  3
   4917   4916   4965   4955     1  180.0000771  6.0668000  2
   4917   4916   4965   4955     1  180.0000771  1.4644000  4
   4918   4919   4921   4925     1  0.0000000  0.6508444  3
   4918   4919   4939   4940     1  0.0000000  1.0460000  1
   4918   4919   4939   4940     1  0.0000000  0.6694400  3
   4918   4929   4934   4935     1  0.0000000  1.0460000  1
   4918   4929   4934   4935     1  0.0000000  0.6694400  3
   4918   4936   4923   4926     1  0.0000000  1.6038667  3
   4919   4918   4929   4932     1  0.0000000  0.6508444  3
   4919   4918   4929   4933     1  0.0000000  0.6508444  3
   4919   4921   4922   4924     1  0.0000000  0.6508444  3
   4919   4921   4928   4930     1  0.0000000  1.0460000  1
   4919   4921   4928   4930     1  0.0000000  0.6694400  3
   4920   4918   4919   4921     1  0.0000000  0.6508444  3
   4920   4918   4919   4939     1  0.0000000  1.0460000  1
   4920   4918   4919   4939     1  0.0000000  0.0000000  3
   4920   4918   4919   4938     1  0.0000000  0.6508444  3
   4920   4918   4929   4934     1  0.0000000  1.0460000  1
   4920   4918   4929   4934     1  0.0000000  0.0000000  3
   4920   4918   4929   4932     1  0.0000000  0.6508444  3
   4920   4918   4929   4933     1  0.0000000  0.6508444  3
   4920   4918   4936   4923     1  0.0000000  1.6038667  3
   4921   4919   4939   4940     1  0.0000000  1.0460000  1
   4921   4919   4939   4940     1  0.0000000  0.6694400  3
   4921   4922   4923   4926     1  0.0000000  0.6508444  3
   4921   4922   4941   4931     1  0.0000000  1.2552000  3
   4922   4921   4919   4938     1  0.0000000  0.6508444  3
   4922   4921   4928   4930     1  0.0000000  1.0460000  1
   4922   4921   4928   4930     1  0.0000000  0.6694400  3
   4922   4923   4927   4937     1  0.0000000  1.0460000  1
   4922   4923   4927   4937     1  0.0000000  0.6694400  3
   4923   4922   4921   4925     1  0.0000000  0.6508444  3
   4923   4922   4941   4931     1  0.0000000  1.2552000  3
   4924   4922   4921   4928     1  0.0000000  1.0460000  1
   4924   4922   4921   4928     1  0.0000000  0.0000000  3
   4924   4922   4921   4925     1  0.0000000  0.6508444  3
   4924   4922   4923   4927     1  0.0000000  1.0460000  1
   4924   4922   4923   4927     1  0.0000000  0.0000000  3
   4924   4922   4923   4936     1  0.0000000  1.0460000  1
   4924   4922   4923   4936     1  0.0000000  0.0000000  3
   4924   4922   4923   4926     1  0.0000000  0.6508444  3
   4924   4922   4941   4931     1  0.0000000  1.2552000  3
   4925   4921   4919   4939     1  0.0000000  1.0460000  1
   4925   4921   4919   4939     1  0.0000000  0.0000000  3
   4925   4921   4919   4938     1  0.0000000  0.6508444  3
   4925   4921   4922   4941     1  0.0000000  0.6508444  3
   4925   4921   4928   4930     1  0.0000000  0.6973333  3
   4926   4923   4922   4941     1  0.0000000  0.6508444  3
   4926   4923   4927   4937     1  0.0000000  0.6973333  3
   4928   4921   4919   4938     1  0.0000000  1.0460000  1
   4928   4921   4919   4938     1  0.0000000  0.0000000  3
   4929   4918   4919   4938     1  0.0000000  0.6508444  3
   4932   4929   4918   4936     1  0.0000000  1.0460000  1
   4932   4929   4918   4936     1  0.0000000  0.0000000  3
   4932   4929   4934   4935     1  0.0000000  0.6973333  3
   4933   4929   4918   4936     1  0.0000000  1.0460000  1
   4933   4929   4918   4936     1  0.0000000  0.0000000  3
   4933   4929   4934   4935     1  0.0000000  0.6973333  3
   4936   4918   4919   4938     1  0.0000000  1.0460000  1
   4936   4918   4919   4938     1  0.0000000  0.0000000  3
   4936   4923   4927   4937     1  0.0000000  0.6973333  3
   4938   4919   4939   4940     1  0.0000000  0.6973333  3
   4942   4943   4945   4949     1  0.0000000  0.6508444  3
   4942   4943   4963   4964     1  0.0000000  1.0460000  1
   4942   4943   4963   4964     1  0.0000000  0.6694400  3
   4942   4953   4958   4959     1  0.0000000  1.0460000  1
   4942   4953   4958   4959     1  0.0000000  0.6694400  3
   4942   4960   4947   4950     1  0.0000000  1.6038667  3
   4943   4942   4953   4956     1  0.0000000  0.6508444  3
   4943   4942   4953   4957     1  0.0000000  0.6508444  3
   4943   4945   4946   4948     1  0.0000000  0.6508444  3
   4943   4945   4952   4954     1  0.0000000  1.0460000  1
   4943   4945   4952   4954     1  0.0000000  0.6694400  3
   4944   4942   4943   4945     1  0.0000000  0.6508444  3
   4944   4942   4943   4963     1  0.0000000  1.0460000  1
   4944   4942   4943   4963     1  0.0000000  0.0000000  3
   4944   4942   4943   4962     1  0.0000000  0.6508444  3
   4944   4942   4953   4958     1  0.0000000  1.0460000  1
   4944   4942   4953   4958     1  0.0000000  0.0000000  3
   4944   4942   4953   4956     1  0.0000000  0.6508444  3
   4944   4942   4953   4957     1  0.0000000  0.6508444  3
   4944   4942   4960   4947     1  0.0000000  1.6038667  3
   4945   4943   4963   4964     1  0.0000000  1.0460000  1
   4945   4943   4963   4964     1  0.0000000  0.6694400  3
   4945   4946   4947   4950     1  0.0000000  0.6508444  3
   4945   4946   4965   4955     1  0.0000000  1.2552000  3
   4946   4945   4943   4962     1  0.0000000  0.6508444  3
   4946   4945   4952   4954     1  0.0000000  1.0460000  1
   4946   4945   4952   4954     1  0.0000000  0.6694400  3
   4946   4947   4951   4961     1  0.0000000  1.0460000  1
   4946   4947   4951   4961     1  0.0000000  0.6694400  3
   4947   4946   4945   4949     1  0.0000000  0.6508444  3
   4947   4946   4965   4955     1  0.0000000  1.2552000  3
   4948   4946   4945   4952     1  0.0000000  1.0460000  1
   4948   4946   4945   4952     1  0.0000000  0.0000000  3
   4948   4946   4945   4949     1  0.0000000  0.6508444  3
   4948   4946   4947   4951     1  0.0000000  1.0460000  1
   4948   4946   4947   4951     1  0.0000000  0.0000000  3
   4948   4946   4947   4960     1  0.0000000  1.0460000  1
   4948   4946   4947   4960     1  0.0000000  0.0000000  3
   4948   4946   4947   4950     1  0.0000000  0.6508444  3
   4948   4946   4965   4955     1  0.0000000  1.2552000  3
   4949   4945   4943   4963     1  0.0000000  1.0460000  1
   4949   4945   4943   4963     1  0.0000000  0.0000000  3
   4949   4945   4943   4962     1  0.0000000  0.6508444  3
   4949   4945   4946   4965     1  0.0000000  0.6508444  3
   4949   4945   4952   4954     1  0.0000000  0.6973333  3
   4950   4947   4946   4965     1  0.0000000  0.6508444  3
   4950   4947   4951   4961     1  0.0000000  0.6973333  3
   4952   4945   4943   4962     1  0.0000000  1.0460000  1
   4952   4945   4943   4962     1  0.0000000  0.0000000  3
   4953   4942   4943   4962     1  0.0000000  0.6508444  3
   4956   4953   4942   4960     1  0.0000000  1.0460000  1
   4956   4953   4942   4960     1  0.0000000  0.0000000  3
   4956   4953   4958   4959     1  0.0000000  0.6973333  3
   4957   4953   4942   4960     1  0.0000000  1.0460000  1
   4957   4953   4942   4960     1  0.0000000  0.0000000  3
   4957   4953   4958   4959     1  0.0000000  0.6973333  3
   4960   4942   4943   4962     1  0.0000000  1.0460000  1
   4960   4942   4943   4962     1  0.0000000  0.0000000  3
   4960   4947   4951   4961     1  0.0000000  0.6973333  3
   4962   4943   4963   4964     1  0.0000000  0.6973333  3
   4966   4968   4970   4972     1  0.0000000  0.6508444  3
   4966   4968   4970   4973     1  0.0000000  0.6508444  3
   4967   4966   4968   4970     1  0.0000000  0.0000000  2
   4967   4966   4968   4969     1  0.0000000  0.0000000  2
   4967   4966   4968   4971     1  0.0000000  0.0000000  2
   4969   4968   4970   4974     1  0.0000000  0.6508444  3
   4969   4968   4970   4972     1  0.0000000  0.6508444  3
   4969   4968   4970   4973     1  0.0000000  0.6508444  3
   4970   4974   4975   4984     1  0.0000000  1.2552000  3
   4970   4974   4975   4985     1  0.0000000  1.2552000  3
   4970   4974   4976   4977     1  0.0000000  1.2552000  3
   4970   4974   4976   4979     1  0.0000000  1.2552000  3
   4971   4968   4970   4974     1  0.0000000  0.6508444  3
   4971   4968   4970   4972     1  0.0000000  0.6508444  3
   4971   4968   4970   4973     1  0.0000000  0.6508444  3
   4972   4970   4974   4975     1  0.0000000  1.2552000  3
   4972   4970   4974   4976     1  0.0000000  1.2552000  3
   4973   4970   4974   4975     1  0.0000000  1.2552000  3
   4973   4970   4974   4976     1  0.0000000  1.2552000  3
   4974   4975   4986   4987     1  0.0000000  0.6508444  3
   4974   4975   4986   4988     1  0.0000000  0.6508444  3
   4974   4976   4978   4980     1  0.0000000  0.6508444  3
   4974   4976   4978   4981     1  0.0000000  0.6508444  3
   4975   4974   4976   4977     1  0.0000000  1.2552000  3
   4975   4974   4976   4979     1  0.0000000  1.2552000  3
   4976   4974   4975   4984     1  0.0000000  1.2552000  3
   4976   4974   4975   4985     1  0.0000000  1.2552000  3
   4977   4976   4978   4982     1  0.0000000  0.6508444  3
   4977   4976   4978   4980     1  0.0000000  0.6508444  3
   4977   4976   4978   4981     1  0.0000000  0.6508444  3
   4978   4982   5014   5004     1  180.0000771  6.0668000  2
   4978   4982   5014   5004     1  180.0000771  1.4644000  4
   4979   4976   4978   4982     1  0.0000000  0.6508444  3
   4979   4976   4978   4980     1  0.0000000  0.6508444  3
   4979   4976   4978   4981     1  0.0000000  0.6508444  3
   4980   4978   4982   4983     1  0.0000000  3.3472000  1
   4980   4978   4982   4983     1  0.0000000  0.0000000  2
   4980   4978   4982   4983     1  180.0000771  0.3347200  3
   4980   4978   4982   5014     1  180.0000771  0.0000000  2
   4981   4978   4982   4983     1  0.0000000  3.3472000  1
   4981   4978   4982   4983     1  0.0000000  0.0000000  2
   4981   4978   4982   4983     1  180.0000771  0.3347200  3
   4981   4978   4982   5014     1  180.0000771  0.0000000  2
   4982   5014   4995   4997     1  0.0000000  1.2552000  3
   4983   4982   5014   5004     1  180.0000771  6.0668000  2
   4983   4982   5014   5004     1  180.0000771  1.4644000  4
   4984   4975   4986   4989     1  0.0000000  0.6508444  3
   4984   4975   4986   4987     1  0.0000000  0.6508444  3
   4984   4975   4986   4988     1  0.0000000  0.6508444  3
   4985   4975   4986   4989     1  0.0000000  0.6508444  3
   4985   4975   4986   4987     1  0.0000000  0.6508444  3
   4985   4975   4986   4988     1  0.0000000  0.6508444  3
   4986   4989   5038   5028     1  180.0000771  6.0668000  2
   4986   4989   5038   5028     1  180.0000771  1.4644000  4
   4987   4986   4989   4990     1  0.0000000  3.3472000  1
   4987   4986   4989   4990     1  0.0000000  0.0000000  2
   4987   4986   4989   4990     1  180.0000771  0.3347200  3
   4987   4986   4989   5038     1  180.0000771  0.0000000  2
   4988   4986   4989   4990     1  0.0000000  3.3472000  1
   4988   4986   4989   4990     1  0.0000000  0.0000000  2
   4988   4986   4989   4990     1  180.0000771  0.3347200  3
   4988   4986   4989   5038     1  180.0000771  0.0000000  2
   4989   5038   5019   5021     1  0.0000000  1.2552000  3
   4990   4989   5038   5028     1  180.0000771  6.0668000  2
   4990   4989   5038   5028     1  180.0000771  1.4644000  4
   4991   4992   4994   4998     1  0.0000000  0.6508444  3
   4991   4992   5012   5013     1  0.0000000  1.0460000  1
   4991   4992   5012   5013     1  0.0000000  0.6694400  3
   4991   5002   5007   5008     1  0.0000000  1.0460000  1
   4991   5002   5007   5008     1  0.0000000  0.6694400  3
   4991   5009   4996   4999     1  0.0000000  1.6038667  3
   4992   4994   4995   4997     1  0.0000000  0.6508444  3
   4992   4994   5001   5003     1  0.0000000  1.0460000  1
   4992   4994   5001   5003     1  0.0000000  0.6694400  3
   4992   4991   5002   5005     1  0.0000000  0.6508444  3
   4992   4991   5002   5006     1  0.0000000  0.6508444  3
   4993   4991   4992   4994     1  0.0000000  0.6508444  3
   4993   4991   4992   5012     1  0.0000000  1.0460000  1
   4993   4991   4992   5012     1  0.0000000  0.0000000  3
   4993   4991   4992   5011     1  0.0000000  0.6508444  3
   4993   4991   5002   5007     1  0.0000000  1.0460000  1
   4993   4991   5002   5007     1  0.0000000  0.0000000  3
   4993   4991   5002   5005     1  0.0000000  0.6508444  3
   4993   4991   5002   5006     1  0.0000000  0.6508444  3
   4993   4991   5009   4996     1  0.0000000  1.6038667  3
   4994   4995   4996   4999     1  0.0000000  0.6508444  3
   4994   4995   5014   5004     1  0.0000000  1.2552000  3
   4994   4992   5012   5013     1  0.0000000  1.0460000  1
   4994   4992   5012   5013     1  0.0000000  0.6694400  3
   4995   4996   5000   5010     1  0.0000000  1.0460000  1
   4995   4996   5000   5010     1  0.0000000  0.6694400  3
   4995   4994   5001   5003     1  0.0000000  1.0460000  1
   4995   4994   5001   5003     1  0.0000000  0.6694400  3
   4995   4994   4992   5011     1  0.0000000  0.6508444  3
   4996   4995   5014   5004     1  0.0000000  1.2552000  3
   4996   4995   4994   4998     1  0.0000000  0.6508444  3
   4997   4995   4996   5000     1  0.0000000  1.0460000  1
   4997   4995   4996   5000     1  0.0000000  0.0000000  3
   4997   4995   4996   5009     1  0.0000000  1.0460000  1
   4997   4995   4996   5009     1  0.0000000  0.0000000  3
   4997   4995   4996   4999     1  0.0000000  0.6508444  3
   4997   4995   5014   5004     1  0.0000000  1.2552000  3
   4997   4995   4994   5001     1  0.0000000  1.0460000  1
   4997   4995   4994   5001     1  0.0000000  0.0000000  3
   4997   4995   4994   4998     1  0.0000000  0.6508444  3
   4998   4994   4995   5014     1  0.0000000  0.6508444  3
   4998   4994   5001   5003     1  0.0000000  0.6973333  3
   4998   4994   4992   5012     1  0.0000000  1.0460000  1
   4998   4994   4992   5012     1  0.0000000  0.0000000  3
   4998   4994   4992   5011     1  0.0000000  0.6508444  3
   4999   4996   5000   5010     1  0.0000000  0.6973333  3
   4999   4996   4995   5014     1  0.0000000  0.6508444  3
   5001   4994   4992   5011     1  0.0000000  1.0460000  1
   5001   4994   4992   5011     1  0.0000000  0.0000000  3
   5002   4991   4992   5011     1  0.0000000  0.6508444  3
   5005   5002   5007   5008     1  0.0000000  0.6973333  3
   5005   5002   4991   5009     1  0.0000000  1.0460000  1
   5005   5002   4991   5009     1  0.0000000  0.0000000  3
   5006   5002   5007   5008     1  0.0000000  0.6973333  3
   5006   5002   4991   5009     1  0.0000000  1.0460000  1
   5006   5002   4991   5009     1  0.0000000  0.0000000  3
   5009   4996   5000   5010     1  0.0000000  0.6973333  3
   5009   4991   4992   5011     1  0.0000000  1.0460000  1
   5009   4991   4992   5011     1  0.0000000  0.0000000  3
   5011   4992   5012   5013     1  0.0000000  0.6973333  3
   5015   5016   5018   5022     1  0.0000000  0.6508444  3
   5015   5016   5036   5037     1  0.0000000  1.0460000  1
   5015   5016   5036   5037     1  0.0000000  0.6694400  3
   5015   5026   5031   5032     1  0.0000000  1.0460000  1
   5015   5026   5031   5032     1  0.0000000  0.6694400  3
   5015   5033   5020   5023     1  0.0000000  1.6038667  3
   5016   5018   5019   5021     1  0.0000000  0.6508444  3
   5016   5018   5025   5027     1  0.0000000  1.0460000  1
   5016   5018   5025   5027     1  0.0000000  0.6694400  3
   5016   5015   5026   5029     1  0.0000000  0.6508444  3
   5016   5015   5026   5030     1  0.0000000  0.6508444  3
   5017   5015   5016   5018     1  0.0000000  0.6508444  3
   5017   5015   5016   5036     1  0.0000000  1.0460000  1
   5017   5015   5016   5036     1  0.0000000  0.0000000  3
   5017   5015   5016   5035     1  0.0000000  0.6508444  3
   5017   5015   5026   5031     1  0.0000000  1.0460000  1
   5017   5015   5026   5031     1  0.0000000  0.0000000  3
   5017   5015   5026   5029     1  0.0000000  0.6508444  3
   5017   5015   5026   5030     1  0.0000000  0.6508444  3
   5017   5015   5033   5020     1  0.0000000  1.6038667  3
   5018   5019   5020   5023     1  0.0000000  0.6508444  3
   5018   5019   5038   5028     1  0.0000000  1.2552000  3
   5018   5016   5036   5037     1  0.0000000  1.0460000  1
   5018   5016   5036   5037     1  0.0000000  0.6694400  3
   5019   5020   5024   5034     1  0.0000000  1.0460000  1
   5019   5020   5024   5034     1  0.0000000  0.6694400  3
   5019   5018   5025   5027     1  0.0000000  1.0460000  1
   5019   5018   5025   5027     1  0.0000000  0.6694400  3
   5019   5018   5016   5035     1  0.0000000  0.6508444  3
   5020   5019   5038   5028     1  0.0000000  1.2552000  3
   5020   5019   5018   5022     1  0.0000000  0.6508444  3
   5021   5019   5020   5024     1  0.0000000  1.0460000  1
   5021   5019   5020   5024     1  0.0000000  0.0000000  3
   5021   5019   5020   5033     1  0.0000000  1.0460000  1
   5021   5019   5020   5033     1  0.0000000  0.0000000  3
   5021   5019   5020   5023     1  0.0000000  0.6508444  3
   5021   5019   5038   5028     1  0.0000000  1.2552000  3
   5021   5019   5018   5025     1  0.0000000  1.0460000  1
   5021   5019   5018   5025     1  0.0000000  0.0000000  3
   5021   5019   5018   5022     1  0.0000000  0.6508444  3
   5022   5018   5019   5038     1  0.0000000  0.6508444  3
   5022   5018   5025   5027     1  0.0000000  0.6973333  3
   5022   5018   5016   5036     1  0.0000000  1.0460000  1
   5022   5018   5016   5036     1  0.0000000  0.0000000  3
   5022   5018   5016   5035     1  0.0000000  0.6508444  3
   5023   5020   5024   5034     1  0.0000000  0.6973333  3
   5023   5020   5019   5038     1  0.0000000  0.6508444  3
   5025   5018   5016   5035     1  0.0000000  1.0460000  1
   5025   5018   5016   5035     1  0.0000000  0.0000000  3
   5026   5015   5016   5035     1  0.0000000  0.6508444  3
   5029   5026   5031   5032     1  0.0000000  0.6973333  3
   5029   5026   5015   5033     1  0.0000000  1.0460000  1
   5029   5026   5015   5033     1  0.0000000  0.0000000  3
   5030   5026   5031   5032     1  0.0000000  0.6973333  3
   5030   5026   5015   5033     1  0.0000000  1.0460000  1
   5030   5026   5015   5033     1  0.0000000  0.0000000  3
   5033   5020   5024   5034     1  0.0000000  0.6973333  3
   5033   5015   5016   5035     1  0.0000000  1.0460000  1
   5033   5015   5016   5035     1  0.0000000  0.0000000  3
   5035   5016   5036   5037     1  0.0000000  0.6973333  3
   5039   5041   5043   5045     1  0.0000000  0.6508444  3
   5039   5041   5043   5046     1  0.0000000  0.6508444  3
   5040   5039   5041   5043     1  0.0000000  0.0000000  2
   5040   5039   5041   5042     1  0.0000000  0.0000000  2
   5040   5039   5041   5044     1  0.0000000  0.0000000  2
   5042   5041   5043   5047     1  0.0000000  0.6508444  3
   5042   5041   5043   5045     1  0.0000000  0.6508444  3
   5042   5041   5043   5046     1  0.0000000  0.6508444  3
   5043   5047   5048   5057     1  0.0000000  1.2552000  3
   5043   5047   5048   5058     1  0.0000000  1.2552000  3
   5043   5047   5049   5050     1  0.0000000  1.2552000  3
   5043   5047   5049   5052     1  0.0000000  1.2552000  3
   5044   5041   5043   5047     1  0.0000000  0.6508444  3
   5044   5041   5043   5045     1  0.0000000  0.6508444  3
   5044   5041   5043   5046     1  0.0000000  0.6508444  3
   5045   5043   5047   5048     1  0.0000000  1.2552000  3
   5045   5043   5047   5049     1  0.0000000  1.2552000  3
   5046   5043   5047   5048     1  0.0000000  1.2552000  3
   5046   5043   5047   5049     1  0.0000000  1.2552000  3
   5047   5048   5059   5060     1  0.0000000  0.6508444  3
   5047   5048   5059   5061     1  0.0000000  0.6508444  3
   5047   5049   5051   5053     1  0.0000000  0.6508444  3
   5047   5049   5051   5054     1  0.0000000  0.6508444  3
   5048   5047   5049   5050     1  0.0000000  1.2552000  3
   5048   5047   5049   5052     1  0.0000000  1.2552000  3
   5049   5047   5048   5057     1  0.0000000  1.2552000  3
   5049   5047   5048   5058     1  0.0000000  1.2552000  3
   5050   5049   5051   5055     1  0.0000000  0.6508444  3
   5050   5049   5051   5053     1  0.0000000  0.6508444  3
   5050   5049   5051   5054     1  0.0000000  0.6508444  3
   5051   5055   5087   5077     1  180.0000771  6.0668000  2
   5051   5055   5087   5077     1  180.0000771  1.4644000  4
   5052   5049   5051   5055     1  0.0000000  0.6508444  3
   5052   5049   5051   5053     1  0.0000000  0.6508444  3
   5052   5049   5051   5054     1  0.0000000  0.6508444  3
   5053   5051   5055   5056     1  0.0000000  3.3472000  1
   5053   5051   5055   5056     1  0.0000000  0.0000000  2
   5053   5051   5055   5056     1  180.0000771  0.3347200  3
   5053   5051   5055   5087     1  180.0000771  0.0000000  2
   5054   5051   5055   5056     1  0.0000000  3.3472000  1
   5054   5051   5055   5056     1  0.0000000  0.0000000  2
   5054   5051   5055   5056     1  180.0000771  0.3347200  3
   5054   5051   5055   5087     1  180.0000771  0.0000000  2
   5055   5087   5068   5070     1  0.0000000  1.2552000  3
   5056   5055   5087   5077     1  180.0000771  6.0668000  2
   5056   5055   5087   5077     1  180.0000771  1.4644000  4
   5057   5048   5059   5062     1  0.0000000  0.6508444  3
   5057   5048   5059   5060     1  0.0000000  0.6508444  3
   5057   5048   5059   5061     1  0.0000000  0.6508444  3
   5058   5048   5059   5062     1  0.0000000  0.6508444  3
   5058   5048   5059   5060     1  0.0000000  0.6508444  3
   5058   5048   5059   5061     1  0.0000000  0.6508444  3
   5059   5062   5111   5101     1  180.0000771  6.0668000  2
   5059   5062   5111   5101     1  180.0000771  1.4644000  4
   5060   5059   5062   5063     1  0.0000000  3.3472000  1
   5060   5059   5062   5063     1  0.0000000  0.0000000  2
   5060   5059   5062   5063     1  180.0000771  0.3347200  3
   5060   5059   5062   5111     1  180.0000771  0.0000000  2
   5061   5059   5062   5063     1  0.0000000  3.3472000  1
   5061   5059   5062   5063     1  0.0000000  0.0000000  2
   5061   5059   5062   5063     1  180.0000771  0.3347200  3
   5061   5059   5062   5111     1  180.0000771  0.0000000  2
   5062   5111   5092   5094     1  0.0000000  1.2552000  3
   5063   5062   5111   5101     1  180.0000771  6.0668000  2
   5063   5062   5111   5101     1  180.0000771  1.4644000  4
   5064   5065   5067   5071     1  0.0000000  0.6508444  3
   5064   5065   5085   5086     1  0.0000000  1.0460000  1
   5064   5065   5085   5086     1  0.0000000  0.6694400  3
   5064   5075   5080   5081     1  0.0000000  1.0460000  1
   5064   5075   5080   5081     1  0.0000000  0.6694400  3
   5064   5082   5069   5072     1  0.0000000  1.6038667  3
   5065   5064   5075   5078     1  0.0000000  0.6508444  3
   5065   5064   5075   5079     1  0.0000000  0.6508444  3
   5065   5067   5068   5070     1  0.0000000  0.6508444  3
   5065   5067   5074   5076     1  0.0000000  1.0460000  1
   5065   5067   5074   5076     1  0.0000000  0.6694400  3
   5066   5064   5065   5067     1  0.0000000  0.6508444  3
   5066   5064   5065   5085     1  0.0000000  1.0460000  1
   5066   5064   5065   5085     1  0.0000000  0.0000000  3
   5066   5064   5065   5084     1  0.0000000  0.6508444  3
   5066   5064   5075   5080     1  0.0000000  1.0460000  1
   5066   5064   5075   5080     1  0.0000000  0.0000000  3
   5066   5064   5075   5078     1  0.0000000  0.6508444  3
   5066   5064   5075   5079     1  0.0000000  0.6508444  3
   5066   5064   5082   5069     1  0.0000000  1.6038667  3
   5067   5065   5085   5086     1  0.0000000  1.0460000  1
   5067   5065   5085   5086     1  0.0000000  0.6694400  3
   5067   5068   5069   5072     1  0.0000000  0.6508444  3
   5067   5068   5087   5077     1  0.0000000  1.2552000  3
   5068   5067   5065   5084     1  0.0000000  0.6508444  3
   5068   5067   5074   5076     1  0.0000000  1.0460000  1
   5068   5067   5074   5076     1  0.0000000  0.6694400  3
   5068   5069   5073   5083     1  0.0000000  1.0460000  1
   5068   5069   5073   5083     1  0.0000000  0.6694400  3
   5069   5068   5067   5071     1  0.0000000  0.6508444  3
   5069   5068   5087   5077     1  0.0000000  1.2552000  3
   5070   5068   5067   5074     1  0.0000000  1.0460000  1
   5070   5068   5067   5074     1  0.0000000  0.0000000  3
   5070   5068   5067   5071     1  0.0000000  0.6508444  3
   5070   5068   5069   5073     1  0.0000000  1.0460000  1
   5070   5068   5069   5073     1  0.0000000  0.0000000  3
   5070   5068   5069   5082     1  0.0000000  1.0460000  1
   5070   5068   5069   5082     1  0.0000000  0.0000000  3
   5070   5068   5069   5072     1  0.0000000  0.6508444  3
   5070   5068   5087   5077     1  0.0000000  1.2552000  3
   5071   5067   5065   5085     1  0.0000000  1.0460000  1
   5071   5067   5065   5085     1  0.0000000  0.0000000  3
   5071   5067   5065   5084     1  0.0000000  0.6508444  3
   5071   5067   5068   5087     1  0.0000000  0.6508444  3
   5071   5067   5074   5076     1  0.0000000  0.6973333  3
   5072   5069   5068   5087     1  0.0000000  0.6508444  3
   5072   5069   5073   5083     1  0.0000000  0.6973333  3
   5074   5067   5065   5084     1  0.0000000  1.0460000  1
   5074   5067   5065   5084     1  0.0000000  0.0000000  3
   5075   5064   5065   5084     1  0.0000000  0.6508444  3
   5078   5075   5064   5082     1  0.0000000  1.0460000  1
   5078   5075   5064   5082     1  0.0000000  0.0000000  3
   5078   5075   5080   5081     1  0.0000000  0.6973333  3
   5079   5075   5064   5082     1  0.0000000  1.0460000  1
   5079   5075   5064   5082     1  0.0000000  0.0000000  3
   5079   5075   5080   5081     1  0.0000000  0.6973333  3
   5082   5064   5065   5084     1  0.0000000  1.0460000  1
   5082   5064   5065   5084     1  0.0000000  0.0000000  3
   5082   5069   5073   5083     1  0.0000000  0.6973333  3
   5084   5065   5085   5086     1  0.0000000  0.6973333  3
   5088   5089   5091   5095     1  0.0000000  0.6508444  3
   5088   5089   5109   5110     1  0.0000000  1.0460000  1
   5088   5089   5109   5110     1  0.0000000  0.6694400  3
   5088   5099   5104   5105     1  0.0000000  1.0460000  1
   5088   5099   5104   5105     1  0.0000000  0.6694400  3
   5088   5106   5093   5096     1  0.0000000  1.6038667  3
   5089   5088   5099   5102     1  0.0000000  0.6508444  3
   5089   5088   5099   5103     1  0.0000000  0.6508444  3
   5089   5091   5092   5094     1  0.0000000  0.6508444  3
   5089   5091   5098   5100     1  0.0000000  1.0460000  1
   5089   5091   5098   5100     1  0.0000000  0.6694400  3
   5090   5088   5089   5091     1  0.0000000  0.6508444  3
   5090   5088   5089   5109     1  0.0000000  1.0460000  1
   5090   5088   5089   5109     1  0.0000000  0.0000000  3
   5090   5088   5089   5108     1  0.0000000  0.6508444  3
   5090   5088   5099   5104     1  0.0000000  1.0460000  1
   5090   5088   5099   5104     1  0.0000000  0.0000000  3
   5090   5088   5099   5102     1  0.0000000  0.6508444  3
   5090   5088   5099   5103     1  0.0000000  0.6508444  3
   5090   5088   5106   5093     1  0.0000000  1.6038667  3
   5091   5089   5109   5110     1  0.0000000  1.0460000  1
   5091   5089   5109   5110     1  0.0000000  0.6694400  3
   5091   5092   5093   5096     1  0.0000000  0.6508444  3
   5091   5092   5111   5101     1  0.0000000  1.2552000  3
   5092   5091   5089   5108     1  0.0000000  0.6508444  3
   5092   5091   5098   5100     1  0.0000000  1.0460000  1
   5092   5091   5098   5100     1  0.0000000  0.6694400  3
   5092   5093   5097   5107     1  0.0000000  1.0460000  1
   5092   5093   5097   5107     1  0.0000000  0.6694400  3
   5093   5092   5091   5095     1  0.0000000  0.6508444  3
   5093   5092   5111   5101     1  0.0000000  1.2552000  3
   5094   5092   5091   5098     1  0.0000000  1.0460000  1
   5094   5092   5091   5098     1  0.0000000  0.0000000  3
   5094   5092   5091   5095     1  0.0000000  0.6508444  3
   5094   5092   5093   5097     1  0.0000000  1.0460000  1
   5094   5092   5093   5097     1  0.0000000  0.0000000  3
   5094   5092   5093   5106     1  0.0000000  1.0460000  1
   5094   5092   5093   5106     1  0.0000000  0.0000000  3
   5094   5092   5093   5096     1  0.0000000  0.6508444  3
   5094   5092   5111   5101     1  0.0000000  1.2552000  3
   5095   5091   5089   5109     1  0.0000000  1.0460000  1
   5095   5091   5089   5109     1  0.0000000  0.0000000  3
   5095   5091   5089   5108     1  0.0000000  0.6508444  3
   5095   5091   5092   5111     1  0.0000000  0.6508444  3
   5095   5091   5098   5100     1  0.0000000  0.6973333  3
   5096   5093   5092   5111     1  0.0000000  0.6508444  3
   5096   5093   5097   5107     1  0.0000000  0.6973333  3
   5098   5091   5089   5108     1  0.0000000  1.0460000  1
   5098   5091   5089   5108     1  0.0000000  0.0000000  3
   5099   5088   5089   5108     1  0.0000000  0.6508444  3
   5102   5099   5088   5106     1  0.0000000  1.0460000  1
   5102   5099   5088   5106     1  0.0000000  0.0000000  3
   5102   5099   5104   5105     1  0.0000000  0.6973333  3
   5103   5099   5088   5106     1  0.0000000  1.0460000  1
   5103   5099   5088   5106     1  0.0000000  0.0000000  3
   5103   5099   5104   5105     1  0.0000000  0.6973333  3
   5106   5088   5089   5108     1  0.0000000  1.0460000  1
   5106   5088   5089   5108     1  0.0000000  0.0000000  3
   5106   5093   5097   5107     1  0.0000000  0.6973333  3
   5108   5089   5109   5110     1  0.0000000  0.6973333  3
   5112   5114   5116   5118     1  0.0000000  0.6508444  3
   5112   5114   5116   5119     1  0.0000000  0.6508444  3
   5113   5112   5114   5116     1  0.0000000  0.0000000  2
   5113   5112   5114   5115     1  0.0000000  0.0000000  2
   5113   5112   5114   5117     1  0.0000000  0.0000000  2
   5115   5114   5116   5120     1  0.0000000  0.6508444  3
   5115   5114   5116   5118     1  0.0000000  0.6508444  3
   5115   5114   5116   5119     1  0.0000000  0.6508444  3
   5116   5120   5121   5130     1  0.0000000  1.2552000  3
   5116   5120   5121   5131     1  0.0000000  1.2552000  3
   5116   5120   5122   5123     1  0.0000000  1.2552000  3
   5116   5120   5122   5125     1  0.0000000  1.2552000  3
   5117   5114   5116   5120     1  0.0000000  0.6508444  3
   5117   5114   5116   5118     1  0.0000000  0.6508444  3
   5117   5114   5116   5119     1  0.0000000  0.6508444  3
   5118   5116   5120   5121     1  0.0000000  1.2552000  3
   5118   5116   5120   5122     1  0.0000000  1.2552000  3
   5119   5116   5120   5121     1  0.0000000  1.2552000  3
   5119   5116   5120   5122     1  0.0000000  1.2552000  3
   5120   5121   5132   5133     1  0.0000000  0.6508444  3
   5120   5121   5132   5134     1  0.0000000  0.6508444  3
   5120   5122   5124   5126     1  0.0000000  0.6508444  3
   5120   5122   5124   5127     1  0.0000000  0.6508444  3
   5121   5120   5122   5123     1  0.0000000  1.2552000  3
   5121   5120   5122   5125     1  0.0000000  1.2552000  3
   5122   5120   5121   5130     1  0.0000000  1.2552000  3
   5122   5120   5121   5131     1  0.0000000  1.2552000  3
   5123   5122   5124   5128     1  0.0000000  0.6508444  3
   5123   5122   5124   5126     1  0.0000000  0.6508444  3
   5123   5122   5124   5127     1  0.0000000  0.6508444  3
   5124   5128   5160   5150     1  180.0000771  6.0668000  2
   5124   5128   5160   5150     1  180.0000771  1.4644000  4
   5125   5122   5124   5128     1  0.0000000  0.6508444  3
   5125   5122   5124   5126     1  0.0000000  0.6508444  3
   5125   5122   5124   5127     1  0.0000000  0.6508444  3
   5126   5124   5128   5129     1  0.0000000  3.3472000  1
   5126   5124   5128   5129     1  0.0000000  0.0000000  2
   5126   5124   5128   5129     1  180.0000771  0.3347200  3
   5126   5124   5128   5160     1  180.0000771  0.0000000  2
   5127   5124   5128   5129     1  0.0000000  3.3472000  1
   5127   5124   5128   5129     1  0.0000000  0.0000000  2
   5127   5124   5128   5129     1  180.0000771  0.3347200  3
   5127   5124   5128   5160     1  180.0000771  0.0000000  2
   5128   5160   5141   5143     1  0.0000000  1.2552000  3
   5129   5128   5160   5150     1  180.0000771  6.0668000  2
   5129   5128   5160   5150     1  180.0000771  1.4644000  4
   5130   5121   5132   5135     1  0.0000000  0.6508444  3
   5130   5121   5132   5133     1  0.0000000  0.6508444  3
   5130   5121   5132   5134     1  0.0000000  0.6508444  3
   5131   5121   5132   5135     1  0.0000000  0.6508444  3
   5131   5121   5132   5133     1  0.0000000  0.6508444  3
   5131   5121   5132   5134     1  0.0000000  0.6508444  3
   5132   5135   5184   5174     1  180.0000771  6.0668000  2
   5132   5135   5184   5174     1  180.0000771  1.4644000  4
   5133   5132   5135   5136     1  0.0000000  3.3472000  1
   5133   5132   5135   5136     1  0.0000000  0.0000000  2
   5133   5132   5135   5136     1  180.0000771  0.3347200  3
   5133   5132   5135   5184     1  180.0000771  0.0000000  2
   5134   5132   5135   5136     1  0.0000000  3.3472000  1
   5134   5132   5135   5136     1  0.0000000  0.0000000  2
   5134   5132   5135   5136     1  180.0000771  0.3347200  3
   5134   5132   5135   5184     1  180.0000771  0.0000000  2
   5135   5184   5165   5167     1  0.0000000  1.2552000  3
   5136   5135   5184   5174     1  180.0000771  6.0668000  2
   5136   5135   5184   5174     1  180.0000771  1.4644000  4
   5137   5138   5140   5144     1  0.0000000  0.6508444  3
   5137   5138   5158   5159     1  0.0000000  1.0460000  1
   5137   5138   5158   5159     1  0.0000000  0.6694400  3
   5137   5148   5153   5154     1  0.0000000  1.0460000  1
   5137   5148   5153   5154     1  0.0000000  0.6694400  3
   5137   5155   5142   5145     1  0.0000000  1.6038667  3
   5138   5140   5141   5143     1  0.0000000  0.6508444  3
   5138   5140   5147   5149     1  0.0000000  1.0460000  1
   5138   5140   5147   5149     1  0.0000000  0.6694400  3
   5138   5137   5148   5151     1  0.0000000  0.6508444  3
   5138   5137   5148   5152     1  0.0000000  0.6508444  3
   5139   5137   5138   5140     1  0.0000000  0.6508444  3
   5139   5137   5138   5158     1  0.0000000  1.0460000  1
   5139   5137   5138   5158     1  0.0000000  0.0000000  3
   5139   5137   5138   5157     1  0.0000000  0.6508444  3
   5139   5137   5148   5153     1  0.0000000  1.0460000  1
   5139   5137   5148   5153     1  0.0000000  0.0000000  3
   5139   5137   5148   5151     1  0.0000000  0.6508444  3
   5139   5137   5148   5152     1  0.0000000  0.6508444  3
   5139   5137   5155   5142     1  0.0000000  1.6038667  3
   5140   5141   5142   5145     1  0.0000000  0.6508444  3
   5140   5141   5160   5150     1  0.0000000  1.2552000  3
   5140   5138   5158   5159     1  0.0000000  1.0460000  1
   5140   5138   5158   5159     1  0.0000000  0.6694400  3
   5141   5142   5146   5156     1  0.0000000  1.0460000  1
   5141   5142   5146   5156     1  0.0000000  0.6694400  3
   5141   5140   5147   5149     1  0.0000000  1.0460000  1
   5141   5140   5147   5149     1  0.0000000  0.6694400  3
   5141   5140   5138   5157     1  0.0000000  0.6508444  3
   5142   5141   5160   5150     1  0.0000000  1.2552000  3
   5142   5141   5140   5144     1  0.0000000  0.6508444  3
   5143   5141   5142   5146     1  0.0000000  1.0460000  1
   5143   5141   5142   5146     1  0.0000000  0.0000000  3
   5143   5141   5142   5155     1  0.0000000  1.0460000  1
   5143   5141   5142   5155     1  0.0000000  0.0000000  3
   5143   5141   5142   5145     1  0.0000000  0.6508444  3
   5143   5141   5160   5150     1  0.0000000  1.2552000  3
   5143   5141   5140   5147     1  0.0000000  1.0460000  1
   5143   5141   5140   5147     1  0.0000000  0.0000000  3
   5143   5141   5140   5144     1  0.0000000  0.6508444  3
   5144   5140   5141   5160     1  0.0000000  0.6508444  3
   5144   5140   5147   5149     1  0.0000000  0.6973333  3
   5144   5140   5138   5158     1  0.0000000  1.0460000  1
   5144   5140   5138   5158     1  0.0000000  0.0000000  3
   5144   5140   5138   5157     1  0.0000000  0.6508444  3
   5145   5142   5146   5156     1  0.0000000  0.6973333  3
   5145   5142   5141   5160     1  0.0000000  0.6508444  3
   5147   5140   5138   5157     1  0.0000000  1.0460000  1
   5147   5140   5138   5157     1  0.0000000  0.0000000  3
   5148   5137   5138   5157     1  0.0000000  0.6508444  3
   5151   5148   5153   5154     1  0.0000000  0.6973333  3
   5151   5148   5137   5155     1  0.0000000  1.0460000  1
   5151   5148   5137   5155     1  0.0000000  0.0000000  3
   5152   5148   5153   5154     1  0.0000000  0.6973333  3
   5152   5148   5137   5155     1  0.0000000  1.0460000  1
   5152   5148   5137   5155     1  0.0000000  0.0000000  3
   5155   5142   5146   5156     1  0.0000000  0.6973333  3
   5155   5137   5138   5157     1  0.0000000  1.0460000  1
   5155   5137   5138   5157     1  0.0000000  0.0000000  3
   5157   5138   5158   5159     1  0.0000000  0.6973333  3
   5161   5162   5164   5168     1  0.0000000  0.6508444  3
   5161   5162   5182   5183     1  0.0000000  1.0460000  1
   5161   5162   5182   5183     1  0.0000000  0.6694400  3
   5161   5172   5177   5178     1  0.0000000  1.0460000  1
   5161   5172   5177   5178     1  0.0000000  0.6694400  3
   5161   5179   5166   5169     1  0.0000000  1.6038667  3
   5162   5164   5165   5167     1  0.0000000  0.6508444  3
   5162   5164   5171   5173     1  0.0000000  1.0460000  1
   5162   5164   5171   5173     1  0.0000000  0.6694400  3
   5162   5161   5172   5175     1  0.0000000  0.6508444  3
   5162   5161   5172   5176     1  0.0000000  0.6508444  3
   5163   5161   5162   5164     1  0.0000000  0.6508444  3
   5163   5161   5162   5182     1  0.0000000  1.0460000  1
   5163   5161   5162   5182     1  0.0000000  0.0000000  3
   5163   5161   5162   5181     1  0.0000000  0.6508444  3
   5163   5161   5172   5177     1  0.0000000  1.0460000  1
   5163   5161   5172   5177     1  0.0000000  0.0000000  3
   5163   5161   5172   5175     1  0.0000000  0.6508444  3
   5163   5161   5172   5176     1  0.0000000  0.6508444  3
   5163   5161   5179   5166     1  0.0000000  1.6038667  3
   5164   5165   5166   5169     1  0.0000000  0.6508444  3
   5164   5165   5184   5174     1  0.0000000  1.2552000  3
   5164   5162   5182   5183     1  0.0000000  1.0460000  1
   5164   5162   5182   5183     1  0.0000000  0.6694400  3
   5165   5166   5170   5180     1  0.0000000  1.0460000  1
   5165   5166   5170   5180     1  0.0000000  0.6694400  3
   5165   5164   5171   5173     1  0.0000000  1.0460000  1
   5165   5164   5171   5173     1  0.0000000  0.6694400  3
   5165   5164   5162   5181     1  0.0000000  0.6508444  3
   5166   5165   5184   5174     1  0.0000000  1.2552000  3
   5166   5165   5164   5168     1  0.0000000  0.6508444  3
   5167   5165   5166   5170     1  0.0000000  1.0460000  1
   5167   5165   5166   5170     1  0.0000000  0.0000000  3
   5167   5165   5166   5179     1  0.0000000  1.0460000  1
   5167   5165   5166   5179     1  0.0000000  0.0000000  3
   5167   5165   5166   5169     1  0.0000000  0.6508444  3
   5167   5165   5184   5174     1  0.0000000  1.2552000  3
   5167   5165   5164   5171     1  0.0000000  1.0460000  1
   5167   5165   5164   5171     1  0.0000000  0.0000000  3
   5167   5165   5164   5168     1  0.0000000  0.6508444  3
   5168   5164   5165   5184     1  0.0000000  0.6508444  3
   5168   5164   5171   5173     1  0.0000000  0.6973333  3
   5168   5164   5162   5182     1  0.0000000  1.0460000  1
   5168   5164   5162   5182     1  0.0000000  0.0000000  3
   5168   5164   5162   5181     1  0.0000000  0.6508444  3
   5169   5166   5170   5180     1  0.0000000  0.6973333  3
   5169   5166   5165   5184     1  0.0000000  0.6508444  3
   5171   5164   5162   5181     1  0.0000000  1.0460000  1
   5171   5164   5162   5181     1  0.0000000  0.0000000  3
   5172   5161   5162   5181     1  0.0000000  0.6508444  3
   5175   5172   5177   5178     1  0.0000000  0.6973333  3
   5175   5172   5161   5179     1  0.0000000  1.0460000  1
   5175   5172   5161   5179     1  0.0000000  0.0000000  3
   5176   5172   5177   5178     1  0.0000000  0.6973333  3
   5176   5172   5161   5179     1  0.0000000  1.0460000  1
   5176   5172   5161   5179     1  0.0000000  0.0000000  3
   5179   5166   5170   5180     1  0.0000000  0.6973333  3
   5179   5161   5162   5181     1  0.0000000  1.0460000  1
   5179   5161   5162   5181     1  0.0000000  0.0000000  3
   5181   5162   5182   5183     1  0.0000000  0.6973333  3
   5185   5187   5189   5191     1  0.0000000  0.6508444  3
   5185   5187   5189   5192     1  0.0000000  0.6508444  3
   5186   5185   5187   5189     1  0.0000000  0.0000000  2
   5186   5185   5187   5188     1  0.0000000  0.0000000  2
   5186   5185   5187   5190     1  0.0000000  0.0000000  2
   5188   5187   5189   5193     1  0.0000000  0.6508444  3
   5188   5187   5189   5191     1  0.0000000  0.6508444  3
   5188   5187   5189   5192     1  0.0000000  0.6508444  3
   5189   5193   5194   5203     1  0.0000000  1.2552000  3
   5189   5193   5194   5204     1  0.0000000  1.2552000  3
   5189   5193   5195   5196     1  0.0000000  1.2552000  3
   5189   5193   5195   5198     1  0.0000000  1.2552000  3
   5190   5187   5189   5193     1  0.0000000  0.6508444  3
   5190   5187   5189   5191     1  0.0000000  0.6508444  3
   5190   5187   5189   5192     1  0.0000000  0.6508444  3
   5191   5189   5193   5194     1  0.0000000  1.2552000  3
   5191   5189   5193   5195     1  0.0000000  1.2552000  3
   5192   5189   5193   5194     1  0.0000000  1.2552000  3
   5192   5189   5193   5195     1  0.0000000  1.2552000  3
   5193   5194   5205   5206     1  0.0000000  0.6508444  3
   5193   5194   5205   5207     1  0.0000000  0.6508444  3
   5193   5195   5197   5199     1  0.0000000  0.6508444  3
   5193   5195   5197   5200     1  0.0000000  0.6508444  3
   5194   5193   5195   5196     1  0.0000000  1.2552000  3
   5194   5193   5195   5198     1  0.0000000  1.2552000  3
   5195   5193   5194   5203     1  0.0000000  1.2552000  3
   5195   5193   5194   5204     1  0.0000000  1.2552000  3
   5196   5195   5197   5201     1  0.0000000  0.6508444  3
   5196   5195   5197   5199     1  0.0000000  0.6508444  3
   5196   5195   5197   5200     1  0.0000000  0.6508444  3
   5197   5201   5233   5223     1  180.0000771  6.0668000  2
   5197   5201   5233   5223     1  180.0000771  1.4644000  4
   5198   5195   5197   5201     1  0.0000000  0.6508444  3
   5198   5195   5197   5199     1  0.0000000  0.6508444  3
   5198   5195   5197   5200     1  0.0000000  0.6508444  3
   5199   5197   5201   5202     1  0.0000000  3.3472000  1
   5199   5197   5201   5202     1  0.0000000  0.0000000  2
   5199   5197   5201   5202     1  180.0000771  0.3347200  3
   5199   5197   5201   5233     1  180.0000771  0.0000000  2
   5200   5197   5201   5202     1  0.0000000  3.3472000  1
   5200   5197   5201   5202     1  0.0000000  0.0000000  2
   5200   5197   5201   5202     1  180.0000771  0.3347200  3
   5200   5197   5201   5233     1  180.0000771  0.0000000  2
   5201   5233   5214   5216     1  0.0000000  1.2552000  3
   5202   5201   5233   5223     1  180.0000771  6.0668000  2
   5202   5201   5233   5223     1  180.0000771  1.4644000  4
   5203   5194   5205   5208     1  0.0000000  0.6508444  3
   5203   5194   5205   5206     1  0.0000000  0.6508444  3
   5203   5194   5205   5207     1  0.0000000  0.6508444  3
   5204   5194   5205   5208     1  0.0000000  0.6508444  3
   5204   5194   5205   5206     1  0.0000000  0.6508444  3
   5204   5194   5205   5207     1  0.0000000  0.6508444  3
   5205   5208   5257   5247     1  180.0000771  6.0668000  2
   5205   5208   5257   5247     1  180.0000771  1.4644000  4
   5206   5205   5208   5209     1  0.0000000  3.3472000  1
   5206   5205   5208   5209     1  0.0000000  0.0000000  2
   5206   5205   5208   5209     1  180.0000771  0.3347200  3
   5206   5205   5208   5257     1  180.0000771  0.0000000  2
   5207   5205   5208   5209     1  0.0000000  3.3472000  1
   5207   5205   5208   5209     1  0.0000000  0.0000000  2
   5207   5205   5208   5209     1  180.0000771  0.3347200  3
   5207   5205   5208   5257     1  180.0000771  0.0000000  2
   5208   5257   5238   5240     1  0.0000000  1.2552000  3
   5209   5208   5257   5247     1  180.0000771  6.0668000  2
   5209   5208   5257   5247     1  180.0000771  1.4644000  4
   5210   5211   5213   5217     1  0.0000000  0.6508444  3
   5210   5211   5231   5232     1  0.0000000  1.0460000  1
   5210   5211   5231   5232     1  0.0000000  0.6694400  3
   5210   5221   5226   5227     1  0.0000000  1.0460000  1
   5210   5221   5226   5227     1  0.0000000  0.6694400  3
   5210   5228   5215   5218     1  0.0000000  1.6038667  3
   5211   5210   5221   5224     1  0.0000000  0.6508444  3
   5211   5210   5221   5225     1  0.0000000  0.6508444  3
   5211   5213   5214   5216     1  0.0000000  0.6508444  3
   5211   5213   5220   5222     1  0.0000000  1.0460000  1
   5211   5213   5220   5222     1  0.0000000  0.6694400  3
   5212   5210   5211   5213     1  0.0000000  0.6508444  3
   5212   5210   5211   5231     1  0.0000000  1.0460000  1
   5212   5210   5211   5231     1  0.0000000  0.0000000  3
   5212   5210   5211   5230     1  0.0000000  0.6508444  3
   5212   5210   5221   5226     1  0.0000000  1.0460000  1
   5212   5210   5221   5226     1  0.0000000  0.0000000  3
   5212   5210   5221   5224     1  0.0000000  0.6508444  3
   5212   5210   5221   5225     1  0.0000000  0.6508444  3
   5212   5210   5228   5215     1  0.0000000  1.6038667  3
   5213   5211   5231   5232     1  0.0000000  1.0460000  1
   5213   5211   5231   5232     1  0.0000000  0.6694400  3
   5213   5214   5215   5218     1  0.0000000  0.6508444  3
   5213   5214   5233   5223     1  0.0000000  1.2552000  3
   5214   5213   5211   5230     1  0.0000000  0.6508444  3
   5214   5213   5220   5222     1  0.0000000  1.0460000  1
   5214   5213   5220   5222     1  0.0000000  0.6694400  3
   5214   5215   5219   5229     1  0.0000000  1.0460000  1
   5214   5215   5219   5229     1  0.0000000  0.6694400  3
   5215   5214   5213   5217     1  0.0000000  0.6508444  3
   5215   5214   5233   5223     1  0.0000000  1.2552000  3
   5216   5214   5213   5220     1  0.0000000  1.0460000  1
   5216   5214   5213   5220     1  0.0000000  0.0000000  3
   5216   5214   5213   5217     1  0.0000000  0.6508444  3
   5216   5214   5215   5219     1  0.0000000  1.0460000  1
   5216   5214   5215   5219     1  0.0000000  0.0000000  3
   5216   5214   5215   5228     1  0.0000000  1.0460000  1
   5216   5214   5215   5228     1  0.0000000  0.0000000  3
   5216   5214   5215   5218     1  0.0000000  0.6508444  3
   5216   5214   5233   5223     1  0.0000000  1.2552000  3
   5217   5213   5211   5231     1  0.0000000  1.0460000  1
   5217   5213   5211   5231     1  0.0000000  0.0000000  3
   5217   5213   5211   5230     1  0.0000000  0.6508444  3
   5217   5213   5214   5233     1  0.0000000  0.6508444  3
   5217   5213   5220   5222     1  0.0000000  0.6973333  3
   5218   5215   5214   5233     1  0.0000000  0.6508444  3
   5218   5215   5219   5229     1  0.0000000  0.6973333  3
   5220   5213   5211   5230     1  0.0000000  1.0460000  1
   5220   5213   5211   5230     1  0.0000000  0.0000000  3
   5221   5210   5211   5230     1  0.0000000  0.6508444  3
   5224   5221   5210   5228     1  0.0000000  1.0460000  1
   5224   5221   5210   5228     1  0.0000000  0.0000000  3
   5224   5221   5226   5227     1  0.0000000  0.6973333  3
   5225   5221   5210   5228     1  0.0000000  1.0460000  1
   5225   5221   5210   5228     1  0.0000000  0.0000000  3
   5225   5221   5226   5227     1  0.0000000  0.6973333  3
   5228   5210   5211   5230     1  0.0000000  1.0460000  1
   5228   5210   5211   5230     1  0.0000000  0.0000000  3
   5228   5215   5219   5229     1  0.0000000  0.6973333  3
   5230   5211   5231   5232     1  0.0000000  0.6973333  3
   5234   5235   5237   5241     1  0.0000000  0.6508444  3
   5234   5235   5255   5256     1  0.0000000  1.0460000  1
   5234   5235   5255   5256     1  0.0000000  0.6694400  3
   5234   5245   5250   5251     1  0.0000000  1.0460000  1
   5234   5245   5250   5251     1  0.0000000  0.6694400  3
   5234   5252   5239   5242     1  0.0000000  1.6038667  3
   5235   5234   5245   5248     1  0.0000000  0.6508444  3
   5235   5234   5245   5249     1  0.0000000  0.6508444  3
   5235   5237   5238   5240     1  0.0000000  0.6508444  3
   5235   5237   5244   5246     1  0.0000000  1.0460000  1
   5235   5237   5244   5246     1  0.0000000  0.6694400  3
   5236   5234   5235   5237     1  0.0000000  0.6508444  3
   5236   5234   5235   5255     1  0.0000000  1.0460000  1
   5236   5234   5235   5255     1  0.0000000  0.0000000  3
   5236   5234   5235   5254     1  0.0000000  0.6508444  3
   5236   5234   5245   5250     1  0.0000000  1.0460000  1
   5236   5234   5245   5250     1  0.0000000  0.0000000  3
   5236   5234   5245   5248     1  0.0000000  0.6508444  3
   5236   5234   5245   5249     1  0.0000000  0.6508444  3
   5236   5234   5252   5239     1  0.0000000  1.6038667  3
   5237   5235   5255   5256     1  0.0000000  1.0460000  1
   5237   5235   5255   5256     1  0.0000000  0.6694400  3
   5237   5238   5239   5242     1  0.0000000  0.6508444  3
   5237   5238   5257   5247     1  0.0000000  1.2552000  3
   5238   5237   5235   5254     1  0.0000000  0.6508444  3
   5238   5237   5244   5246     1  0.0000000  1.0460000  1
   5238   5237   5244   5246     1  0.0000000  0.6694400  3
   5238   5239   5243   5253     1  0.0000000  1.0460000  1
   5238   5239   5243   5253     1  0.0000000  0.6694400  3
   5239   5238   5237   5241     1  0.0000000  0.6508444  3
   5239   5238   5257   5247     1  0.0000000  1.2552000  3
   5240   5238   5237   5244     1  0.0000000  1.0460000  1
   5240   5238   5237   5244     1  0.0000000  0.0000000  3
   5240   5238   5237   5241     1  0.0000000  0.6508444  3
   5240   5238   5239   5243     1  0.0000000  1.0460000  1
   5240   5238   5239   5243     1  0.0000000  0.0000000  3
   5240   5238   5239   5252     1  0.0000000  1.0460000  1
   5240   5238   5239   5252     1  0.0000000  0.0000000  3
   5240   5238   5239   5242     1  0.0000000  0.6508444  3
   5240   5238   5257   5247     1  0.0000000  1.2552000  3
   5241   5237   5235   5255     1  0.0000000  1.0460000  1
   5241   5237   5235   5255     1  0.0000000  0.0000000  3
   5241   5237   5235   5254     1  0.0000000  0.6508444  3
   5241   5237   5238   5257     1  0.0000000  0.6508444  3
   5241   5237   5244   5246     1  0.0000000  0.6973333  3
   5242   5239   5238   5257     1  0.0000000  0.6508444  3
   5242   5239   5243   5253     1  0.0000000  0.6973333  3
   5244   5237   5235   5254     1  0.0000000  1.0460000  1
   5244   5237   5235   5254     1  0.0000000  0.0000000  3
   5245   5234   5235   5254     1  0.0000000  0.6508444  3
   5248   5245   5234   5252     1  0.0000000  1.0460000  1
   5248   5245   5234   5252     1  0.0000000  0.0000000  3
   5248   5245   5250   5251     1  0.0000000  0.6973333  3
   5249   5245   5234   5252     1  0.0000000  1.0460000  1
   5249   5245   5234   5252     1  0.0000000  0.0000000  3
   5249   5245   5250   5251     1  0.0000000  0.6973333  3
   5252   5234   5235   5254     1  0.0000000  1.0460000  1
   5252   5234   5235   5254     1  0.0000000  0.0000000  3
   5252   5239   5243   5253     1  0.0000000  0.6973333  3
   5254   5235   5255   5256     1  0.0000000  0.6973333  3
   5258   5260   5262   5264     1  0.0000000  0.6508444  3
   5258   5260   5262   5265     1  0.0000000  0.6508444  3
   5259   5258   5260   5262     1  0.0000000  0.0000000  2
   5259   5258   5260   5261     1  0.0000000  0.0000000  2
   5259   5258   5260   5263     1  0.0000000  0.0000000  2
   5261   5260   5262   5266     1  0.0000000  0.6508444  3
   5261   5260   5262   5264     1  0.0000000  0.6508444  3
   5261   5260   5262   5265     1  0.0000000  0.6508444  3
   5262   5266   5267   5276     1  0.0000000  1.2552000  3
   5262   5266   5267   5277     1  0.0000000  1.2552000  3
   5262   5266   5268   5269     1  0.0000000  1.2552000  3
   5262   5266   5268   5271     1  0.0000000  1.2552000  3
   5263   5260   5262   5266     1  0.0000000  0.6508444  3
   5263   5260   5262   5264     1  0.0000000  0.6508444  3
   5263   5260   5262   5265     1  0.0000000  0.6508444  3
   5264   5262   5266   5267     1  0.0000000  1.2552000  3
   5264   5262   5266   5268     1  0.0000000  1.2552000  3
   5265   5262   5266   5267     1  0.0000000  1.2552000  3
   5265   5262   5266   5268     1  0.0000000  1.2552000  3
   5266   5267   5278   5279     1  0.0000000  0.6508444  3
   5266   5267   5278   5280     1  0.0000000  0.6508444  3
   5266   5268   5270   5272     1  0.0000000  0.6508444  3
   5266   5268   5270   5273     1  0.0000000  0.6508444  3
   5267   5266   5268   5269     1  0.0000000  1.2552000  3
   5267   5266   5268   5271     1  0.0000000  1.2552000  3
   5268   5266   5267   5276     1  0.0000000  1.2552000  3
   5268   5266   5267   5277     1  0.0000000  1.2552000  3
   5269   5268   5270   5274     1  0.0000000  0.6508444  3
   5269   5268   5270   5272     1  0.0000000  0.6508444  3
   5269   5268   5270   5273     1  0.0000000  0.6508444  3
   5270   5274   5306   5296     1  180.0000771  6.0668000  2
   5270   5274   5306   5296     1  180.0000771  1.4644000  4
   5271   5268   5270   5274     1  0.0000000  0.6508444  3
   5271   5268   5270   5272     1  0.0000000  0.6508444  3
   5271   5268   5270   5273     1  0.0000000  0.6508444  3
   5272   5270   5274   5275     1  0.0000000  3.3472000  1
   5272   5270   5274   5275     1  0.0000000  0.0000000  2
   5272   5270   5274   5275     1  180.0000771  0.3347200  3
   5272   5270   5274   5306     1  180.0000771  0.0000000  2
   5273   5270   5274   5275     1  0.0000000  3.3472000  1
   5273   5270   5274   5275     1  0.0000000  0.0000000  2
   5273   5270   5274   5275     1  180.0000771  0.3347200  3
   5273   5270   5274   5306     1  180.0000771  0.0000000  2
   5274   5306   5287   5289     1  0.0000000  1.2552000  3
   5275   5274   5306   5296     1  180.0000771  6.0668000  2
   5275   5274   5306   5296     1  180.0000771  1.4644000  4
   5276   5267   5278   5281     1  0.0000000  0.6508444  3
   5276   5267   5278   5279     1  0.0000000  0.6508444  3
   5276   5267   5278   5280     1  0.0000000  0.6508444  3
   5277   5267   5278   5281     1  0.0000000  0.6508444  3
   5277   5267   5278   5279     1  0.0000000  0.6508444  3
   5277   5267   5278   5280     1  0.0000000  0.6508444  3
   5278   5281   5330   5320     1  180.0000771  6.0668000  2
   5278   5281   5330   5320     1  180.0000771  1.4644000  4
   5279   5278   5281   5282     1  0.0000000  3.3472000  1
   5279   5278   5281   5282     1  0.0000000  0.0000000  2
   5279   5278   5281   5282     1  180.0000771  0.3347200  3
   5279   5278   5281   5330     1  180.0000771  0.0000000  2
   5280   5278   5281   5282     1  0.0000000  3.3472000  1
   5280   5278   5281   5282     1  0.0000000  0.0000000  2
   5280   5278   5281   5282     1  180.0000771  0.3347200  3
   5280   5278   5281   5330     1  180.0000771  0.0000000  2
   5281   5330   5311   5313     1  0.0000000  1.2552000  3
   5282   5281   5330   5320     1  180.0000771  6.0668000  2
   5282   5281   5330   5320     1  180.0000771  1.4644000  4
   5283   5284   5286   5290     1  0.0000000  0.6508444  3
   5283   5284   5304   5305     1  0.0000000  1.0460000  1
   5283   5284   5304   5305     1  0.0000000  0.6694400  3
   5283   5294   5299   5300     1  0.0000000  1.0460000  1
   5283   5294   5299   5300     1  0.0000000  0.6694400  3
   5283   5301   5288   5291     1  0.0000000  1.6038667  3
   5284   5286   5287   5289     1  0.0000000  0.6508444  3
   5284   5286   5293   5295     1  0.0000000  1.0460000  1
   5284   5286   5293   5295     1  0.0000000  0.6694400  3
   5284   5283   5294   5297     1  0.0000000  0.6508444  3
   5284   5283   5294   5298     1  0.0000000  0.6508444  3
   5285   5283   5284   5286     1  0.0000000  0.6508444  3
   5285   5283   5284   5304     1  0.0000000  1.0460000  1
   5285   5283   5284   5304     1  0.0000000  0.0000000  3
   5285   5283   5284   5303     1  0.0000000  0.6508444  3
   5285   5283   5294   5299     1  0.0000000  1.0460000  1
   5285   5283   5294   5299     1  0.0000000  0.0000000  3
   5285   5283   5294   5297     1  0.0000000  0.6508444  3
   5285   5283   5294   5298     1  0.0000000  0.6508444  3
   5285   5283   5301   5288     1  0.0000000  1.6038667  3
   5286   5287   5288   5291     1  0.0000000  0.6508444  3
   5286   5287   5306   5296     1  0.0000000  1.2552000  3
   5286   5284   5304   5305     1  0.0000000  1.0460000  1
   5286   5284   5304   5305     1  0.0000000  0.6694400  3
   5287   5288   5292   5302     1  0.0000000  1.0460000  1
   5287   5288   5292   5302     1  0.0000000  0.6694400  3
   5287   5286   5293   5295     1  0.0000000  1.0460000  1
   5287   5286   5293   5295     1  0.0000000  0.6694400  3
   5287   5286   5284   5303     1  0.0000000  0.6508444  3
   5288   5287   5306   5296     1  0.0000000  1.2552000  3
   5288   5287   5286   5290     1  0.0000000  0.6508444  3
   5289   5287   5288   5292     1  0.0000000  1.0460000  1
   5289   5287   5288   5292     1  0.0000000  0.0000000  3
   5289   5287   5288   5301     1  0.0000000  1.0460000  1
   5289   5287   5288   5301     1  0.0000000  0.0000000  3
   5289   5287   5288   5291     1  0.0000000  0.6508444  3
   5289   5287   5306   5296     1  0.0000000  1.2552000  3
   5289   5287   5286   5293     1  0.0000000  1.0460000  1
   5289   5287   5286   5293     1  0.0000000  0.0000000  3
   5289   5287   5286   5290     1  0.0000000  0.6508444  3
   5290   5286   5287   5306     1  0.0000000  0.6508444  3
   5290   5286   5293   5295     1  0.0000000  0.6973333  3
   5290   5286   5284   5304     1  0.0000000  1.0460000  1
   5290   5286   5284   5304     1  0.0000000  0.0000000  3
   5290   5286   5284   5303     1  0.0000000  0.6508444  3
   5291   5288   5292   5302     1  0.0000000  0.6973333  3
   5291   5288   5287   5306     1  0.0000000  0.6508444  3
   5293   5286   5284   5303     1  0.0000000  1.0460000  1
   5293   5286   5284   5303     1  0.0000000  0.0000000  3
   5294   5283   5284   5303     1  0.0000000  0.6508444  3
   5297   5294   5299   5300     1  0.0000000  0.6973333  3
   5297   5294   5283   5301     1  0.0000000  1.0460000  1
   5297   5294   5283   5301     1  0.0000000  0.0000000  3
   5298   5294   5299   5300     1  0.0000000  0.6973333  3
   5298   5294   5283   5301     1  0.0000000  1.0460000  1
   5298   5294   5283   5301     1  0.0000000  0.0000000  3
   5301   5288   5292   5302     1  0.0000000  0.6973333  3
   5301   5283   5284   5303     1  0.0000000  1.0460000  1
   5301   5283   5284   5303     1  0.0000000  0.0000000  3
   5303   5284   5304   5305     1  0.0000000  0.6973333  3
   5307   5308   5310   5314     1  0.0000000  0.6508444  3
   5307   5308   5328   5329     1  0.0000000  1.0460000  1
   5307   5308   5328   5329     1  0.0000000  0.6694400  3
   5307   5318   5323   5324     1  0.0000000  1.0460000  1
   5307   5318   5323   5324     1  0.0000000  0.6694400  3
   5307   5325   5312   5315     1  0.0000000  1.6038667  3
   5308   5310   5311   5313     1  0.0000000  0.6508444  3
   5308   5310   5317   5319     1  0.0000000  1.0460000  1
   5308   5310   5317   5319     1  0.0000000  0.6694400  3
   5308   5307   5318   5321     1  0.0000000  0.6508444  3
   5308   5307   5318   5322     1  0.0000000  0.6508444  3
   5309   5307   5308   5310     1  0.0000000  0.6508444  3
   5309   5307   5308   5328     1  0.0000000  1.0460000  1
   5309   5307   5308   5328     1  0.0000000  0.0000000  3
   5309   5307   5308   5327     1  0.0000000  0.6508444  3
   5309   5307   5318   5323     1  0.0000000  1.0460000  1
   5309   5307   5318   5323     1  0.0000000  0.0000000  3
   5309   5307   5318   5321     1  0.0000000  0.6508444  3
   5309   5307   5318   5322     1  0.0000000  0.6508444  3
   5309   5307   5325   5312     1  0.0000000  1.6038667  3
   5310   5311   5312   5315     1  0.0000000  0.6508444  3
   5310   5311   5330   5320     1  0.0000000  1.2552000  3
   5310   5308   5328   5329     1  0.0000000  1.0460000  1
   5310   5308   5328   5329     1  0.0000000  0.6694400  3
   5311   5312   5316   5326     1  0.0000000  1.0460000  1
   5311   5312   5316   5326     1  0.0000000  0.6694400  3
   5311   5310   5317   5319     1  0.0000000  1.0460000  1
   5311   5310   5317   5319     1  0.0000000  0.6694400  3
   5311   5310   5308   5327     1  0.0000000  0.6508444  3
   5312   5311   5330   5320     1  0.0000000  1.2552000  3
   5312   5311   5310   5314     1  0.0000000  0.6508444  3
   5313   5311   5312   5316     1  0.0000000  1.0460000  1
   5313   5311   5312   5316     1  0.0000000  0.0000000  3
   5313   5311   5312   5325     1  0.0000000  1.0460000  1
   5313   5311   5312   5325     1  0.0000000  0.0000000  3
   5313   5311   5312   5315     1  0.0000000  0.6508444  3
   5313   5311   5330   5320     1  0.0000000  1.2552000  3
   5313   5311   5310   5317     1  0.0000000  1.0460000  1
   5313   5311   5310   5317     1  0.0000000  0.0000000  3
   5313   5311   5310   5314     1  0.0000000  0.6508444  3
   5314   5310   5311   5330     1  0.0000000  0.6508444  3
   5314   5310   5317   5319     1  0.0000000  0.6973333  3
   5314   5310   5308   5328     1  0.0000000  1.0460000  1
   5314   5310   5308   5328     1  0.0000000  0.0000000  3
   5314   5310   5308   5327     1  0.0000000  0.6508444  3
   5315   5312   5316   5326     1  0.0000000  0.6973333  3
   5315   5312   5311   5330     1  0.0000000  0.6508444  3
   5317   5310   5308   5327     1  0.0000000  1.0460000  1
   5317   5310   5308   5327     1  0.0000000  0.0000000  3
   5318   5307   5308   5327     1  0.0000000  0.6508444  3
   5321   5318   5323   5324     1  0.0000000  0.6973333  3
   5321   5318   5307   5325     1  0.0000000  1.0460000  1
   5321   5318   5307   5325     1  0.0000000  0.0000000  3
   5322   5318   5323   5324     1  0.0000000  0.6973333  3
   5322   5318   5307   5325     1  0.0000000  1.0460000  1
   5322   5318   5307   5325     1  0.0000000  0.0000000  3
   5325   5312   5316   5326     1  0.0000000  0.6973333  3
   5325   5307   5308   5327     1  0.0000000  1.0460000  1
   5325   5307   5308   5327     1  0.0000000  0.0000000  3
   5327   5308   5328   5329     1  0.0000000  0.6973333  3
   5331   5333   5335   5337     1  0.0000000  0.6508444  3
   5331   5333   5335   5338     1  0.0000000  0.6508444  3
   5332   5331   5333   5335     1  0.0000000  0.0000000  2
   5332   5331   5333   5334     1  0.0000000  0.0000000  2
   5332   5331   5333   5336     1  0.0000000  0.0000000  2
   5334   5333   5335   5339     1  0.0000000  0.6508444  3
   5334   5333   5335   5337     1  0.0000000  0.6508444  3
   5334   5333   5335   5338     1  0.0000000  0.6508444  3
   5335   5339   5340   5349     1  0.0000000  1.2552000  3
   5335   5339   5340   5350     1  0.0000000  1.2552000  3
   5335   5339   5341   5342     1  0.0000000  1.2552000  3
   5335   5339   5341   5344     1  0.0000000  1.2552000  3
   5336   5333   5335   5339     1  0.0000000  0.6508444  3
   5336   5333   5335   5337     1  0.0000000  0.6508444  3
   5336   5333   5335   5338     1  0.0000000  0.6508444  3
   5337   5335   5339   5340     1  0.0000000  1.2552000  3
   5337   5335   5339   5341     1  0.0000000  1.2552000  3
   5338   5335   5339   5340     1  0.0000000  1.2552000  3
   5338   5335   5339   5341     1  0.0000000  1.2552000  3
   5339   5340   5351   5352     1  0.0000000  0.6508444  3
   5339   5340   5351   5353     1  0.0000000  0.6508444  3
   5339   5341   5343   5345     1  0.0000000  0.6508444  3
   5339   5341   5343   5346     1  0.0000000  0.6508444  3
   5340   5339   5341   5342     1  0.0000000  1.2552000  3
   5340   5339   5341   5344     1  0.0000000  1.2552000  3
   5341   5339   5340   5349     1  0.0000000  1.2552000  3
   5341   5339   5340   5350     1  0.0000000  1.2552000  3
   5342   5341   5343   5347     1  0.0000000  0.6508444  3
   5342   5341   5343   5345     1  0.0000000  0.6508444  3
   5342   5341   5343   5346     1  0.0000000  0.6508444  3
   5343   5347   5379   5369     1  180.0000771  6.0668000  2
   5343   5347   5379   5369     1  180.0000771  1.4644000  4
   5344   5341   5343   5347     1  0.0000000  0.6508444  3
   5344   5341   5343   5345     1  0.0000000  0.6508444  3
   5344   5341   5343   5346     1  0.0000000  0.6508444  3
   5345   5343   5347   5348     1  0.0000000  3.3472000  1
   5345   5343   5347   5348     1  0.0000000  0.0000000  2
   5345   5343   5347   5348     1  180.0000771  0.3347200  3
   5345   5343   5347   5379     1  180.0000771  0.0000000  2
   5346   5343   5347   5348     1  0.0000000  3.3472000  1
   5346   5343   5347   5348     1  0.0000000  0.0000000  2
   5346   5343   5347   5348     1  180.0000771  0.3347200  3
   5346   5343   5347   5379     1  180.0000771  0.0000000  2
   5347   5379   5360   5362     1  0.0000000  1.2552000  3
   5348   5347   5379   5369     1  180.0000771  6.0668000  2
   5348   5347   5379   5369     1  180.0000771  1.4644000  4
   5349   5340   5351   5354     1  0.0000000  0.6508444  3
   5349   5340   5351   5352     1  0.0000000  0.6508444  3
   5349   5340   5351   5353     1  0.0000000  0.6508444  3
   5350   5340   5351   5354     1  0.0000000  0.6508444  3
   5350   5340   5351   5352     1  0.0000000  0.6508444  3
   5350   5340   5351   5353     1  0.0000000  0.6508444  3
   5351   5354   5403   5393     1  180.0000771  6.0668000  2
   5351   5354   5403   5393     1  180.0000771  1.4644000  4
   5352   5351   5354   5355     1  0.0000000  3.3472000  1
   5352   5351   5354   5355     1  0.0000000  0.0000000  2
   5352   5351   5354   5355     1  180.0000771  0.3347200  3
   5352   5351   5354   5403     1  180.0000771  0.0000000  2
   5353   5351   5354   5355     1  0.0000000  3.3472000  1
   5353   5351   5354   5355     1  0.0000000  0.0000000  2
   5353   5351   5354   5355     1  180.0000771  0.3347200  3
   5353   5351   5354   5403     1  180.0000771  0.0000000  2
   5354   5403   5384   5386     1  0.0000000  1.2552000  3
   5355   5354   5403   5393     1  180.0000771  6.0668000  2
   5355   5354   5403   5393     1  180.0000771  1.4644000  4
   5356   5357   5359   5363     1  0.0000000  0.6508444  3
   5356   5357   5377   5378     1  0.0000000  1.0460000  1
   5356   5357   5377   5378     1  0.0000000  0.6694400  3
   5356   5367   5372   5373     1  0.0000000  1.0460000  1
   5356   5367   5372   5373     1  0.0000000  0.6694400  3
   5356   5374   5361   5364     1  0.0000000  1.6038667  3
   5357   5356   5367   5370     1  0.0000000  0.6508444  3
   5357   5356   5367   5371     1  0.0000000  0.6508444  3
   5357   5359   5360   5362     1  0.0000000  0.6508444  3
   5357   5359   5366   5368     1  0.0000000  1.0460000  1
   5357   5359   5366   5368     1  0.0000000  0.6694400  3
   5358   5356   5357   5359     1  0.0000000  0.6508444  3
   5358   5356   5357   5377     1  0.0000000  1.0460000  1
   5358   5356   5357   5377     1  0.0000000  0.0000000  3
   5358   5356   5357   5376     1  0.0000000  0.6508444  3
   5358   5356   5367   5372     1  0.0000000  1.0460000  1
   5358   5356   5367   5372     1  0.0000000  0.0000000  3
   5358   5356   5367   5370     1  0.0000000  0.6508444  3
   5358   5356   5367   5371     1  0.0000000  0.6508444  3
   5358   5356   5374   5361     1  0.0000000  1.6038667  3
   5359   5357   5377   5378     1  0.0000000  1.0460000  1
   5359   5357   5377   5378     1  0.0000000  0.6694400  3
   5359   5360   5361   5364     1  0.0000000  0.6508444  3
   5359   5360   5379   5369     1  0.0000000  1.2552000  3
   5360   5359   5357   5376     1  0.0000000  0.6508444  3
   5360   5359   5366   5368     1  0.0000000  1.0460000  1
   5360   5359   5366   5368     1  0.0000000  0.6694400  3
   5360   5361   5365   5375     1  0.0000000  1.0460000  1
   5360   5361   5365   5375     1  0.0000000  0.6694400  3
   5361   5360   5359   5363     1  0.0000000  0.6508444  3
   5361   5360   5379   5369     1  0.0000000  1.2552000  3
   5362   5360   5359   5366     1  0.0000000  1.0460000  1
   5362   5360   5359   5366     1  0.0000000  0.0000000  3
   5362   5360   5359   5363     1  0.0000000  0.6508444  3
   5362   5360   5361   5365     1  0.0000000  1.0460000  1
   5362   5360   5361   5365     1  0.0000000  0.0000000  3
   5362   5360   5361   5374     1  0.0000000  1.0460000  1
   5362   5360   5361   5374     1  0.0000000  0.0000000  3
   5362   5360   5361   5364     1  0.0000000  0.6508444  3
   5362   5360   5379   5369     1  0.0000000  1.2552000  3
   5363   5359   5357   5377     1  0.0000000  1.0460000  1
   5363   5359   5357   5377     1  0.0000000  0.0000000  3
   5363   5359   5357   5376     1  0.0000000  0.6508444  3
   5363   5359   5360   5379     1  0.0000000  0.6508444  3
   5363   5359   5366   5368     1  0.0000000  0.6973333  3
   5364   5361   5360   5379     1  0.0000000  0.6508444  3
   5364   5361   5365   5375     1  0.0000000  0.6973333  3
   5366   5359   5357   5376     1  0.0000000  1.0460000  1
   5366   5359   5357   5376     1  0.0000000  0.0000000  3
   5367   5356   5357   5376     1  0.0000000  0.6508444  3
   5370   5367   5356   5374     1  0.0000000  1.0460000  1
   5370   5367   5356   5374     1  0.0000000  0.0000000  3
   5370   5367   5372   5373     1  0.0000000  0.6973333  3
   5371   5367   5356   5374     1  0.0000000  1.0460000  1
   5371   5367   5356   5374     1  0.0000000  0.0000000  3
   5371   5367   5372   5373     1  0.0000000  0.6973333  3
   5374   5356   5357   5376     1  0.0000000  1.0460000  1
   5374   5356   5357   5376     1  0.0000000  0.0000000  3
   5374   5361   5365   5375     1  0.0000000  0.6973333  3
   5376   5357   5377   5378     1  0.0000000  0.6973333  3
   5380   5381   5383   5387     1  0.0000000  0.6508444  3
   5380   5381   5401   5402     1  0.0000000  1.0460000  1
   5380   5381   5401   5402     1  0.0000000  0.6694400  3
   5380   5391   5396   5397     1  0.0000000  1.0460000  1
   5380   5391   5396   5397     1  0.0000000  0.6694400  3
   5380   5398   5385   5388     1  0.0000000  1.6038667  3
   5381   5380   5391   5394     1  0.0000000  0.6508444  3
   5381   5380   5391   5395     1  0.0000000  0.6508444  3
   5381   5383   5384   5386     1  0.0000000  0.6508444  3
   5381   5383   5390   5392     1  0.0000000  1.0460000  1
   5381   5383   5390   5392     1  0.0000000  0.6694400  3
   5382   5380   5381   5383     1  0.0000000  0.6508444  3
   5382   5380   5381   5401     1  0.0000000  1.0460000  1
   5382   5380   5381   5401     1  0.0000000  0.0000000  3
   5382   5380   5381   5400     1  0.0000000  0.6508444  3
   5382   5380   5391   5396     1  0.0000000  1.0460000  1
   5382   5380   5391   5396     1  0.0000000  0.0000000  3
   5382   5380   5391   5394     1  0.0000000  0.6508444  3
   5382   5380   5391   5395     1  0.0000000  0.6508444  3
   5382   5380   5398   5385     1  0.0000000  1.6038667  3
   5383   5381   5401   5402     1  0.0000000  1.0460000  1
   5383   5381   5401   5402     1  0.0000000  0.6694400  3
   5383   5384   5385   5388     1  0.0000000  0.6508444  3
   5383   5384   5403   5393     1  0.0000000  1.2552000  3
   5384   5383   5381   5400     1  0.0000000  0.6508444  3
   5384   5383   5390   5392     1  0.0000000  1.0460000  1
   5384   5383   5390   5392     1  0.0000000  0.6694400  3
   5384   5385   5389   5399     1  0.0000000  1.0460000  1
   5384   5385   5389   5399     1  0.0000000  0.6694400  3
   5385   5384   5383   5387     1  0.0000000  0.6508444  3
   5385   5384   5403   5393     1  0.0000000  1.2552000  3
   5386   5384   5383   5390     1  0.0000000  1.0460000  1
   5386   5384   5383   5390     1  0.0000000  0.0000000  3
   5386   5384   5383   5387     1  0.0000000  0.6508444  3
   5386   5384   5385   5389     1  0.0000000  1.0460000  1
   5386   5384   5385   5389     1  0.0000000  0.0000000  3
   5386   5384   5385   5398     1  0.0000000  1.0460000  1
   5386   5384   5385   5398     1  0.0000000  0.0000000  3
   5386   5384   5385   5388     1  0.0000000  0.6508444  3
   5386   5384   5403   5393     1  0.0000000  1.2552000  3
   5387   5383   5381   5401     1  0.0000000  1.0460000  1
   5387   5383   5381   5401     1  0.0000000  0.0000000  3
   5387   5383   5381   5400     1  0.0000000  0.6508444  3
   5387   5383   5384   5403     1  0.0000000  0.6508444  3
   5387   5383   5390   5392     1  0.0000000  0.6973333  3
   5388   5385   5384   5403     1  0.0000000  0.6508444  3
   5388   5385   5389   5399     1  0.0000000  0.6973333  3
   5390   5383   5381   5400     1  0.0000000  1.0460000  1
   5390   5383   5381   5400     1  0.0000000  0.0000000  3
   5391   5380   5381   5400     1  0.0000000  0.6508444  3
   5394   5391   5380   5398     1  0.0000000  1.0460000  1
   5394   5391   5380   5398     1  0.0000000  0.0000000  3
   5394   5391   5396   5397     1  0.0000000  0.6973333  3
   5395   5391   5380   5398     1  0.0000000  1.0460000  1
   5395   5391   5380   5398     1  0.0000000  0.0000000  3
   5395   5391   5396   5397     1  0.0000000  0.6973333  3
   5398   5380   5381   5400     1  0.0000000  1.0460000  1
   5398   5380   5381   5400     1  0.0000000  0.0000000  3
   5398   5385   5389   5399     1  0.0000000  0.6973333  3
   5400   5381   5401   5402     1  0.0000000  0.6973333  3
   5404   5406   5408   5410     1  0.0000000  0.6508444  3
   5404   5406   5408   5411     1  0.0000000  0.6508444  3
   5405   5404   5406   5408     1  0.0000000  0.0000000  2
   5405   5404   5406   5407     1  0.0000000  0.0000000  2
   5405   5404   5406   5409     1  0.0000000  0.0000000  2
   5407   5406   5408   5412     1  0.0000000  0.6508444  3
   5407   5406   5408   5410     1  0.0000000  0.6508444  3
   5407   5406   5408   5411     1  0.0000000  0.6508444  3
   5408   5412   5413   5422     1  0.0000000  1.2552000  3
   5408   5412   5413   5423     1  0.0000000  1.2552000  3
   5408   5412   5414   5415     1  0.0000000  1.2552000  3
   5408   5412   5414   5417     1  0.0000000  1.2552000  3
   5409   5406   5408   5412     1  0.0000000  0.6508444  3
   5409   5406   5408   5410     1  0.0000000  0.6508444  3
   5409   5406   5408   5411     1  0.0000000  0.6508444  3
   5410   5408   5412   5413     1  0.0000000  1.2552000  3
   5410   5408   5412   5414     1  0.0000000  1.2552000  3
   5411   5408   5412   5413     1  0.0000000  1.2552000  3
   5411   5408   5412   5414     1  0.0000000  1.2552000  3
   5412   5413   5424   5425     1  0.0000000  0.6508444  3
   5412   5413   5424   5426     1  0.0000000  0.6508444  3
   5412   5414   5416   5418     1  0.0000000  0.6508444  3
   5412   5414   5416   5419     1  0.0000000  0.6508444  3
   5413   5412   5414   5415     1  0.0000000  1.2552000  3
   5413   5412   5414   5417     1  0.0000000  1.2552000  3
   5414   5412   5413   5422     1  0.0000000  1.2552000  3
   5414   5412   5413   5423     1  0.0000000  1.2552000  3
   5415   5414   5416   5420     1  0.0000000  0.6508444  3
   5415   5414   5416   5418     1  0.0000000  0.6508444  3
   5415   5414   5416   5419     1  0.0000000  0.6508444  3
   5416   5420   5452   5442     1  180.0000771  6.0668000  2
   5416   5420   5452   5442     1  180.0000771  1.4644000  4
   5417   5414   5416   5420     1  0.0000000  0.6508444  3
   5417   5414   5416   5418     1  0.0000000  0.6508444  3
   5417   5414   5416   5419     1  0.0000000  0.6508444  3
   5418   5416   5420   5421     1  0.0000000  3.3472000  1
   5418   5416   5420   5421     1  0.0000000  0.0000000  2
   5418   5416   5420   5421     1  180.0000771  0.3347200  3
   5418   5416   5420   5452     1  180.0000771  0.0000000  2
   5419   5416   5420   5421     1  0.0000000  3.3472000  1
   5419   5416   5420   5421     1  0.0000000  0.0000000  2
   5419   5416   5420   5421     1  180.0000771  0.3347200  3
   5419   5416   5420   5452     1  180.0000771  0.0000000  2
   5420   5452   5433   5435     1  0.0000000  1.2552000  3
   5421   5420   5452   5442     1  180.0000771  6.0668000  2
   5421   5420   5452   5442     1  180.0000771  1.4644000  4
   5422   5413   5424   5427     1  0.0000000  0.6508444  3
   5422   5413   5424   5425     1  0.0000000  0.6508444  3
   5422   5413   5424   5426     1  0.0000000  0.6508444  3
   5423   5413   5424   5427     1  0.0000000  0.6508444  3
   5423   5413   5424   5425     1  0.0000000  0.6508444  3
   5423   5413   5424   5426     1  0.0000000  0.6508444  3
   5424   5427   5476   5466     1  180.0000771  6.0668000  2
   5424   5427   5476   5466     1  180.0000771  1.4644000  4
   5425   5424   5427   5428     1  0.0000000  3.3472000  1
   5425   5424   5427   5428     1  0.0000000  0.0000000  2
   5425   5424   5427   5428     1  180.0000771  0.3347200  3
   5425   5424   5427   5476     1  180.0000771  0.0000000  2
   5426   5424   5427   5428     1  0.0000000  3.3472000  1
   5426   5424   5427   5428     1  0.0000000  0.0000000  2
   5426   5424   5427   5428     1  180.0000771  0.3347200  3
   5426   5424   5427   5476     1  180.0000771  0.0000000  2
   5427   5476   5457   5459     1  0.0000000  1.2552000  3
   5428   5427   5476   5466     1  180.0000771  6.0668000  2
   5428   5427   5476   5466     1  180.0000771  1.4644000  4
   5429   5430   5432   5436     1  0.0000000  0.6508444  3
   5429   5430   5450   5451     1  0.0000000  1.0460000  1
   5429   5430   5450   5451     1  0.0000000  0.6694400  3
   5429   5440   5445   5446     1  0.0000000  1.0460000  1
   5429   5440   5445   5446     1  0.0000000  0.6694400  3
   5429   5447   5434   5437     1  0.0000000  1.6038667  3
   5430   5432   5433   5435     1  0.0000000  0.6508444  3
   5430   5432   5439   5441     1  0.0000000  1.0460000  1
   5430   5432   5439   5441     1  0.0000000  0.6694400  3
   5430   5429   5440   5443     1  0.0000000  0.6508444  3
   5430   5429   5440   5444     1  0.0000000  0.6508444  3
   5431   5429   5430   5432     1  0.0000000  0.6508444  3
   5431   5429   5430   5450     1  0.0000000  1.0460000  1
   5431   5429   5430   5450     1  0.0000000  0.0000000  3
   5431   5429   5430   5449     1  0.0000000  0.6508444  3
   5431   5429   5440   5445     1  0.0000000  1.0460000  1
   5431   5429   5440   5445     1  0.0000000  0.0000000  3
   5431   5429   5440   5443     1  0.0000000  0.6508444  3
   5431   5429   5440   5444     1  0.0000000  0.6508444  3
   5431   5429   5447   5434     1  0.0000000  1.6038667  3
   5432   5433   5434   5437     1  0.0000000  0.6508444  3
   5432   5433   5452   5442     1  0.0000000  1.2552000  3
   5432   5430   5450   5451     1  0.0000000  1.0460000  1
   5432   5430   5450   5451     1  0.0000000  0.6694400  3
   5433   5434   5438   5448     1  0.0000000  1.0460000  1
   5433   5434   5438   5448     1  0.0000000  0.6694400  3
   5433   5432   5439   5441     1  0.0000000  1.0460000  1
   5433   5432   5439   5441     1  0.0000000  0.6694400  3
   5433   5432   5430   5449     1  0.0000000  0.6508444  3
   5434   5433   5452   5442     1  0.0000000  1.2552000  3
   5434   5433   5432   5436     1  0.0000000  0.6508444  3
   5435   5433   5434   5438     1  0.0000000  1.0460000  1
   5435   5433   5434   5438     1  0.0000000  0.0000000  3
   5435   5433   5434   5447     1  0.0000000  1.0460000  1
   5435   5433   5434   5447     1  0.0000000  0.0000000  3
   5435   5433   5434   5437     1  0.0000000  0.6508444  3
   5435   5433   5452   5442     1  0.0000000  1.2552000  3
   5435   5433   5432   5439     1  0.0000000  1.0460000  1
   5435   5433   5432   5439     1  0.0000000  0.0000000  3
   5435   5433   5432   5436     1  0.0000000  0.6508444  3
   5436   5432   5433   5452     1  0.0000000  0.6508444  3
   5436   5432   5439   5441     1  0.0000000  0.6973333  3
   5436   5432   5430   5450     1  0.0000000  1.0460000  1
   5436   5432   5430   5450     1  0.0000000  0.0000000  3
   5436   5432   5430   5449     1  0.0000000  0.6508444  3
   5437   5434   5438   5448     1  0.0000000  0.6973333  3
   5437   5434   5433   5452     1  0.0000000  0.6508444  3
   5439   5432   5430   5449     1  0.0000000  1.0460000  1
   5439   5432   5430   5449     1  0.0000000  0.0000000  3
   5440   5429   5430   5449     1  0.0000000  0.6508444  3
   5443   5440   5445   5446     1  0.0000000  0.6973333  3
   5443   5440   5429   5447     1  0.0000000  1.0460000  1
   5443   5440   5429   5447     1  0.0000000  0.0000000  3
   5444   5440   5445   5446     1  0.0000000  0.6973333  3
   5444   5440   5429   5447     1  0.0000000  1.0460000  1
   5444   5440   5429   5447     1  0.0000000  0.0000000  3
   5447   5434   5438   5448     1  0.0000000  0.6973333  3
   5447   5429   5430   5449     1  0.0000000  1.0460000  1
   5447   5429   5430   5449     1  0.0000000  0.0000000  3
   5449   5430   5450   5451     1  0.0000000  0.6973333  3
   5453   5454   5456   5460     1  0.0000000  0.6508444  3
   5453   5454   5474   5475     1  0.0000000  1.0460000  1
   5453   5454   5474   5475     1  0.0000000  0.6694400  3
   5453   5464   5469   5470     1  0.0000000  1.0460000  1
   5453   5464   5469   5470     1  0.0000000  0.6694400  3
   5453   5471   5458   5461     1  0.0000000  1.6038667  3
   5454   5456   5457   5459     1  0.0000000  0.6508444  3
   5454   5456   5463   5465     1  0.0000000  1.0460000  1
   5454   5456   5463   5465     1  0.0000000  0.6694400  3
   5454   5453   5464   5467     1  0.0000000  0.6508444  3
   5454   5453   5464   5468     1  0.0000000  0.6508444  3
   5455   5453   5454   5456     1  0.0000000  0.6508444  3
   5455   5453   5454   5474     1  0.0000000  1.0460000  1
   5455   5453   5454   5474     1  0.0000000  0.0000000  3
   5455   5453   5454   5473     1  0.0000000  0.6508444  3
   5455   5453   5464   5469     1  0.0000000  1.0460000  1
   5455   5453   5464   5469     1  0.0000000  0.0000000  3
   5455   5453   5464   5467     1  0.0000000  0.6508444  3
   5455   5453   5464   5468     1  0.0000000  0.6508444  3
   5455   5453   5471   5458     1  0.0000000  1.6038667  3
   5456   5457   5458   5461     1  0.0000000  0.6508444  3
   5456   5457   5476   5466     1  0.0000000  1.2552000  3
   5456   5454   5474   5475     1  0.0000000  1.0460000  1
   5456   5454   5474   5475     1  0.0000000  0.6694400  3
   5457   5458   5462   5472     1  0.0000000  1.0460000  1
   5457   5458   5462   5472     1  0.0000000  0.6694400  3
   5457   5456   5463   5465     1  0.0000000  1.0460000  1
   5457   5456   5463   5465     1  0.0000000  0.6694400  3
   5457   5456   5454   5473     1  0.0000000  0.6508444  3
   5458   5457   5476   5466     1  0.0000000  1.2552000  3
   5458   5457   5456   5460     1  0.0000000  0.6508444  3
   5459   5457   5458   5462     1  0.0000000  1.0460000  1
   5459   5457   5458   5462     1  0.0000000  0.0000000  3
   5459   5457   5458   5471     1  0.0000000  1.0460000  1
   5459   5457   5458   5471     1  0.0000000  0.0000000  3
   5459   5457   5458   5461     1  0.0000000  0.6508444  3
   5459   5457   5476   5466     1  0.0000000  1.2552000  3
   5459   5457   5456   5463     1  0.0000000  1.0460000  1
   5459   5457   5456   5463     1  0.0000000  0.0000000  3
   5459   5457   5456   5460     1  0.0000000  0.6508444  3
   5460   5456   5457   5476     1  0.0000000  0.6508444  3
   5460   5456   5463   5465     1  0.0000000  0.6973333  3
   5460   5456   5454   5474     1  0.0000000  1.0460000  1
   5460   5456   5454   5474     1  0.0000000  0.0000000  3
   5460   5456   5454   5473     1  0.0000000  0.6508444  3
   5461   5458   5462   5472     1  0.0000000  0.6973333  3
   5461   5458   5457   5476     1  0.0000000  0.6508444  3
   5463   5456   5454   5473     1  0.0000000  1.0460000  1
   5463   5456   5454   5473     1  0.0000000  0.0000000  3
   5464   5453   5454   5473     1  0.0000000  0.6508444  3
   5467   5464   5469   5470     1  0.0000000  0.6973333  3
   5467   5464   5453   5471     1  0.0000000  1.0460000  1
   5467   5464   5453   5471     1  0.0000000  0.0000000  3
   5468   5464   5469   5470     1  0.0000000  0.6973333  3
   5468   5464   5453   5471     1  0.0000000  1.0460000  1
   5468   5464   5453   5471     1  0.0000000  0.0000000  3
   5471   5458   5462   5472     1  0.0000000  0.6973333  3
   5471   5453   5454   5473     1  0.0000000  1.0460000  1
   5471   5453   5454   5473     1  0.0000000  0.0000000  3
   5473   5454   5474   5475     1  0.0000000  0.6973333  3
   5477   5479   5481   5483     1  0.0000000  0.6508444  3
   5477   5479   5481   5484     1  0.0000000  0.6508444  3
   5478   5477   5479   5481     1  0.0000000  0.0000000  2
   5478   5477   5479   5480     1  0.0000000  0.0000000  2
   5478   5477   5479   5482     1  0.0000000  0.0000000  2
   5480   5479   5481   5485     1  0.0000000  0.6508444  3
   5480   5479   5481   5483     1  0.0000000  0.6508444  3
   5480   5479   5481   5484     1  0.0000000  0.6508444  3
   5481   5485   5486   5495     1  0.0000000  1.2552000  3
   5481   5485   5486   5496     1  0.0000000  1.2552000  3
   5481   5485   5487   5488     1  0.0000000  1.2552000  3
   5481   5485   5487   5490     1  0.0000000  1.2552000  3
   5482   5479   5481   5485     1  0.0000000  0.6508444  3
   5482   5479   5481   5483     1  0.0000000  0.6508444  3
   5482   5479   5481   5484     1  0.0000000  0.6508444  3
   5483   5481   5485   5486     1  0.0000000  1.2552000  3
   5483   5481   5485   5487     1  0.0000000  1.2552000  3
   5484   5481   5485   5486     1  0.0000000  1.2552000  3
   5484   5481   5485   5487     1  0.0000000  1.2552000  3
   5485   5486   5497   5498     1  0.0000000  0.6508444  3
   5485   5486   5497   5499     1  0.0000000  0.6508444  3
   5485   5487   5489   5491     1  0.0000000  0.6508444  3
   5485   5487   5489   5492     1  0.0000000  0.6508444  3
   5486   5485   5487   5488     1  0.0000000  1.2552000  3
   5486   5485   5487   5490     1  0.0000000  1.2552000  3
   5487   5485   5486   5495     1  0.0000000  1.2552000  3
   5487   5485   5486   5496     1  0.0000000  1.2552000  3
   5488   5487   5489   5493     1  0.0000000  0.6508444  3
   5488   5487   5489   5491     1  0.0000000  0.6508444  3
   5488   5487   5489   5492     1  0.0000000  0.6508444  3
   5489   5493   5525   5515     1  180.0000771  6.0668000  2
   5489   5493   5525   5515     1  180.0000771  1.4644000  4
   5490   5487   5489   5493     1  0.0000000  0.6508444  3
   5490   5487   5489   5491     1  0.0000000  0.6508444  3
   5490   5487   5489   5492     1  0.0000000  0.6508444  3
   5491   5489   5493   5494     1  0.0000000  3.3472000  1
   5491   5489   5493   5494     1  0.0000000  0.0000000  2
   5491   5489   5493   5494     1  180.0000771  0.3347200  3
   5491   5489   5493   5525     1  180.0000771  0.0000000  2
   5492   5489   5493   5494     1  0.0000000  3.3472000  1
   5492   5489   5493   5494     1  0.0000000  0.0000000  2
   5492   5489   5493   5494     1  180.0000771  0.3347200  3
   5492   5489   5493   5525     1  180.0000771  0.0000000  2
   5493   5525   5506   5508     1  0.0000000  1.2552000  3
   5494   5493   5525   5515     1  180.0000771  6.0668000  2
   5494   5493   5525   5515     1  180.0000771  1.4644000  4
   5495   5486   5497   5500     1  0.0000000  0.6508444  3
   5495   5486   5497   5498     1  0.0000000  0.6508444  3
   5495   5486   5497   5499     1  0.0000000  0.6508444  3
   5496   5486   5497   5500     1  0.0000000  0.6508444  3
   5496   5486   5497   5498     1  0.0000000  0.6508444  3
   5496   5486   5497   5499     1  0.0000000  0.6508444  3
   5497   5500   5549   5539     1  180.0000771  6.0668000  2
   5497   5500   5549   5539     1  180.0000771  1.4644000  4
   5498   5497   5500   5501     1  0.0000000  3.3472000  1
   5498   5497   5500   5501     1  0.0000000  0.0000000  2
   5498   5497   5500   5501     1  180.0000771  0.3347200  3
   5498   5497   5500   5549     1  180.0000771  0.0000000  2
   5499   5497   5500   5501     1  0.0000000  3.3472000  1
   5499   5497   5500   5501     1  0.0000000  0.0000000  2
   5499   5497   5500   5501     1  180.0000771  0.3347200  3
   5499   5497   5500   5549     1  180.0000771  0.0000000  2
   5500   5549   5530   5532     1  0.0000000  1.2552000  3
   5501   5500   5549   5539     1  180.0000771  6.0668000  2
   5501   5500   5549   5539     1  180.0000771  1.4644000  4
   5502   5503   5505   5509     1  0.0000000  0.6508444  3
   5502   5503   5523   5524     1  0.0000000  1.0460000  1
   5502   5503   5523   5524     1  0.0000000  0.6694400  3
   5502   5513   5518   5519     1  0.0000000  1.0460000  1
   5502   5513   5518   5519     1  0.0000000  0.6694400  3
   5502   5520   5507   5510     1  0.0000000  1.6038667  3
   5503   5502   5513   5516     1  0.0000000  0.6508444  3
   5503   5502   5513   5517     1  0.0000000  0.6508444  3
   5503   5505   5506   5508     1  0.0000000  0.6508444  3
   5503   5505   5512   5514     1  0.0000000  1.0460000  1
   5503   5505   5512   5514     1  0.0000000  0.6694400  3
   5504   5502   5503   5505     1  0.0000000  0.6508444  3
   5504   5502   5503   5523     1  0.0000000  1.0460000  1
   5504   5502   5503   5523     1  0.0000000  0.0000000  3
   5504   5502   5503   5522     1  0.0000000  0.6508444  3
   5504   5502   5513   5518     1  0.0000000  1.0460000  1
   5504   5502   5513   5518     1  0.0000000  0.0000000  3
   5504   5502   5513   5516     1  0.0000000  0.6508444  3
   5504   5502   5513   5517     1  0.0000000  0.6508444  3
   5504   5502   5520   5507     1  0.0000000  1.6038667  3
   5505   5503   5523   5524     1  0.0000000  1.0460000  1
   5505   5503   5523   5524     1  0.0000000  0.6694400  3
   5505   5506   5507   5510     1  0.0000000  0.6508444  3
   5505   5506   5525   5515     1  0.0000000  1.2552000  3
   5506   5505   5503   5522     1  0.0000000  0.6508444  3
   5506   5505   5512   5514     1  0.0000000  1.0460000  1
   5506   5505   5512   5514     1  0.0000000  0.6694400  3
   5506   5507   5511   5521     1  0.0000000  1.0460000  1
   5506   5507   5511   5521     1  0.0000000  0.6694400  3
   5507   5506   5505   5509     1  0.0000000  0.6508444  3
   5507   5506   5525   5515     1  0.0000000  1.2552000  3
   5508   5506   5505   5512     1  0.0000000  1.0460000  1
   5508   5506   5505   5512     1  0.0000000  0.0000000  3
   5508   5506   5505   5509     1  0.0000000  0.6508444  3
   5508   5506   5507   5511     1  0.0000000  1.0460000  1
   5508   5506   5507   5511     1  0.0000000  0.0000000  3
   5508   5506   5507   5520     1  0.0000000  1.0460000  1
   5508   5506   5507   5520     1  0.0000000  0.0000000  3
   5508   5506   5507   5510     1  0.0000000  0.6508444  3
   5508   5506   5525   5515     1  0.0000000  1.2552000  3
   5509   5505   5503   5523     1  0.0000000  1.0460000  1
   5509   5505   5503   5523     1  0.0000000  0.0000000  3
   5509   5505   5503   5522     1  0.0000000  0.6508444  3
   5509   5505   5506   5525     1  0.0000000  0.6508444  3
   5509   5505   5512   5514     1  0.0000000  0.6973333  3
   5510   5507   5506   5525     1  0.0000000  0.6508444  3
   5510   5507   5511   5521     1  0.0000000  0.6973333  3
   5512   5505   5503   5522     1  0.0000000  1.0460000  1
   5512   5505   5503   5522     1  0.0000000  0.0000000  3
   5513   5502   5503   5522     1  0.0000000  0.6508444  3
   5516   5513   5502   5520     1  0.0000000  1.0460000  1
   5516   5513   5502   5520     1  0.0000000  0.0000000  3
   5516   5513   5518   5519     1  0.0000000  0.6973333  3
   5517   5513   5502   5520     1  0.0000000  1.0460000  1
   5517   5513   5502   5520     1  0.0000000  0.0000000  3
   5517   5513   5518   5519     1  0.0000000  0.6973333  3
   5520   5502   5503   5522     1  0.0000000  1.0460000  1
   5520   5502   5503   5522     1  0.0000000  0.0000000  3
   5520   5507   5511   5521     1  0.0000000  0.6973333  3
   5522   5503   5523   5524     1  0.0000000  0.6973333  3
   5526   5527   5529   5533     1  0.0000000  0.6508444  3
   5526   5527   5547   5548     1  0.0000000  1.0460000  1
   5526   5527   5547   5548     1  0.0000000  0.6694400  3
   5526   5537   5542   5543     1  0.0000000  1.0460000  1
   5526   5537   5542   5543     1  0.0000000  0.6694400  3
   5526   5544   5531   5534     1  0.0000000  1.6038667  3
   5527   5526   5537   5540     1  0.0000000  0.6508444  3
   5527   5526   5537   5541     1  0.0000000  0.6508444  3
   5527   5529   5530   5532     1  0.0000000  0.6508444  3
   5527   5529   5536   5538     1  0.0000000  1.0460000  1
   5527   5529   5536   5538     1  0.0000000  0.6694400  3
   5528   5526   5527   5529     1  0.0000000  0.6508444  3
   5528   5526   5527   5547     1  0.0000000  1.0460000  1
   5528   5526   5527   5547     1  0.0000000  0.0000000  3
   5528   5526   5527   5546     1  0.0000000  0.6508444  3
   5528   5526   5537   5542     1  0.0000000  1.0460000  1
   5528   5526   5537   5542     1  0.0000000  0.0000000  3
   5528   5526   5537   5540     1  0.0000000  0.6508444  3
   5528   5526   5537   5541     1  0.0000000  0.6508444  3
   5528   5526   5544   5531     1  0.0000000  1.6038667  3
   5529   5527   5547   5548     1  0.0000000  1.0460000  1
   5529   5527   5547   5548     1  0.0000000  0.6694400  3
   5529   5530   5531   5534     1  0.0000000  0.6508444  3
   5529   5530   5549   5539     1  0.0000000  1.2552000  3
   5530   5529   5527   5546     1  0.0000000  0.6508444  3
   5530   5529   5536   5538     1  0.0000000  1.0460000  1
   5530   5529   5536   5538     1  0.0000000  0.6694400  3
   5530   5531   5535   5545     1  0.0000000  1.0460000  1
   5530   5531   5535   5545     1  0.0000000  0.6694400  3
   5531   5530   5529   5533     1  0.0000000  0.6508444  3
   5531   5530   5549   5539     1  0.0000000  1.2552000  3
   5532   5530   5529   5536     1  0.0000000  1.0460000  1
   5532   5530   5529   5536     1  0.0000000  0.0000000  3
   5532   5530   5529   5533     1  0.0000000  0.6508444  3
   5532   5530   5531   5535     1  0.0000000  1.0460000  1
   5532   5530   5531   5535     1  0.0000000  0.0000000  3
   5532   5530   5531   5544     1  0.0000000  1.0460000  1
   5532   5530   5531   5544     1  0.0000000  0.0000000  3
   5532   5530   5531   5534     1  0.0000000  0.6508444  3
   5532   5530   5549   5539     1  0.0000000  1.2552000  3
   5533   5529   5527   5547     1  0.0000000  1.0460000  1
   5533   5529   5527   5547     1  0.0000000  0.0000000  3
   5533   5529   5527   5546     1  0.0000000  0.6508444  3
   5533   5529   5530   5549     1  0.0000000  0.6508444  3
   5533   5529   5536   5538     1  0.0000000  0.6973333  3
   5534   5531   5530   5549     1  0.0000000  0.6508444  3
   5534   5531   5535   5545     1  0.0000000  0.6973333  3
   5536   5529   5527   5546     1  0.0000000  1.0460000  1
   5536   5529   5527   5546     1  0.0000000  0.0000000  3
   5537   5526   5527   5546     1  0.0000000  0.6508444  3
   5540   5537   5526   5544     1  0.0000000  1.0460000  1
   5540   5537   5526   5544     1  0.0000000  0.0000000  3
   5540   5537   5542   5543     1  0.0000000  0.6973333  3
   5541   5537   5526   5544     1  0.0000000  1.0460000  1
   5541   5537   5526   5544     1  0.0000000  0.0000000  3
   5541   5537   5542   5543     1  0.0000000  0.6973333  3
   5544   5526   5527   5546     1  0.0000000  1.0460000  1
   5544   5526   5527   5546     1  0.0000000  0.0000000  3
   5544   5531   5535   5545     1  0.0000000  0.6973333  3
   5546   5527   5547   5548     1  0.0000000  0.6973333  3
   5550   5552   5554   5556     1  0.0000000  0.6508444  3
   5550   5552   5554   5557     1  0.0000000  0.6508444  3
   5551   5550   5552   5554     1  0.0000000  0.0000000  2
   5551   5550   5552   5553     1  0.0000000  0.0000000  2
   5551   5550   5552   5555     1  0.0000000  0.0000000  2
   5553   5552   5554   5558     1  0.0000000  0.6508444  3
   5553   5552   5554   5556     1  0.0000000  0.6508444  3
   5553   5552   5554   5557     1  0.0000000  0.6508444  3
   5554   5558   5559   5568     1  0.0000000  1.2552000  3
   5554   5558   5559   5569     1  0.0000000  1.2552000  3
   5554   5558   5560   5561     1  0.0000000  1.2552000  3
   5554   5558   5560   5563     1  0.0000000  1.2552000  3
   5555   5552   5554   5558     1  0.0000000  0.6508444  3
   5555   5552   5554   5556     1  0.0000000  0.6508444  3
   5555   5552   5554   5557     1  0.0000000  0.6508444  3
   5556   5554   5558   5559     1  0.0000000  1.2552000  3
   5556   5554   5558   5560     1  0.0000000  1.2552000  3
   5557   5554   5558   5559     1  0.0000000  1.2552000  3
   5557   5554   5558   5560     1  0.0000000  1.2552000  3
   5558   5559   5570   5571     1  0.0000000  0.6508444  3
   5558   5559   5570   5572     1  0.0000000  0.6508444  3
   5558   5560   5562   5564     1  0.0000000  0.6508444  3
   5558   5560   5562   5565     1  0.0000000  0.6508444  3
   5559   5558   5560   5561     1  0.0000000  1.2552000  3
   5559   5558   5560   5563     1  0.0000000  1.2552000  3
   5560   5558   5559   5568     1  0.0000000  1.2552000  3
   5560   5558   5559   5569     1  0.0000000  1.2552000  3
   5561   5560   5562   5566     1  0.0000000  0.6508444  3
   5561   5560   5562   5564     1  0.0000000  0.6508444  3
   5561   5560   5562   5565     1  0.0000000  0.6508444  3
   5562   5566   5598   5588     1  180.0000771  6.0668000  2
   5562   5566   5598   5588     1  180.0000771  1.4644000  4
   5563   5560   5562   5566     1  0.0000000  0.6508444  3
   5563   5560   5562   5564     1  0.0000000  0.6508444  3
   5563   5560   5562   5565     1  0.0000000  0.6508444  3
   5564   5562   5566   5567     1  0.0000000  3.3472000  1
   5564   5562   5566   5567     1  0.0000000  0.0000000  2
   5564   5562   5566   5567     1  180.0000771  0.3347200  3
   5564   5562   5566   5598     1  180.0000771  0.0000000  2
   5565   5562   5566   5567     1  0.0000000  3.3472000  1
   5565   5562   5566   5567     1  0.0000000  0.0000000  2
   5565   5562   5566   5567     1  180.0000771  0.3347200  3
   5565   5562   5566   5598     1  180.0000771  0.0000000  2
   5566   5598   5579   5581     1  0.0000000  1.2552000  3
   5567   5566   5598   5588     1  180.0000771  6.0668000  2
   5567   5566   5598   5588     1  180.0000771  1.4644000  4
   5568   5559   5570   5573     1  0.0000000  0.6508444  3
   5568   5559   5570   5571     1  0.0000000  0.6508444  3
   5568   5559   5570   5572     1  0.0000000  0.6508444  3
   5569   5559   5570   5573     1  0.0000000  0.6508444  3
   5569   5559   5570   5571     1  0.0000000  0.6508444  3
   5569   5559   5570   5572     1  0.0000000  0.6508444  3
   5570   5573   5622   5612     1  180.0000771  6.0668000  2
   5570   5573   5622   5612     1  180.0000771  1.4644000  4
   5571   5570   5573   5574     1  0.0000000  3.3472000  1
   5571   5570   5573   5574     1  0.0000000  0.0000000  2
   5571   5570   5573   5574     1  180.0000771  0.3347200  3
   5571   5570   5573   5622     1  180.0000771  0.0000000  2
   5572   5570   5573   5574     1  0.0000000  3.3472000  1
   5572   5570   5573   5574     1  0.0000000  0.0000000  2
   5572   5570   5573   5574     1  180.0000771  0.3347200  3
   5572   5570   5573   5622     1  180.0000771  0.0000000  2
   5573   5622   5603   5605     1  0.0000000  1.2552000  3
   5574   5573   5622   5612     1  180.0000771  6.0668000  2
   5574   5573   5622   5612     1  180.0000771  1.4644000  4
   5575   5576   5578   5582     1  0.0000000  0.6508444  3
   5575   5576   5596   5597     1  0.0000000  1.0460000  1
   5575   5576   5596   5597     1  0.0000000  0.6694400  3
   5575   5586   5591   5592     1  0.0000000  1.0460000  1
   5575   5586   5591   5592     1  0.0000000  0.6694400  3
   5575   5593   5580   5583     1  0.0000000  1.6038667  3
   5576   5578   5579   5581     1  0.0000000  0.6508444  3
   5576   5578   5585   5587     1  0.0000000  1.0460000  1
   5576   5578   5585   5587     1  0.0000000  0.6694400  3
   5576   5575   5586   5589     1  0.0000000  0.6508444  3
   5576   5575   5586   5590     1  0.0000000  0.6508444  3
   5577   5575   5576   5578     1  0.0000000  0.6508444  3
   5577   5575   5576   5596     1  0.0000000  1.0460000  1
   5577   5575   5576   5596     1  0.0000000  0.0000000  3
   5577   5575   5576   5595     1  0.0000000  0.6508444  3
   5577   5575   5586   5591     1  0.0000000  1.0460000  1
   5577   5575   5586   5591     1  0.0000000  0.0000000  3
   5577   5575   5586   5589     1  0.0000000  0.6508444  3
   5577   5575   5586   5590     1  0.0000000  0.6508444  3
   5577   5575   5593   5580     1  0.0000000  1.6038667  3
   5578   5579   5580   5583     1  0.0000000  0.6508444  3
   5578   5579   5598   5588     1  0.0000000  1.2552000  3
   5578   5576   5596   5597     1  0.0000000  1.0460000  1
   5578   5576   5596   5597     1  0.0000000  0.6694400  3
   5579   5580   5584   5594     1  0.0000000  1.0460000  1
   5579   5580   5584   5594     1  0.0000000  0.6694400  3
   5579   5578   5585   5587     1  0.0000000  1.0460000  1
   5579   5578   5585   5587     1  0.0000000  0.6694400  3
   5579   5578   5576   5595     1  0.0000000  0.6508444  3
   5580   5579   5598   5588     1  0.0000000  1.2552000  3
   5580   5579   5578   5582     1  0.0000000  0.6508444  3
   5581   5579   5580   5584     1  0.0000000  1.0460000  1
   5581   5579   5580   5584     1  0.0000000  0.0000000  3
   5581   5579   5580   5593     1  0.0000000  1.0460000  1
   5581   5579   5580   5593     1  0.0000000  0.0000000  3
   5581   5579   5580   5583     1  0.0000000  0.6508444  3
   5581   5579   5598   5588     1  0.0000000  1.2552000  3
   5581   5579   5578   5585     1  0.0000000  1.0460000  1
   5581   5579   5578   5585     1  0.0000000  0.0000000  3
   5581   5579   5578   5582     1  0.0000000  0.6508444  3
   5582   5578   5579   5598     1  0.0000000  0.6508444  3
   5582   5578   5585   5587     1  0.0000000  0.6973333  3
   5582   5578   5576   5596     1  0.0000000  1.0460000  1
   5582   5578   5576   5596     1  0.0000000  0.0000000  3
   5582   5578   5576   5595     1  0.0000000  0.6508444  3
   5583   5580   5584   5594     1  0.0000000  0.6973333  3
   5583   5580   5579   5598     1  0.0000000  0.6508444  3
   5585   5578   5576   5595     1  0.0000000  1.0460000  1
   5585   5578   5576   5595     1  0.0000000  0.0000000  3
   5586   5575   5576   5595     1  0.0000000  0.6508444  3
   5589   5586   5591   5592     1  0.0000000  0.6973333  3
   5589   5586   5575   5593     1  0.0000000  1.0460000  1
   5589   5586   5575   5593     1  0.0000000  0.0000000  3
   5590   5586   5591   5592     1  0.0000000  0.6973333  3
   5590   5586   5575   5593     1  0.0000000  1.0460000  1
   5590   5586   5575   5593     1  0.0000000  0.0000000  3
   5593   5580   5584   5594     1  0.0000000  0.6973333  3
   5593   5575   5576   5595     1  0.0000000  1.0460000  1
   5593   5575   5576   5595     1  0.0000000  0.0000000  3
   5595   5576   5596   5597     1  0.0000000  0.6973333  3
   5599   5600   5602   5606     1  0.0000000  0.6508444  3
   5599   5600   5620   5621     1  0.0000000  1.0460000  1
   5599   5600   5620   5621     1  0.0000000  0.6694400  3
   5599   5610   5615   5616     1  0.0000000  1.0460000  1
   5599   5610   5615   5616     1  0.0000000  0.6694400  3
   5599   5617   5604   5607     1  0.0000000  1.6038667  3
   5600   5602   5603   5605     1  0.0000000  0.6508444  3
   5600   5602   5609   5611     1  0.0000000  1.0460000  1
   5600   5602   5609   5611     1  0.0000000  0.6694400  3
   5600   5599   5610   5613     1  0.0000000  0.6508444  3
   5600   5599   5610   5614     1  0.0000000  0.6508444  3
   5601   5599   5600   5602     1  0.0000000  0.6508444  3
   5601   5599   5600   5620     1  0.0000000  1.0460000  1
   5601   5599   5600   5620     1  0.0000000  0.0000000  3
   5601   5599   5600   5619     1  0.0000000  0.6508444  3
   5601   5599   5610   5615     1  0.0000000  1.0460000  1
   5601   5599   5610   5615     1  0.0000000  0.0000000  3
   5601   5599   5610   5613     1  0.0000000  0.6508444  3
   5601   5599   5610   5614     1  0.0000000  0.6508444  3
   5601   5599   5617   5604     1  0.0000000  1.6038667  3
   5602   5603   5604   5607     1  0.0000000  0.6508444  3
   5602   5603   5622   5612     1  0.0000000  1.2552000  3
   5602   5600   5620   5621     1  0.0000000  1.0460000  1
   5602   5600   5620   5621     1  0.0000000  0.6694400  3
   5603   5604   5608   5618     1  0.0000000  1.0460000  1
   5603   5604   5608   5618     1  0.0000000  0.6694400  3
   5603   5602   5609   5611     1  0.0000000  1.0460000  1
   5603   5602   5609   5611     1  0.0000000  0.6694400  3
   5603   5602   5600   5619     1  0.0000000  0.6508444  3
   5604   5603   5622   5612     1  0.0000000  1.2552000  3
   5604   5603   5602   5606     1  0.0000000  0.6508444  3
   5605   5603   5604   5608     1  0.0000000  1.0460000  1
   5605   5603   5604   5608     1  0.0000000  0.0000000  3
   5605   5603   5604   5617     1  0.0000000  1.0460000  1
   5605   5603   5604   5617     1  0.0000000  0.0000000  3
   5605   5603   5604   5607     1  0.0000000  0.6508444  3
   5605   5603   5622   5612     1  0.0000000  1.2552000  3
   5605   5603   5602   5609     1  0.0000000  1.0460000  1
   5605   5603   5602   5609     1  0.0000000  0.0000000  3
   5605   5603   5602   5606     1  0.0000000  0.6508444  3
   5606   5602   5603   5622     1  0.0000000  0.6508444  3
   5606   5602   5609   5611     1  0.0000000  0.6973333  3
   5606   5602   5600   5620     1  0.0000000  1.0460000  1
   5606   5602   5600   5620     1  0.0000000  0.0000000  3
   5606   5602   5600   5619     1  0.0000000  0.6508444  3
   5607   5604   5608   5618     1  0.0000000  0.6973333  3
   5607   5604   5603   5622     1  0.0000000  0.6508444  3
   5609   5602   5600   5619     1  0.0000000  1.0460000  1
   5609   5602   5600   5619     1  0.0000000  0.0000000  3
   5610   5599   5600   5619     1  0.0000000  0.6508444  3
   5613   5610   5615   5616     1  0.0000000  0.6973333  3
   5613   5610   5599   5617     1  0.0000000  1.0460000  1
   5613   5610   5599   5617     1  0.0000000  0.0000000  3
   5614   5610   5615   5616     1  0.0000000  0.6973333  3
   5614   5610   5599   5617     1  0.0000000  1.0460000  1
   5614   5610   5599   5617     1  0.0000000  0.0000000  3
   5617   5604   5608   5618     1  0.0000000  0.6973333  3
   5617   5599   5600   5619     1  0.0000000  1.0460000  1
   5617   5599   5600   5619     1  0.0000000  0.0000000  3
   5619   5600   5620   5621     1  0.0000000  0.6973333  3
   5623   5625   5627   5629     1  0.0000000  0.6508444  3
   5623   5625   5627   5630     1  0.0000000  0.6508444  3
   5624   5623   5625   5627     1  0.0000000  0.0000000  2
   5624   5623   5625   5626     1  0.0000000  0.0000000  2
   5624   5623   5625   5628     1  0.0000000  0.0000000  2
   5626   5625   5627   5631     1  0.0000000  0.6508444  3
   5626   5625   5627   5629     1  0.0000000  0.6508444  3
   5626   5625   5627   5630     1  0.0000000  0.6508444  3
   5627   5631   5632   5641     1  0.0000000  1.2552000  3
   5627   5631   5632   5642     1  0.0000000  1.2552000  3
   5627   5631   5633   5634     1  0.0000000  1.2552000  3
   5627   5631   5633   5636     1  0.0000000  1.2552000  3
   5628   5625   5627   5631     1  0.0000000  0.6508444  3
   5628   5625   5627   5629     1  0.0000000  0.6508444  3
   5628   5625   5627   5630     1  0.0000000  0.6508444  3
   5629   5627   5631   5632     1  0.0000000  1.2552000  3
   5629   5627   5631   5633     1  0.0000000  1.2552000  3
   5630   5627   5631   5632     1  0.0000000  1.2552000  3
   5630   5627   5631   5633     1  0.0000000  1.2552000  3
   5631   5632   5643   5644     1  0.0000000  0.6508444  3
   5631   5632   5643   5645     1  0.0000000  0.6508444  3
   5631   5633   5635   5637     1  0.0000000  0.6508444  3
   5631   5633   5635   5638     1  0.0000000  0.6508444  3
   5632   5631   5633   5634     1  0.0000000  1.2552000  3
   5632   5631   5633   5636     1  0.0000000  1.2552000  3
   5633   5631   5632   5641     1  0.0000000  1.2552000  3
   5633   5631   5632   5642     1  0.0000000  1.2552000  3
   5634   5633   5635   5639     1  0.0000000  0.6508444  3
   5634   5633   5635   5637     1  0.0000000  0.6508444  3
   5634   5633   5635   5638     1  0.0000000  0.6508444  3
   5635   5639   5671   5661     1  180.0000771  6.0668000  2
   5635   5639   5671   5661     1  180.0000771  1.4644000  4
   5636   5633   5635   5639     1  0.0000000  0.6508444  3
   5636   5633   5635   5637     1  0.0000000  0.6508444  3
   5636   5633   5635   5638     1  0.0000000  0.6508444  3
   5637   5635   5639   5640     1  0.0000000  3.3472000  1
   5637   5635   5639   5640     1  0.0000000  0.0000000  2
   5637   5635   5639   5640     1  180.0000771  0.3347200  3
   5637   5635   5639   5671     1  180.0000771  0.0000000  2
   5638   5635   5639   5640     1  0.0000000  3.3472000  1
   5638   5635   5639   5640     1  0.0000000  0.0000000  2
   5638   5635   5639   5640     1  180.0000771  0.3347200  3
   5638   5635   5639   5671     1  180.0000771  0.0000000  2
   5639   5671   5652   5654     1  0.0000000  1.2552000  3
   5640   5639   5671   5661     1  180.0000771  6.0668000  2
   5640   5639   5671   5661     1  180.0000771  1.4644000  4
   5641   5632   5643   5646     1  0.0000000  0.6508444  3
   5641   5632   5643   5644     1  0.0000000  0.6508444  3
   5641   5632   5643   5645     1  0.0000000  0.6508444  3
   5642   5632   5643   5646     1  0.0000000  0.6508444  3
   5642   5632   5643   5644     1  0.0000000  0.6508444  3
   5642   5632   5643   5645     1  0.0000000  0.6508444  3
   5643   5646   5695   5685     1  180.0000771  6.0668000  2
   5643   5646   5695   5685     1  180.0000771  1.4644000  4
   5644   5643   5646   5647     1  0.0000000  3.3472000  1
   5644   5643   5646   5647     1  0.0000000  0.0000000  2
   5644   5643   5646   5647     1  180.0000771  0.3347200  3
   5644   5643   5646   5695     1  180.0000771  0.0000000  2
   5645   5643   5646   5647     1  0.0000000  3.3472000  1
   5645   5643   5646   5647     1  0.0000000  0.0000000  2
   5645   5643   5646   5647     1  180.0000771  0.3347200  3
   5645   5643   5646   5695     1  180.0000771  0.0000000  2
   5646   5695   5676   5678     1  0.0000000  1.2552000  3
   5647   5646   5695   5685     1  180.0000771  6.0668000  2
   5647   5646   5695   5685     1  180.0000771  1.4644000  4
   5648   5649   5651   5655     1  0.0000000  0.6508444  3
   5648   5649   5669   5670     1  0.0000000  1.0460000  1
   5648   5649   5669   5670     1  0.0000000  0.6694400  3
   5648   5659   5664   5665     1  0.0000000  1.0460000  1
   5648   5659   5664   5665     1  0.0000000  0.6694400  3
   5648   5666   5653   5656     1  0.0000000  1.6038667  3
   5649   5648   5659   5662     1  0.0000000  0.6508444  3
   5649   5648   5659   5663     1  0.0000000  0.6508444  3
   5649   5651   5652   5654     1  0.0000000  0.6508444  3
   5649   5651   5658   5660     1  0.0000000  1.0460000  1
   5649   5651   5658   5660     1  0.0000000  0.6694400  3
   5650   5648   5649   5651     1  0.0000000  0.6508444  3
   5650   5648   5649   5669     1  0.0000000  1.0460000  1
   5650   5648   5649   5669     1  0.0000000  0.0000000  3
   5650   5648   5649   5668     1  0.0000000  0.6508444  3
   5650   5648   5659   5664     1  0.0000000  1.0460000  1
   5650   5648   5659   5664     1  0.0000000  0.0000000  3
   5650   5648   5659   5662     1  0.0000000  0.6508444  3
   5650   5648   5659   5663     1  0.0000000  0.6508444  3
   5650   5648   5666   5653     1  0.0000000  1.6038667  3
   5651   5649   5669   5670     1  0.0000000  1.0460000  1
   5651   5649   5669   5670     1  0.0000000  0.6694400  3
   5651   5652   5653   5656     1  0.0000000  0.6508444  3
   5651   5652   5671   5661     1  0.0000000  1.2552000  3
   5652   5651   5649   5668     1  0.0000000  0.6508444  3
   5652   5651   5658   5660     1  0.0000000  1.0460000  1
   5652   5651   5658   5660     1  0.0000000  0.6694400  3
   5652   5653   5657   5667     1  0.0000000  1.0460000  1
   5652   5653   5657   5667     1  0.0000000  0.6694400  3
   5653   5652   5651   5655     1  0.0000000  0.6508444  3
   5653   5652   5671   5661     1  0.0000000  1.2552000  3
   5654   5652   5651   5658     1  0.0000000  1.0460000  1
   5654   5652   5651   5658     1  0.0000000  0.0000000  3
   5654   5652   5651   5655     1  0.0000000  0.6508444  3
   5654   5652   5653   5657     1  0.0000000  1.0460000  1
   5654   5652   5653   5657     1  0.0000000  0.0000000  3
   5654   5652   5653   5666     1  0.0000000  1.0460000  1
   5654   5652   5653   5666     1  0.0000000  0.0000000  3
   5654   5652   5653   5656     1  0.0000000  0.6508444  3
   5654   5652   5671   5661     1  0.0000000  1.2552000  3
   5655   5651   5649   5669     1  0.0000000  1.0460000  1
   5655   5651   5649   5669     1  0.0000000  0.0000000  3
   5655   5651   5649   5668     1  0.0000000  0.6508444  3
   5655   5651   5652   5671     1  0.0000000  0.6508444  3
   5655   5651   5658   5660     1  0.0000000  0.6973333  3
   5656   5653   5652   5671     1  0.0000000  0.6508444  3
   5656   5653   5657   5667     1  0.0000000  0.6973333  3
   5658   5651   5649   5668     1  0.0000000  1.0460000  1
   5658   5651   5649   5668     1  0.0000000  0.0000000  3
   5659   5648   5649   5668     1  0.0000000  0.6508444  3
   5662   5659   5648   5666     1  0.0000000  1.0460000  1
   5662   5659   5648   5666     1  0.0000000  0.0000000  3
   5662   5659   5664   5665     1  0.0000000  0.6973333  3
   5663   5659   5648   5666     1  0.0000000  1.0460000  1
   5663   5659   5648   5666     1  0.0000000  0.0000000  3
   5663   5659   5664   5665     1  0.0000000  0.6973333  3
   5666   5648   5649   5668     1  0.0000000  1.0460000  1
   5666   5648   5649   5668     1  0.0000000  0.0000000  3
   5666   5653   5657   5667     1  0.0000000  0.6973333  3
   5668   5649   5669   5670     1  0.0000000  0.6973333  3
   5672   5673   5675   5679     1  0.0000000  0.6508444  3
   5672   5673   5693   5694     1  0.0000000  1.0460000  1
   5672   5673   5693   5694     1  0.0000000  0.6694400  3
   5672   5683   5688   5689     1  0.0000000  1.0460000  1
   5672   5683   5688   5689     1  0.0000000  0.6694400  3
   5672   5690   5677   5680     1  0.0000000  1.6038667  3
   5673   5672   5683   5686     1  0.0000000  0.6508444  3
   5673   5672   5683   5687     1  0.0000000  0.6508444  3
   5673   5675   5676   5678     1  0.0000000  0.6508444  3
   5673   5675   5682   5684     1  0.0000000  1.0460000  1
   5673   5675   5682   5684     1  0.0000000  0.6694400  3
   5674   5672   5673   5675     1  0.0000000  0.6508444  3
   5674   5672   5673   5693     1  0.0000000  1.0460000  1
   5674   5672   5673   5693     1  0.0000000  0.0000000  3
   5674   5672   5673   5692     1  0.0000000  0.6508444  3
   5674   5672   5683   5688     1  0.0000000  1.0460000  1
   5674   5672   5683   5688     1  0.0000000  0.0000000  3
   5674   5672   5683   5686     1  0.0000000  0.6508444  3
   5674   5672   5683   5687     1  0.0000000  0.6508444  3
   5674   5672   5690   5677     1  0.0000000  1.6038667  3
   5675   5673   5693   5694     1  0.0000000  1.0460000  1
   5675   5673   5693   5694     1  0.0000000  0.6694400  3
   5675   5676   5677   5680     1  0.0000000  0.6508444  3
   5675   5676   5695   5685     1  0.0000000  1.2552000  3
   5676   5675   5673   5692     1  0.0000000  0.6508444  3
   5676   5675   5682   5684     1  0.0000000  1.0460000  1
   5676   5675   5682   5684     1  0.0000000  0.6694400  3
   5676   5677   5681   5691     1  0.0000000  1.0460000  1
   5676   5677   5681   5691     1  0.0000000  0.6694400  3
   5677   5676   5675   5679     1  0.0000000  0.6508444  3
   5677   5676   5695   5685     1  0.0000000  1.2552000  3
   5678   5676   5675   5682     1  0.0000000  1.0460000  1
   5678   5676   5675   5682     1  0.0000000  0.0000000  3
   5678   5676   5675   5679     1  0.0000000  0.6508444  3
   5678   5676   5677   5681     1  0.0000000  1.0460000  1
   5678   5676   5677   5681     1  0.0000000  0.0000000  3
   5678   5676   5677   5690     1  0.0000000  1.0460000  1
   5678   5676   5677   5690     1  0.0000000  0.0000000  3
   5678   5676   5677   5680     1  0.0000000  0.6508444  3
   5678   5676   5695   5685     1  0.0000000  1.2552000  3
   5679   5675   5673   5693     1  0.0000000  1.0460000  1
   5679   5675   5673   5693     1  0.0000000  0.0000000  3
   5679   5675   5673   5692     1  0.0000000  0.6508444  3
   5679   5675   5676   5695     1  0.0000000  0.6508444  3
   5679   5675   5682   5684     1  0.0000000  0.6973333  3
   5680   5677   5676   5695     1  0.0000000  0.6508444  3
   5680   5677   5681   5691     1  0.0000000  0.6973333  3
   5682   5675   5673   5692     1  0.0000000  1.0460000  1
   5682   5675   5673   5692     1  0.0000000  0.0000000  3
   5683   5672   5673   5692     1  0.0000000  0.6508444  3
   5686   5683   5672   5690     1  0.0000000  1.0460000  1
   5686   5683   5672   5690     1  0.0000000  0.0000000  3
   5686   5683   5688   5689     1  0.0000000  0.6973333  3
   5687   5683   5672   5690     1  0.0000000  1.0460000  1
   5687   5683   5672   5690     1  0.0000000  0.0000000  3
   5687   5683   5688   5689     1  0.0000000  0.6973333  3
   5690   5672   5673   5692     1  0.0000000  1.0460000  1
   5690   5672   5673   5692     1  0.0000000  0.0000000  3
   5690   5677   5681   5691     1  0.0000000  0.6973333  3
   5692   5673   5693   5694     1  0.0000000  0.6973333  3
   5696   5698   5700   5702     1  0.0000000  0.6508444  3
   5696   5698   5700   5703     1  0.0000000  0.6508444  3
   5697   5696   5698   5700     1  0.0000000  0.0000000  2
   5697   5696   5698   5699     1  0.0000000  0.0000000  2
   5697   5696   5698   5701     1  0.0000000  0.0000000  2
   5699   5698   5700   5704     1  0.0000000  0.6508444  3
   5699   5698   5700   5702     1  0.0000000  0.6508444  3
   5699   5698   5700   5703     1  0.0000000  0.6508444  3
   5700   5704   5705   5714     1  0.0000000  1.2552000  3
   5700   5704   5705   5715     1  0.0000000  1.2552000  3
   5700   5704   5706   5707     1  0.0000000  1.2552000  3
   5700   5704   5706   5709     1  0.0000000  1.2552000  3
   5701   5698   5700   5704     1  0.0000000  0.6508444  3
   5701   5698   5700   5702     1  0.0000000  0.6508444  3
   5701   5698   5700   5703     1  0.0000000  0.6508444  3
   5702   5700   5704   5705     1  0.0000000  1.2552000  3
   5702   5700   5704   5706     1  0.0000000  1.2552000  3
   5703   5700   5704   5705     1  0.0000000  1.2552000  3
   5703   5700   5704   5706     1  0.0000000  1.2552000  3
   5704   5705   5716   5717     1  0.0000000  0.6508444  3
   5704   5705   5716   5718     1  0.0000000  0.6508444  3
   5704   5706   5708   5710     1  0.0000000  0.6508444  3
   5704   5706   5708   5711     1  0.0000000  0.6508444  3
   5705   5704   5706   5707     1  0.0000000  1.2552000  3
   5705   5704   5706   5709     1  0.0000000  1.2552000  3
   5706   5704   5705   5714     1  0.0000000  1.2552000  3
   5706   5704   5705   5715     1  0.0000000  1.2552000  3
   5707   5706   5708   5712     1  0.0000000  0.6508444  3
   5707   5706   5708   5710     1  0.0000000  0.6508444  3
   5707   5706   5708   5711     1  0.0000000  0.6508444  3
   5708   5712   5744   5734     1  180.0000771  6.0668000  2
   5708   5712   5744   5734     1  180.0000771  1.4644000  4
   5709   5706   5708   5712     1  0.0000000  0.6508444  3
   5709   5706   5708   5710     1  0.0000000  0.6508444  3
   5709   5706   5708   5711     1  0.0000000  0.6508444  3
   5710   5708   5712   5713     1  0.0000000  3.3472000  1
   5710   5708   5712   5713     1  0.0000000  0.0000000  2
   5710   5708   5712   5713     1  180.0000771  0.3347200  3
   5710   5708   5712   5744     1  180.0000771  0.0000000  2
   5711   5708   5712   5713     1  0.0000000  3.3472000  1
   5711   5708   5712   5713     1  0.0000000  0.0000000  2
   5711   5708   5712   5713     1  180.0000771  0.3347200  3
   5711   5708   5712   5744     1  180.0000771  0.0000000  2
   5712   5744   5725   5727     1  0.0000000  1.2552000  3
   5713   5712   5744   5734     1  180.0000771  6.0668000  2
   5713   5712   5744   5734     1  180.0000771  1.4644000  4
   5714   5705   5716   5719     1  0.0000000  0.6508444  3
   5714   5705   5716   5717     1  0.0000000  0.6508444  3
   5714   5705   5716   5718     1  0.0000000  0.6508444  3
   5715   5705   5716   5719     1  0.0000000  0.6508444  3
   5715   5705   5716   5717     1  0.0000000  0.6508444  3
   5715   5705   5716   5718     1  0.0000000  0.6508444  3
   5716   5719   5768   5758     1  180.0000771  6.0668000  2
   5716   5719   5768   5758     1  180.0000771  1.4644000  4
   5717   5716   5719   5720     1  0.0000000  3.3472000  1
   5717   5716   5719   5720     1  0.0000000  0.0000000  2
   5717   5716   5719   5720     1  180.0000771  0.3347200  3
   5717   5716   5719   5768     1  180.0000771  0.0000000  2
   5718   5716   5719   5720     1  0.0000000  3.3472000  1
   5718   5716   5719   5720     1  0.0000000  0.0000000  2
   5718   5716   5719   5720     1  180.0000771  0.3347200  3
   5718   5716   5719   5768     1  180.0000771  0.0000000  2
   5719   5768   5749   5751     1  0.0000000  1.2552000  3
   5720   5719   5768   5758     1  180.0000771  6.0668000  2
   5720   5719   5768   5758     1  180.0000771  1.4644000  4
   5721   5722   5724   5728     1  0.0000000  0.6508444  3
   5721   5722   5742   5743     1  0.0000000  1.0460000  1
   5721   5722   5742   5743     1  0.0000000  0.6694400  3
   5721   5732   5737   5738     1  0.0000000  1.0460000  1
   5721   5732   5737   5738     1  0.0000000  0.6694400  3
   5721   5739   5726   5729     1  0.0000000  1.6038667  3
   5722   5724   5725   5727     1  0.0000000  0.6508444  3
   5722   5724   5731   5733     1  0.0000000  1.0460000  1
   5722   5724   5731   5733     1  0.0000000  0.6694400  3
   5722   5721   5732   5735     1  0.0000000  0.6508444  3
   5722   5721   5732   5736     1  0.0000000  0.6508444  3
   5723   5721   5722   5724     1  0.0000000  0.6508444  3
   5723   5721   5722   5742     1  0.0000000  1.0460000  1
   5723   5721   5722   5742     1  0.0000000  0.0000000  3
   5723   5721   5722   5741     1  0.0000000  0.6508444  3
   5723   5721   5732   5737     1  0.0000000  1.0460000  1
   5723   5721   5732   5737     1  0.0000000  0.0000000  3
   5723   5721   5732   5735     1  0.0000000  0.6508444  3
   5723   5721   5732   5736     1  0.0000000  0.6508444  3
   5723   5721   5739   5726     1  0.0000000  1.6038667  3
   5724   5725   5726   5729     1  0.0000000  0.6508444  3
   5724   5725   5744   5734     1  0.0000000  1.2552000  3
   5724   5722   5742   5743     1  0.0000000  1.0460000  1
   5724   5722   5742   5743     1  0.0000000  0.6694400  3
   5725   5726   5730   5740     1  0.0000000  1.0460000  1
   5725   5726   5730   5740     1  0.0000000  0.6694400  3
   5725   5724   5731   5733     1  0.0000000  1.0460000  1
   5725   5724   5731   5733     1  0.0000000  0.6694400  3
   5725   5724   5722   5741     1  0.0000000  0.6508444  3
   5726   5725   5744   5734     1  0.0000000  1.2552000  3
   5726   5725   5724   5728     1  0.0000000  0.6508444  3
   5727   5725   5726   5730     1  0.0000000  1.0460000  1
   5727   5725   5726   5730     1  0.0000000  0.0000000  3
   5727   5725   5726   5739     1  0.0000000  1.0460000  1
   5727   5725   5726   5739     1  0.0000000  0.0000000  3
   5727   5725   5726   5729     1  0.0000000  0.6508444  3
   5727   5725   5744   5734     1  0.0000000  1.2552000  3
   5727   5725   5724   5731     1  0.0000000  1.0460000  1
   5727   5725   5724   5731     1  0.0000000  0.0000000  3
   5727   5725   5724   5728     1  0.0000000  0.6508444  3
   5728   5724   5725   5744     1  0.0000000  0.6508444  3
   5728   5724   5731   5733     1  0.0000000  0.6973333  3
   5728   5724   5722   5742     1  0.0000000  1.0460000  1
   5728   5724   5722   5742     1  0.0000000  0.0000000  3
   5728   5724   5722   5741     1  0.0000000  0.6508444  3
   5729   5726   5730   5740     1  0.0000000  0.6973333  3
   5729   5726   5725   5744     1  0.0000000  0.6508444  3
   5731   5724   5722   5741     1  0.0000000  1.0460000  1
   5731   5724   5722   5741     1  0.0000000  0.0000000  3
   5732   5721   5722   5741     1  0.0000000  0.6508444  3
   5735   5732   5737   5738     1  0.0000000  0.6973333  3
   5735   5732   5721   5739     1  0.0000000  1.0460000  1
   5735   5732   5721   5739     1  0.0000000  0.0000000  3
   5736   5732   5737   5738     1  0.0000000  0.6973333  3
   5736   5732   5721   5739     1  0.0000000  1.0460000  1
   5736   5732   5721   5739     1  0.0000000  0.0000000  3
   5739   5726   5730   5740     1  0.0000000  0.6973333  3
   5739   5721   5722   5741     1  0.0000000  1.0460000  1
   5739   5721   5722   5741     1  0.0000000  0.0000000  3
   5741   5722   5742   5743     1  0.0000000  0.6973333  3
   5745   5746   5748   5752     1  0.0000000  0.6508444  3
   5745   5746   5766   5767     1  0.0000000  1.0460000  1
   5745   5746   5766   5767     1  0.0000000  0.6694400  3
   5745   5756   5761   5762     1  0.0000000  1.0460000  1
   5745   5756   5761   5762     1  0.0000000  0.6694400  3
   5745   5763   5750   5753     1  0.0000000  1.6038667  3
   5746   5748   5749   5751     1  0.0000000  0.6508444  3
   5746   5748   5755   5757     1  0.0000000  1.0460000  1
   5746   5748   5755   5757     1  0.0000000  0.6694400  3
   5746   5745   5756   5759     1  0.0000000  0.6508444  3
   5746   5745   5756   5760     1  0.0000000  0.6508444  3
   5747   5745   5746   5748     1  0.0000000  0.6508444  3
   5747   5745   5746   5766     1  0.0000000  1.0460000  1
   5747   5745   5746   5766     1  0.0000000  0.0000000  3
   5747   5745   5746   5765     1  0.0000000  0.6508444  3
   5747   5745   5756   5761     1  0.0000000  1.0460000  1
   5747   5745   5756   5761     1  0.0000000  0.0000000  3
   5747   5745   5756   5759     1  0.0000000  0.6508444  3
   5747   5745   5756   5760     1  0.0000000  0.6508444  3
   5747   5745   5763   5750     1  0.0000000  1.6038667  3
   5748   5749   5750   5753     1  0.0000000  0.6508444  3
   5748   5749   5768   5758     1  0.0000000  1.2552000  3
   5748   5746   5766   5767     1  0.0000000  1.0460000  1
   5748   5746   5766   5767     1  0.0000000  0.6694400  3
   5749   5750   5754   5764     1  0.0000000  1.0460000  1
   5749   5750   5754   5764     1  0.0000000  0.6694400  3
   5749   5748   5755   5757     1  0.0000000  1.0460000  1
   5749   5748   5755   5757     1  0.0000000  0.6694400  3
   5749   5748   5746   5765     1  0.0000000  0.6508444  3
   5750   5749   5768   5758     1  0.0000000  1.2552000  3
   5750   5749   5748   5752     1  0.0000000  0.6508444  3
   5751   5749   5750   5754     1  0.0000000  1.0460000  1
   5751   5749   5750   5754     1  0.0000000  0.0000000  3
   5751   5749   5750   5763     1  0.0000000  1.0460000  1
   5751   5749   5750   5763     1  0.0000000  0.0000000  3
   5751   5749   5750   5753     1  0.0000000  0.6508444  3
   5751   5749   5768   5758     1  0.0000000  1.2552000  3
   5751   5749   5748   5755     1  0.0000000  1.0460000  1
   5751   5749   5748   5755     1  0.0000000  0.0000000  3
   5751   5749   5748   5752     1  0.0000000  0.6508444  3
   5752   5748   5749   5768     1  0.0000000  0.6508444  3
   5752   5748   5755   5757     1  0.0000000  0.6973333  3
   5752   5748   5746   5766     1  0.0000000  1.0460000  1
   5752   5748   5746   5766     1  0.0000000  0.0000000  3
   5752   5748   5746   5765     1  0.0000000  0.6508444  3
   5753   5750   5754   5764     1  0.0000000  0.6973333  3
   5753   5750   5749   5768     1  0.0000000  0.6508444  3
   5755   5748   5746   5765     1  0.0000000  1.0460000  1
   5755   5748   5746   5765     1  0.0000000  0.0000000  3
   5756   5745   5746   5765     1  0.0000000  0.6508444  3
   5759   5756   5761   5762     1  0.0000000  0.6973333  3
   5759   5756   5745   5763     1  0.0000000  1.0460000  1
   5759   5756   5745   5763     1  0.0000000  0.0000000  3
   5760   5756   5761   5762     1  0.0000000  0.6973333  3
   5760   5756   5745   5763     1  0.0000000  1.0460000  1
   5760   5756   5745   5763     1  0.0000000  0.0000000  3
   5763   5750   5754   5764     1  0.0000000  0.6973333  3
   5763   5745   5746   5765     1  0.0000000  1.0460000  1
   5763   5745   5746   5765     1  0.0000000  0.0000000  3
   5765   5746   5766   5767     1  0.0000000  0.6973333  3
   5769   5771   5773   5775     1  0.0000000  0.6508444  3
   5769   5771   5773   5776     1  0.0000000  0.6508444  3
   5770   5769   5771   5773     1  0.0000000  0.0000000  2
   5770   5769   5771   5772     1  0.0000000  0.0000000  2
   5770   5769   5771   5774     1  0.0000000  0.0000000  2
   5772   5771   5773   5777     1  0.0000000  0.6508444  3
   5772   5771   5773   5775     1  0.0000000  0.6508444  3
   5772   5771   5773   5776     1  0.0000000  0.6508444  3
   5773   5777   5778   5787     1  0.0000000  1.2552000  3
   5773   5777   5778   5788     1  0.0000000  1.2552000  3
   5773   5777   5779   5780     1  0.0000000  1.2552000  3
   5773   5777   5779   5782     1  0.0000000  1.2552000  3
   5774   5771   5773   5777     1  0.0000000  0.6508444  3
   5774   5771   5773   5775     1  0.0000000  0.6508444  3
   5774   5771   5773   5776     1  0.0000000  0.6508444  3
   5775   5773   5777   5778     1  0.0000000  1.2552000  3
   5775   5773   5777   5779     1  0.0000000  1.2552000  3
   5776   5773   5777   5778     1  0.0000000  1.2552000  3
   5776   5773   5777   5779     1  0.0000000  1.2552000  3
   5777   5778   5789   5790     1  0.0000000  0.6508444  3
   5777   5778   5789   5791     1  0.0000000  0.6508444  3
   5777   5779   5781   5783     1  0.0000000  0.6508444  3
   5777   5779   5781   5784     1  0.0000000  0.6508444  3
   5778   5777   5779   5780     1  0.0000000  1.2552000  3
   5778   5777   5779   5782     1  0.0000000  1.2552000  3
   5779   5777   5778   5787     1  0.0000000  1.2552000  3
   5779   5777   5778   5788     1  0.0000000  1.2552000  3
   5780   5779   5781   5785     1  0.0000000  0.6508444  3
   5780   5779   5781   5783     1  0.0000000  0.6508444  3
   5780   5779   5781   5784     1  0.0000000  0.6508444  3
   5781   5785   5817   5807     1  180.0000771  6.0668000  2
   5781   5785   5817   5807     1  180.0000771  1.4644000  4
   5782   5779   5781   5785     1  0.0000000  0.6508444  3
   5782   5779   5781   5783     1  0.0000000  0.6508444  3
   5782   5779   5781   5784     1  0.0000000  0.6508444  3
   5783   5781   5785   5786     1  0.0000000  3.3472000  1
   5783   5781   5785   5786     1  0.0000000  0.0000000  2
   5783   5781   5785   5786     1  180.0000771  0.3347200  3
   5783   5781   5785   5817     1  180.0000771  0.0000000  2
   5784   5781   5785   5786     1  0.0000000  3.3472000  1
   5784   5781   5785   5786     1  0.0000000  0.0000000  2
   5784   5781   5785   5786     1  180.0000771  0.3347200  3
   5784   5781   5785   5817     1  180.0000771  0.0000000  2
   5785   5817   5798   5800     1  0.0000000  1.2552000  3
   5786   5785   5817   5807     1  180.0000771  6.0668000  2
   5786   5785   5817   5807     1  180.0000771  1.4644000  4
   5787   5778   5789   5792     1  0.0000000  0.6508444  3
   5787   5778   5789   5790     1  0.0000000  0.6508444  3
   5787   5778   5789   5791     1  0.0000000  0.6508444  3
   5788   5778   5789   5792     1  0.0000000  0.6508444  3
   5788   5778   5789   5790     1  0.0000000  0.6508444  3
   5788   5778   5789   5791     1  0.0000000  0.6508444  3
   5789   5792   5841   5831     1  180.0000771  6.0668000  2
   5789   5792   5841   5831     1  180.0000771  1.4644000  4
   5790   5789   5792   5793     1  0.0000000  3.3472000  1
   5790   5789   5792   5793     1  0.0000000  0.0000000  2
   5790   5789   5792   5793     1  180.0000771  0.3347200  3
   5790   5789   5792   5841     1  180.0000771  0.0000000  2
   5791   5789   5792   5793     1  0.0000000  3.3472000  1
   5791   5789   5792   5793     1  0.0000000  0.0000000  2
   5791   5789   5792   5793     1  180.0000771  0.3347200  3
   5791   5789   5792   5841     1  180.0000771  0.0000000  2
   5792   5841   5822   5824     1  0.0000000  1.2552000  3
   5793   5792   5841   5831     1  180.0000771  6.0668000  2
   5793   5792   5841   5831     1  180.0000771  1.4644000  4
   5794   5795   5797   5801     1  0.0000000  0.6508444  3
   5794   5795   5815   5816     1  0.0000000  1.0460000  1
   5794   5795   5815   5816     1  0.0000000  0.6694400  3
   5794   5805   5810   5811     1  0.0000000  1.0460000  1
   5794   5805   5810   5811     1  0.0000000  0.6694400  3
   5794   5812   5799   5802     1  0.0000000  1.6038667  3
   5795   5794   5805   5808     1  0.0000000  0.6508444  3
   5795   5794   5805   5809     1  0.0000000  0.6508444  3
   5795   5797   5798   5800     1  0.0000000  0.6508444  3
   5795   5797   5804   5806     1  0.0000000  1.0460000  1
   5795   5797   5804   5806     1  0.0000000  0.6694400  3
   5796   5794   5795   5797     1  0.0000000  0.6508444  3
   5796   5794   5795   5815     1  0.0000000  1.0460000  1
   5796   5794   5795   5815     1  0.0000000  0.0000000  3
   5796   5794   5795   5814     1  0.0000000  0.6508444  3
   5796   5794   5805   5810     1  0.0000000  1.0460000  1
   5796   5794   5805   5810     1  0.0000000  0.0000000  3
   5796   5794   5805   5808     1  0.0000000  0.6508444  3
   5796   5794   5805   5809     1  0.0000000  0.6508444  3
   5796   5794   5812   5799     1  0.0000000  1.6038667  3
   5797   5795   5815   5816     1  0.0000000  1.0460000  1
   5797   5795   5815   5816     1  0.0000000  0.6694400  3
   5797   5798   5799   5802     1  0.0000000  0.6508444  3
   5797   5798   5817   5807     1  0.0000000  1.2552000  3
   5798   5797   5795   5814     1  0.0000000  0.6508444  3
   5798   5797   5804   5806     1  0.0000000  1.0460000  1
   5798   5797   5804   5806     1  0.0000000  0.6694400  3
   5798   5799   5803   5813     1  0.0000000  1.0460000  1
   5798   5799   5803   5813     1  0.0000000  0.6694400  3
   5799   5798   5797   5801     1  0.0000000  0.6508444  3
   5799   5798   5817   5807     1  0.0000000  1.2552000  3
   5800   5798   5797   5804     1  0.0000000  1.0460000  1
   5800   5798   5797   5804     1  0.0000000  0.0000000  3
   5800   5798   5797   5801     1  0.0000000  0.6508444  3
   5800   5798   5799   5803     1  0.0000000  1.0460000  1
   5800   5798   5799   5803     1  0.0000000  0.0000000  3
   5800   5798   5799   5812     1  0.0000000  1.0460000  1
   5800   5798   5799   5812     1  0.0000000  0.0000000  3
   5800   5798   5799   5802     1  0.0000000  0.6508444  3
   5800   5798   5817   5807     1  0.0000000  1.2552000  3
   5801   5797   5795   5815     1  0.0000000  1.0460000  1
   5801   5797   5795   5815     1  0.0000000  0.0000000  3
   5801   5797   5795   5814     1  0.0000000  0.6508444  3
   5801   5797   5798   5817     1  0.0000000  0.6508444  3
   5801   5797   5804   5806     1  0.0000000  0.6973333  3
   5802   5799   5798   5817     1  0.0000000  0.6508444  3
   5802   5799   5803   5813     1  0.0000000  0.6973333  3
   5804   5797   5795   5814     1  0.0000000  1.0460000  1
   5804   5797   5795   5814     1  0.0000000  0.0000000  3
   5805   5794   5795   5814     1  0.0000000  0.6508444  3
   5808   5805   5794   5812     1  0.0000000  1.0460000  1
   5808   5805   5794   5812     1  0.0000000  0.0000000  3
   5808   5805   5810   5811     1  0.0000000  0.6973333  3
   5809   5805   5794   5812     1  0.0000000  1.0460000  1
   5809   5805   5794   5812     1  0.0000000  0.0000000  3
   5809   5805   5810   5811     1  0.0000000  0.6973333  3
   5812   5794   5795   5814     1  0.0000000  1.0460000  1
   5812   5794   5795   5814     1  0.0000000  0.0000000  3
   5812   5799   5803   5813     1  0.0000000  0.6973333  3
   5814   5795   5815   5816     1  0.0000000  0.6973333  3
   5818   5819   5821   5825     1  0.0000000  0.6508444  3
   5818   5819   5839   5840     1  0.0000000  1.0460000  1
   5818   5819   5839   5840     1  0.0000000  0.6694400  3
   5818   5829   5834   5835     1  0.0000000  1.0460000  1
   5818   5829   5834   5835     1  0.0000000  0.6694400  3
   5818   5836   5823   5826     1  0.0000000  1.6038667  3
   5819   5818   5829   5832     1  0.0000000  0.6508444  3
   5819   5818   5829   5833     1  0.0000000  0.6508444  3
   5819   5821   5822   5824     1  0.0000000  0.6508444  3
   5819   5821   5828   5830     1  0.0000000  1.0460000  1
   5819   5821   5828   5830     1  0.0000000  0.6694400  3
   5820   5818   5819   5821     1  0.0000000  0.6508444  3
   5820   5818   5819   5839     1  0.0000000  1.0460000  1
   5820   5818   5819   5839     1  0.0000000  0.0000000  3
   5820   5818   5819   5838     1  0.0000000  0.6508444  3
   5820   5818   5829   5834     1  0.0000000  1.0460000  1
   5820   5818   5829   5834     1  0.0000000  0.0000000  3
   5820   5818   5829   5832     1  0.0000000  0.6508444  3
   5820   5818   5829   5833     1  0.0000000  0.6508444  3
   5820   5818   5836   5823     1  0.0000000  1.6038667  3
   5821   5819   5839   5840     1  0.0000000  1.0460000  1
   5821   5819   5839   5840     1  0.0000000  0.6694400  3
   5821   5822   5823   5826     1  0.0000000  0.6508444  3
   5821   5822   5841   5831     1  0.0000000  1.2552000  3
   5822   5821   5819   5838     1  0.0000000  0.6508444  3
   5822   5821   5828   5830     1  0.0000000  1.0460000  1
   5822   5821   5828   5830     1  0.0000000  0.6694400  3
   5822   5823   5827   5837     1  0.0000000  1.0460000  1
   5822   5823   5827   5837     1  0.0000000  0.6694400  3
   5823   5822   5821   5825     1  0.0000000  0.6508444  3
   5823   5822   5841   5831     1  0.0000000  1.2552000  3
   5824   5822   5821   5828     1  0.0000000  1.0460000  1
   5824   5822   5821   5828     1  0.0000000  0.0000000  3
   5824   5822   5821   5825     1  0.0000000  0.6508444  3
   5824   5822   5823   5827     1  0.0000000  1.0460000  1
   5824   5822   5823   5827     1  0.0000000  0.0000000  3
   5824   5822   5823   5836     1  0.0000000  1.0460000  1
   5824   5822   5823   5836     1  0.0000000  0.0000000  3
   5824   5822   5823   5826     1  0.0000000  0.6508444  3
   5824   5822   5841   5831     1  0.0000000  1.2552000  3
   5825   5821   5819   5839     1  0.0000000  1.0460000  1
   5825   5821   5819   5839     1  0.0000000  0.0000000  3
   5825   5821   5819   5838     1  0.0000000  0.6508444  3
   5825   5821   5822   5841     1  0.0000000  0.6508444  3
   5825   5821   5828   5830     1  0.0000000  0.6973333  3
   5826   5823   5822   5841     1  0.0000000  0.6508444  3
   5826   5823   5827   5837     1  0.0000000  0.6973333  3
   5828   5821   5819   5838     1  0.0000000  1.0460000  1
   5828   5821   5819   5838     1  0.0000000  0.0000000  3
   5829   5818   5819   5838     1  0.0000000  0.6508444  3
   5832   5829   5818   5836     1  0.0000000  1.0460000  1
   5832   5829   5818   5836     1  0.0000000  0.0000000  3
   5832   5829   5834   5835     1  0.0000000  0.6973333  3
   5833   5829   5818   5836     1  0.0000000  1.0460000  1
   5833   5829   5818   5836     1  0.0000000  0.0000000  3
   5833   5829   5834   5835     1  0.0000000  0.6973333  3
   5836   5818   5819   5838     1  0.0000000  1.0460000  1
   5836   5818   5819   5838     1  0.0000000  0.0000000  3
   5836   5823   5827   5837     1  0.0000000  0.6973333  3
   5838   5819   5839   5840     1  0.0000000  0.6973333  3
   5842   5844   5846   5848     1  0.0000000  0.6508444  3
   5842   5844   5846   5849     1  0.0000000  0.6508444  3
   5843   5842   5844   5846     1  0.0000000  0.0000000  2
   5843   5842   5844   5845     1  0.0000000  0.0000000  2
   5843   5842   5844   5847     1  0.0000000  0.0000000  2
   5845   5844   5846   5850     1  0.0000000  0.6508444  3
   5845   5844   5846   5848     1  0.0000000  0.6508444  3
   5845   5844   5846   5849     1  0.0000000  0.6508444  3
   5846   5850   5851   5860     1  0.0000000  1.2552000  3
   5846   5850   5851   5861     1  0.0000000  1.2552000  3
   5846   5850   5852   5853     1  0.0000000  1.2552000  3
   5846   5850   5852   5855     1  0.0000000  1.2552000  3
   5847   5844   5846   5850     1  0.0000000  0.6508444  3
   5847   5844   5846   5848     1  0.0000000  0.6508444  3
   5847   5844   5846   5849     1  0.0000000  0.6508444  3
   5848   5846   5850   5851     1  0.0000000  1.2552000  3
   5848   5846   5850   5852     1  0.0000000  1.2552000  3
   5849   5846   5850   5851     1  0.0000000  1.2552000  3
   5849   5846   5850   5852     1  0.0000000  1.2552000  3
   5850   5851   5862   5863     1  0.0000000  0.6508444  3
   5850   5851   5862   5864     1  0.0000000  0.6508444  3
   5850   5852   5854   5856     1  0.0000000  0.6508444  3
   5850   5852   5854   5857     1  0.0000000  0.6508444  3
   5851   5850   5852   5853     1  0.0000000  1.2552000  3
   5851   5850   5852   5855     1  0.0000000  1.2552000  3
   5852   5850   5851   5860     1  0.0000000  1.2552000  3
   5852   5850   5851   5861     1  0.0000000  1.2552000  3
   5853   5852   5854   5858     1  0.0000000  0.6508444  3
   5853   5852   5854   5856     1  0.0000000  0.6508444  3
   5853   5852   5854   5857     1  0.0000000  0.6508444  3
   5854   5858   5890   5880     1  180.0000771  6.0668000  2
   5854   5858   5890   5880     1  180.0000771  1.4644000  4
   5855   5852   5854   5858     1  0.0000000  0.6508444  3
   5855   5852   5854   5856     1  0.0000000  0.6508444  3
   5855   5852   5854   5857     1  0.0000000  0.6508444  3
   5856   5854   5858   5859     1  0.0000000  3.3472000  1
   5856   5854   5858   5859     1  0.0000000  0.0000000  2
   5856   5854   5858   5859     1  180.0000771  0.3347200  3
   5856   5854   5858   5890     1  180.0000771  0.0000000  2
   5857   5854   5858   5859     1  0.0000000  3.3472000  1
   5857   5854   5858   5859     1  0.0000000  0.0000000  2
   5857   5854   5858   5859     1  180.0000771  0.3347200  3
   5857   5854   5858   5890     1  180.0000771  0.0000000  2
   5858   5890   5871   5873     1  0.0000000  1.2552000  3
   5859   5858   5890   5880     1  180.0000771  6.0668000  2
   5859   5858   5890   5880     1  180.0000771  1.4644000  4
   5860   5851   5862   5865     1  0.0000000  0.6508444  3
   5860   5851   5862   5863     1  0.0000000  0.6508444  3
   5860   5851   5862   5864     1  0.0000000  0.6508444  3
   5861   5851   5862   5865     1  0.0000000  0.6508444  3
   5861   5851   5862   5863     1  0.0000000  0.6508444  3
   5861   5851   5862   5864     1  0.0000000  0.6508444  3
   5862   5865   5914   5904     1  180.0000771  6.0668000  2
   5862   5865   5914   5904     1  180.0000771  1.4644000  4
   5863   5862   5865   5866     1  0.0000000  3.3472000  1
   5863   5862   5865   5866     1  0.0000000  0.0000000  2
   5863   5862   5865   5866     1  180.0000771  0.3347200  3
   5863   5862   5865   5914     1  180.0000771  0.0000000  2
   5864   5862   5865   5866     1  0.0000000  3.3472000  1
   5864   5862   5865   5866     1  0.0000000  0.0000000  2
   5864   5862   5865   5866     1  180.0000771  0.3347200  3
   5864   5862   5865   5914     1  180.0000771  0.0000000  2
   5865   5914   5895   5897     1  0.0000000  1.2552000  3
   5866   5865   5914   5904     1  180.0000771  6.0668000  2
   5866   5865   5914   5904     1  180.0000771  1.4644000  4
   5867   5868   5870   5874     1  0.0000000  0.6508444  3
   5867   5868   5888   5889     1  0.0000000  1.0460000  1
   5867   5868   5888   5889     1  0.0000000  0.6694400  3
   5867   5878   5883   5884     1  0.0000000  1.0460000  1
   5867   5878   5883   5884     1  0.0000000  0.6694400  3
   5867   5885   5872   5875     1  0.0000000  1.6038667  3
   5868   5870   5871   5873     1  0.0000000  0.6508444  3
   5868   5870   5877   5879     1  0.0000000  1.0460000  1
   5868   5870   5877   5879     1  0.0000000  0.6694400  3
   5868   5867   5878   5881     1  0.0000000  0.6508444  3
   5868   5867   5878   5882     1  0.0000000  0.6508444  3
   5869   5867   5868   5870     1  0.0000000  0.6508444  3
   5869   5867   5868   5888     1  0.0000000  1.0460000  1
   5869   5867   5868   5888     1  0.0000000  0.0000000  3
   5869   5867   5868   5887     1  0.0000000  0.6508444  3
   5869   5867   5878   5883     1  0.0000000  1.0460000  1
   5869   5867   5878   5883     1  0.0000000  0.0000000  3
   5869   5867   5878   5881     1  0.0000000  0.6508444  3
   5869   5867   5878   5882     1  0.0000000  0.6508444  3
   5869   5867   5885   5872     1  0.0000000  1.6038667  3
   5870   5871   5872   5875     1  0.0000000  0.6508444  3
   5870   5871   5890   5880     1  0.0000000  1.2552000  3
   5870   5868   5888   5889     1  0.0000000  1.0460000  1
   5870   5868   5888   5889     1  0.0000000  0.6694400  3
   5871   5872   5876   5886     1  0.0000000  1.0460000  1
   5871   5872   5876   5886     1  0.0000000  0.6694400  3
   5871   5870   5877   5879     1  0.0000000  1.0460000  1
   5871   5870   5877   5879     1  0.0000000  0.6694400  3
   5871   5870   5868   5887     1  0.0000000  0.6508444  3
   5872   5871   5890   5880     1  0.0000000  1.2552000  3
   5872   5871   5870   5874     1  0.0000000  0.6508444  3
   5873   5871   5872   5876     1  0.0000000  1.0460000  1
   5873   5871   5872   5876     1  0.0000000  0.0000000  3
   5873   5871   5872   5885     1  0.0000000  1.0460000  1
   5873   5871   5872   5885     1  0.0000000  0.0000000  3
   5873   5871   5872   5875     1  0.0000000  0.6508444  3
   5873   5871   5890   5880     1  0.0000000  1.2552000  3
   5873   5871   5870   5877     1  0.0000000  1.0460000  1
   5873   5871   5870   5877     1  0.0000000  0.0000000  3
   5873   5871   5870   5874     1  0.0000000  0.6508444  3
   5874   5870   5871   5890     1  0.0000000  0.6508444  3
   5874   5870   5877   5879     1  0.0000000  0.6973333  3
   5874   5870   5868   5888     1  0.0000000  1.0460000  1
   5874   5870   5868   5888     1  0.0000000  0.0000000  3
   5874   5870   5868   5887     1  0.0000000  0.6508444  3
   5875   5872   5876   5886     1  0.0000000  0.6973333  3
   5875   5872   5871   5890     1  0.0000000  0.6508444  3
   5877   5870   5868   5887     1  0.0000000  1.0460000  1
   5877   5870   5868   5887     1  0.0000000  0.0000000  3
   5878   5867   5868   5887     1  0.0000000  0.6508444  3
   5881   5878   5883   5884     1  0.0000000  0.6973333  3
   5881   5878   5867   5885     1  0.0000000  1.0460000  1
   5881   5878   5867   5885     1  0.0000000  0.0000000  3
   5882   5878   5883   5884     1  0.0000000  0.6973333  3
   5882   5878   5867   5885     1  0.0000000  1.0460000  1
   5882   5878   5867   5885     1  0.0000000  0.0000000  3
   5885   5872   5876   5886     1  0.0000000  0.6973333  3
   5885   5867   5868   5887     1  0.0000000  1.0460000  1
   5885   5867   5868   5887     1  0.0000000  0.0000000  3
   5887   5868   5888   5889     1  0.0000000  0.6973333  3
   5891   5892   5894   5898     1  0.0000000  0.6508444  3
   5891   5892   5912   5913     1  0.0000000  1.0460000  1
   5891   5892   5912   5913     1  0.0000000  0.6694400  3
   5891   5902   5907   5908     1  0.0000000  1.0460000  1
   5891   5902   5907   5908     1  0.0000000  0.6694400  3
   5891   5909   5896   5899     1  0.0000000  1.6038667  3
   5892   5894   5895   5897     1  0.0000000  0.6508444  3
   5892   5894   5901   5903     1  0.0000000  1.0460000  1
   5892   5894   5901   5903     1  0.0000000  0.6694400  3
   5892   5891   5902   5905     1  0.0000000  0.6508444  3
   5892   5891   5902   5906     1  0.0000000  0.6508444  3
   5893   5891   5892   5894     1  0.0000000  0.6508444  3
   5893   5891   5892   5912     1  0.0000000  1.0460000  1
   5893   5891   5892   5912     1  0.0000000  0.0000000  3
   5893   5891   5892   5911     1  0.0000000  0.6508444  3
   5893   5891   5902   5907     1  0.0000000  1.0460000  1
   5893   5891   5902   5907     1  0.0000000  0.0000000  3
   5893   5891   5902   5905     1  0.0000000  0.6508444  3
   5893   5891   5902   5906     1  0.0000000  0.6508444  3
   5893   5891   5909   5896     1  0.0000000  1.6038667  3
   5894   5895   5896   5899     1  0.0000000  0.6508444  3
   5894   5895   5914   5904     1  0.0000000  1.2552000  3
   5894   5892   5912   5913     1  0.0000000  1.0460000  1
   5894   5892   5912   5913     1  0.0000000  0.6694400  3
   5895   5896   5900   5910     1  0.0000000  1.0460000  1
   5895   5896   5900   5910     1  0.0000000  0.6694400  3
   5895   5894   5901   5903     1  0.0000000  1.0460000  1
   5895   5894   5901   5903     1  0.0000000  0.6694400  3
   5895   5894   5892   5911     1  0.0000000  0.6508444  3
   5896   5895   5914   5904     1  0.0000000  1.2552000  3
   5896   5895   5894   5898     1  0.0000000  0.6508444  3
   5897   5895   5896   5900     1  0.0000000  1.0460000  1
   5897   5895   5896   5900     1  0.0000000  0.0000000  3
   5897   5895   5896   5909     1  0.0000000  1.0460000  1
   5897   5895   5896   5909     1  0.0000000  0.0000000  3
   5897   5895   5896   5899     1  0.0000000  0.6508444  3
   5897   5895   5914   5904     1  0.0000000  1.2552000  3
   5897   5895   5894   5901     1  0.0000000  1.0460000  1
   5897   5895   5894   5901     1  0.0000000  0.0000000  3
   5897   5895   5894   5898     1  0.0000000  0.6508444  3
   5898   5894   5895   5914     1  0.0000000  0.6508444  3
   5898   5894   5901   5903     1  0.0000000  0.6973333  3
   5898   5894   5892   5912     1  0.0000000  1.0460000  1
   5898   5894   5892   5912     1  0.0000000  0.0000000  3
   5898   5894   5892   5911     1  0.0000000  0.6508444  3
   5899   5896   5900   5910     1  0.0000000  0.6973333  3
   5899   5896   5895   5914     1  0.0000000  0.6508444  3
   5901   5894   5892   5911     1  0.0000000  1.0460000  1
   5901   5894   5892   5911     1  0.0000000  0.0000000  3
   5902   5891   5892   5911     1  0.0000000  0.6508444  3
   5905   5902   5907   5908     1  0.0000000  0.6973333  3
   5905   5902   5891   5909     1  0.0000000  1.0460000  1
   5905   5902   5891   5909     1  0.0000000  0.0000000  3
   5906   5902   5907   5908     1  0.0000000  0.6973333  3
   5906   5902   5891   5909     1  0.0000000  1.0460000  1
   5906   5902   5891   5909     1  0.0000000  0.0000000  3
   5909   5896   5900   5910     1  0.0000000  0.6973333  3
   5909   5891   5892   5911     1  0.0000000  1.0460000  1
   5909   5891   5892   5911     1  0.0000000  0.0000000  3
   5911   5892   5912   5913     1  0.0000000  0.6973333  3
   5915   5917   5919   5921     1  0.0000000  0.6508444  3
   5915   5917   5919   5922     1  0.0000000  0.6508444  3
   5916   5915   5917   5919     1  0.0000000  0.0000000  2
   5916   5915   5917   5918     1  0.0000000  0.0000000  2
   5916   5915   5917   5920     1  0.0000000  0.0000000  2
   5918   5917   5919   5923     1  0.0000000  0.6508444  3
   5918   5917   5919   5921     1  0.0000000  0.6508444  3
   5918   5917   5919   5922     1  0.0000000  0.6508444  3
   5919   5923   5924   5933     1  0.0000000  1.2552000  3
   5919   5923   5924   5934     1  0.0000000  1.2552000  3
   5919   5923   5925   5926     1  0.0000000  1.2552000  3
   5919   5923   5925   5928     1  0.0000000  1.2552000  3
   5920   5917   5919   5923     1  0.0000000  0.6508444  3
   5920   5917   5919   5921     1  0.0000000  0.6508444  3
   5920   5917   5919   5922     1  0.0000000  0.6508444  3
   5921   5919   5923   5924     1  0.0000000  1.2552000  3
   5921   5919   5923   5925     1  0.0000000  1.2552000  3
   5922   5919   5923   5924     1  0.0000000  1.2552000  3
   5922   5919   5923   5925     1  0.0000000  1.2552000  3
   5923   5924   5935   5936     1  0.0000000  0.6508444  3
   5923   5924   5935   5937     1  0.0000000  0.6508444  3
   5923   5925   5927   5929     1  0.0000000  0.6508444  3
   5923   5925   5927   5930     1  0.0000000  0.6508444  3
   5924   5923   5925   5926     1  0.0000000  1.2552000  3
   5924   5923   5925   5928     1  0.0000000  1.2552000  3
   5925   5923   5924   5933     1  0.0000000  1.2552000  3
   5925   5923   5924   5934     1  0.0000000  1.2552000  3
   5926   5925   5927   5931     1  0.0000000  0.6508444  3
   5926   5925   5927   5929     1  0.0000000  0.6508444  3
   5926   5925   5927   5930     1  0.0000000  0.6508444  3
   5927   5931   5963   5953     1  180.0000771  6.0668000  2
   5927   5931   5963   5953     1  180.0000771  1.4644000  4
   5928   5925   5927   5931     1  0.0000000  0.6508444  3
   5928   5925   5927   5929     1  0.0000000  0.6508444  3
   5928   5925   5927   5930     1  0.0000000  0.6508444  3
   5929   5927   5931   5932     1  0.0000000  3.3472000  1
   5929   5927   5931   5932     1  0.0000000  0.0000000  2
   5929   5927   5931   5932     1  180.0000771  0.3347200  3
   5929   5927   5931   5963     1  180.0000771  0.0000000  2
   5930   5927   5931   5932     1  0.0000000  3.3472000  1
   5930   5927   5931   5932     1  0.0000000  0.0000000  2
   5930   5927   5931   5932     1  180.0000771  0.3347200  3
   5930   5927   5931   5963     1  180.0000771  0.0000000  2
   5931   5963   5944   5946     1  0.0000000  1.2552000  3
   5932   5931   5963   5953     1  180.0000771  6.0668000  2
   5932   5931   5963   5953     1  180.0000771  1.4644000  4
   5933   5924   5935   5938     1  0.0000000  0.6508444  3
   5933   5924   5935   5936     1  0.0000000  0.6508444  3
   5933   5924   5935   5937     1  0.0000000  0.6508444  3
   5934   5924   5935   5938     1  0.0000000  0.6508444  3
   5934   5924   5935   5936     1  0.0000000  0.6508444  3
   5934   5924   5935   5937     1  0.0000000  0.6508444  3
   5935   5938   5987   5977     1  180.0000771  6.0668000  2
   5935   5938   5987   5977     1  180.0000771  1.4644000  4
   5936   5935   5938   5939     1  0.0000000  3.3472000  1
   5936   5935   5938   5939     1  0.0000000  0.0000000  2
   5936   5935   5938   5939     1  180.0000771  0.3347200  3
   5936   5935   5938   5987     1  180.0000771  0.0000000  2
   5937   5935   5938   5939     1  0.0000000  3.3472000  1
   5937   5935   5938   5939     1  0.0000000  0.0000000  2
   5937   5935   5938   5939     1  180.0000771  0.3347200  3
   5937   5935   5938   5987     1  180.0000771  0.0000000  2
   5938   5987   5968   5970     1  0.0000000  1.2552000  3
   5939   5938   5987   5977     1  180.0000771  6.0668000  2
   5939   5938   5987   5977     1  180.0000771  1.4644000  4
   5940   5941   5943   5947     1  0.0000000  0.6508444  3
   5940   5941   5961   5962     1  0.0000000  1.0460000  1
   5940   5941   5961   5962     1  0.0000000  0.6694400  3
   5940   5951   5956   5957     1  0.0000000  1.0460000  1
   5940   5951   5956   5957     1  0.0000000  0.6694400  3
   5940   5958   5945   5948     1  0.0000000  1.6038667  3
   5941   5940   5951   5954     1  0.0000000  0.6508444  3
   5941   5940   5951   5955     1  0.0000000  0.6508444  3
   5941   5943   5944   5946     1  0.0000000  0.6508444  3
   5941   5943   5950   5952     1  0.0000000  1.0460000  1
   5941   5943   5950   5952     1  0.0000000  0.6694400  3
   5942   5940   5941   5943     1  0.0000000  0.6508444  3
   5942   5940   5941   5961     1  0.0000000  1.0460000  1
   5942   5940   5941   5961     1  0.0000000  0.0000000  3
   5942   5940   5941   5960     1  0.0000000  0.6508444  3
   5942   5940   5951   5956     1  0.0000000  1.0460000  1
   5942   5940   5951   5956     1  0.0000000  0.0000000  3
   5942   5940   5951   5954     1  0.0000000  0.6508444  3
   5942   5940   5951   5955     1  0.0000000  0.6508444  3
   5942   5940   5958   5945     1  0.0000000  1.6038667  3
   5943   5941   5961   5962     1  0.0000000  1.0460000  1
   5943   5941   5961   5962     1  0.0000000  0.6694400  3
   5943   5944   5945   5948     1  0.0000000  0.6508444  3
   5943   5944   5963   5953     1  0.0000000  1.2552000  3
   5944   5943   5941   5960     1  0.0000000  0.6508444  3
   5944   5943   5950   5952     1  0.0000000  1.0460000  1
   5944   5943   5950   5952     1  0.0000000  0.6694400  3
   5944   5945   5949   5959     1  0.0000000  1.0460000  1
   5944   5945   5949   5959     1  0.0000000  0.6694400  3
   5945   5944   5943   5947     1  0.0000000  0.6508444  3
   5945   5944   5963   5953     1  0.0000000  1.2552000  3
   5946   5944   5943   5950     1  0.0000000  1.0460000  1
   5946   5944   5943   5950     1  0.0000000  0.0000000  3
   5946   5944   5943   5947     1  0.0000000  0.6508444  3
   5946   5944   5945   5949     1  0.0000000  1.0460000  1
   5946   5944   5945   5949     1  0.0000000  0.0000000  3
   5946   5944   5945   5958     1  0.0000000  1.0460000  1
   5946   5944   5945   5958     1  0.0000000  0.0000000  3
   5946   5944   5945   5948     1  0.0000000  0.6508444  3
   5946   5944   5963   5953     1  0.0000000  1.2552000  3
   5947   5943   5941   5961     1  0.0000000  1.0460000  1
   5947   5943   5941   5961     1  0.0000000  0.0000000  3
   5947   5943   5941   5960     1  0.0000000  0.6508444  3
   5947   5943   5944   5963     1  0.0000000  0.6508444  3
   5947   5943   5950   5952     1  0.0000000  0.6973333  3
   5948   5945   5944   5963     1  0.0000000  0.6508444  3
   5948   5945   5949   5959     1  0.0000000  0.6973333  3
   5950   5943   5941   5960     1  0.0000000  1.0460000  1
   5950   5943   5941   5960     1  0.0000000  0.0000000  3
   5951   5940   5941   5960     1  0.0000000  0.6508444  3
   5954   5951   5940   5958     1  0.0000000  1.0460000  1
   5954   5951   5940   5958     1  0.0000000  0.0000000  3
   5954   5951   5956   5957     1  0.0000000  0.6973333  3
   5955   5951   5940   5958     1  0.0000000  1.0460000  1
   5955   5951   5940   5958     1  0.0000000  0.0000000  3
   5955   5951   5956   5957     1  0.0000000  0.6973333  3
   5958   5940   5941   5960     1  0.0000000  1.0460000  1
   5958   5940   5941   5960     1  0.0000000  0.0000000  3
   5958   5945   5949   5959     1  0.0000000  0.6973333  3
   5960   5941   5961   5962     1  0.0000000  0.6973333  3
   5964   5965   5967   5971     1  0.0000000  0.6508444  3
   5964   5965   5985   5986     1  0.0000000  1.0460000  1
   5964   5965   5985   5986     1  0.0000000  0.6694400  3
   5964   5975   5980   5981     1  0.0000000  1.0460000  1
   5964   5975   5980   5981     1  0.0000000  0.6694400  3
   5964   5982   5969   5972     1  0.0000000  1.6038667  3
   5965   5964   5975   5978     1  0.0000000  0.6508444  3
   5965   5964   5975   5979     1  0.0000000  0.6508444  3
   5965   5967   5968   5970     1  0.0000000  0.6508444  3
   5965   5967   5974   5976     1  0.0000000  1.0460000  1
   5965   5967   5974   5976     1  0.0000000  0.6694400  3
   5966   5964   5965   5967     1  0.0000000  0.6508444  3
   5966   5964   5965   5985     1  0.0000000  1.0460000  1
   5966   5964   5965   5985     1  0.0000000  0.0000000  3
   5966   5964   5965   5984     1  0.0000000  0.6508444  3
   5966   5964   5975   5980     1  0.0000000  1.0460000  1
   5966   5964   5975   5980     1  0.0000000  0.0000000  3
   5966   5964   5975   5978     1  0.0000000  0.6508444  3
   5966   5964   5975   5979     1  0.0000000  0.6508444  3
   5966   5964   5982   5969     1  0.0000000  1.6038667  3
   5967   5965   5985   5986     1  0.0000000  1.0460000  1
   5967   5965   5985   5986     1  0.0000000  0.6694400  3
   5967   5968   5969   5972     1  0.0000000  0.6508444  3
   5967   5968   5987   5977     1  0.0000000  1.2552000  3
   5968   5967   5965   5984     1  0.0000000  0.6508444  3
   5968   5967   5974   5976     1  0.0000000  1.0460000  1
   5968   5967   5974   5976     1  0.0000000  0.6694400  3
   5968   5969   5973   5983     1  0.0000000  1.0460000  1
   5968   5969   5973   5983     1  0.0000000  0.6694400  3
   5969   5968   5967   5971     1  0.0000000  0.6508444  3
   5969   5968   5987   5977     1  0.0000000  1.2552000  3
   5970   5968   5967   5974     1  0.0000000  1.0460000  1
   5970   5968   5967   5974     1  0.0000000  0.0000000  3
   5970   5968   5967   5971     1  0.0000000  0.6508444  3
   5970   5968   5969   5973     1  0.0000000  1.0460000  1
   5970   5968   5969   5973     1  0.0000000  0.0000000  3
   5970   5968   5969   5982     1  0.0000000  1.0460000  1
   5970   5968   5969   5982     1  0.0000000  0.0000000  3
   5970   5968   5969   5972     1  0.0000000  0.6508444  3
   5970   5968   5987   5977     1  0.0000000  1.2552000  3
   5971   5967   5965   5985     1  0.0000000  1.0460000  1
   5971   5967   5965   5985     1  0.0000000  0.0000000  3
   5971   5967   5965   5984     1  0.0000000  0.6508444  3
   5971   5967   5968   5987     1  0.0000000  0.6508444  3
   5971   5967   5974   5976     1  0.0000000  0.6973333  3
   5972   5969   5968   5987     1  0.0000000  0.6508444  3
   5972   5969   5973   5983     1  0.0000000  0.6973333  3
   5974   5967   5965   5984     1  0.0000000  1.0460000  1
   5974   5967   5965   5984     1  0.0000000  0.0000000  3
   5975   5964   5965   5984     1  0.0000000  0.6508444  3
   5978   5975   5964   5982     1  0.0000000  1.0460000  1
   5978   5975   5964   5982     1  0.0000000  0.0000000  3
   5978   5975   5980   5981     1  0.0000000  0.6973333  3
   5979   5975   5964   5982     1  0.0000000  1.0460000  1
   5979   5975   5964   5982     1  0.0000000  0.0000000  3
   5979   5975   5980   5981     1  0.0000000  0.6973333  3
   5982   5964   5965   5984     1  0.0000000  1.0460000  1
   5982   5964   5965   5984     1  0.0000000  0.0000000  3
   5982   5969   5973   5983     1  0.0000000  0.6973333  3
   5984   5965   5985   5986     1  0.0000000  0.6973333  3
   5988   5990   5992   5994     1  0.0000000  0.6508444  3
   5988   5990   5992   5995     1  0.0000000  0.6508444  3
   5989   5988   5990   5992     1  0.0000000  0.0000000  2
   5989   5988   5990   5991     1  0.0000000  0.0000000  2
   5989   5988   5990   5993     1  0.0000000  0.0000000  2
   5991   5990   5992   5996     1  0.0000000  0.6508444  3
   5991   5990   5992   5994     1  0.0000000  0.6508444  3
   5991   5990   5992   5995     1  0.0000000  0.6508444  3
   5992   5996   5997   6006     1  0.0000000  1.2552000  3
   5992   5996   5997   6007     1  0.0000000  1.2552000  3
   5992   5996   5998   5999     1  0.0000000  1.2552000  3
   5992   5996   5998   6001     1  0.0000000  1.2552000  3
   5993   5990   5992   5996     1  0.0000000  0.6508444  3
   5993   5990   5992   5994     1  0.0000000  0.6508444  3
   5993   5990   5992   5995     1  0.0000000  0.6508444  3
   5994   5992   5996   5997     1  0.0000000  1.2552000  3
   5994   5992   5996   5998     1  0.0000000  1.2552000  3
   5995   5992   5996   5997     1  0.0000000  1.2552000  3
   5995   5992   5996   5998     1  0.0000000  1.2552000  3
   5996   5997   6008   6009     1  0.0000000  0.6508444  3
   5996   5997   6008   6010     1  0.0000000  0.6508444  3
   5996   5998   6000   6002     1  0.0000000  0.6508444  3
   5996   5998   6000   6003     1  0.0000000  0.6508444  3
   5997   5996   5998   5999     1  0.0000000  1.2552000  3
   5997   5996   5998   6001     1  0.0000000  1.2552000  3
   5998   5996   5997   6006     1  0.0000000  1.2552000  3
   5998   5996   5997   6007     1  0.0000000  1.2552000  3
   5999   5998   6000   6004     1  0.0000000  0.6508444  3
   5999   5998   6000   6002     1  0.0000000  0.6508444  3
   5999   5998   6000   6003     1  0.0000000  0.6508444  3
   6000   6004   6036   6026     1  180.0000771  6.0668000  2
   6000   6004   6036   6026     1  180.0000771  1.4644000  4
   6001   5998   6000   6004     1  0.0000000  0.6508444  3
   6001   5998   6000   6002     1  0.0000000  0.6508444  3
   6001   5998   6000   6003     1  0.0000000  0.6508444  3
   6002   6000   6004   6005     1  0.0000000  3.3472000  1
   6002   6000   6004   6005     1  0.0000000  0.0000000  2
   6002   6000   6004   6005     1  180.0000771  0.3347200  3
   6002   6000   6004   6036     1  180.0000771  0.0000000  2
   6003   6000   6004   6005     1  0.0000000  3.3472000  1
   6003   6000   6004   6005     1  0.0000000  0.0000000  2
   6003   6000   6004   6005     1  180.0000771  0.3347200  3
   6003   6000   6004   6036     1  180.0000771  0.0000000  2
   6004   6036   6017   6019     1  0.0000000  1.2552000  3
   6005   6004   6036   6026     1  180.0000771  6.0668000  2
   6005   6004   6036   6026     1  180.0000771  1.4644000  4
   6006   5997   6008   6011     1  0.0000000  0.6508444  3
   6006   5997   6008   6009     1  0.0000000  0.6508444  3
   6006   5997   6008   6010     1  0.0000000  0.6508444  3
   6007   5997   6008   6011     1  0.0000000  0.6508444  3
   6007   5997   6008   6009     1  0.0000000  0.6508444  3
   6007   5997   6008   6010     1  0.0000000  0.6508444  3
   6008   6011   6060   6050     1  180.0000771  6.0668000  2
   6008   6011   6060   6050     1  180.0000771  1.4644000  4
   6009   6008   6011   6012     1  0.0000000  3.3472000  1
   6009   6008   6011   6012     1  0.0000000  0.0000000  2
   6009   6008   6011   6012     1  180.0000771  0.3347200  3
   6009   6008   6011   6060     1  180.0000771  0.0000000  2
   6010   6008   6011   6012     1  0.0000000  3.3472000  1
   6010   6008   6011   6012     1  0.0000000  0.0000000  2
   6010   6008   6011   6012     1  180.0000771  0.3347200  3
   6010   6008   6011   6060     1  180.0000771  0.0000000  2
   6011   6060   6041   6043     1  0.0000000  1.2552000  3
   6012   6011   6060   6050     1  180.0000771  6.0668000  2
   6012   6011   6060   6050     1  180.0000771  1.4644000  4
   6013   6014   6016   6020     1  0.0000000  0.6508444  3
   6013   6014   6034   6035     1  0.0000000  1.0460000  1
   6013   6014   6034   6035     1  0.0000000  0.6694400  3
   6013   6024   6029   6030     1  0.0000000  1.0460000  1
   6013   6024   6029   6030     1  0.0000000  0.6694400  3
   6013   6031   6018   6021     1  0.0000000  1.6038667  3
   6014   6016   6017   6019     1  0.0000000  0.6508444  3
   6014   6016   6023   6025     1  0.0000000  1.0460000  1
   6014   6016   6023   6025     1  0.0000000  0.6694400  3
   6014   6013   6024   6027     1  0.0000000  0.6508444  3
   6014   6013   6024   6028     1  0.0000000  0.6508444  3
   6015   6013   6014   6016     1  0.0000000  0.6508444  3
   6015   6013   6014   6034     1  0.0000000  1.0460000  1
   6015   6013   6014   6034     1  0.0000000  0.0000000  3
   6015   6013   6014   6033     1  0.0000000  0.6508444  3
   6015   6013   6024   6029     1  0.0000000  1.0460000  1
   6015   6013   6024   6029     1  0.0000000  0.0000000  3
   6015   6013   6024   6027     1  0.0000000  0.6508444  3
   6015   6013   6024   6028     1  0.0000000  0.6508444  3
   6015   6013   6031   6018     1  0.0000000  1.6038667  3
   6016   6017   6018   6021     1  0.0000000  0.6508444  3
   6016   6017   6036   6026     1  0.0000000  1.2552000  3
   6016   6014   6034   6035     1  0.0000000  1.0460000  1
   6016   6014   6034   6035     1  0.0000000  0.6694400  3
   6017   6018   6022   6032     1  0.0000000  1.0460000  1
   6017   6018   6022   6032     1  0.0000000  0.6694400  3
   6017   6016   6023   6025     1  0.0000000  1.0460000  1
   6017   6016   6023   6025     1  0.0000000  0.6694400  3
   6017   6016   6014   6033     1  0.0000000  0.6508444  3
   6018   6017   6036   6026     1  0.0000000  1.2552000  3
   6018   6017   6016   6020     1  0.0000000  0.6508444  3
   6019   6017   6018   6022     1  0.0000000  1.0460000  1
   6019   6017   6018   6022     1  0.0000000  0.0000000  3
   6019   6017   6018   6031     1  0.0000000  1.0460000  1
   6019   6017   6018   6031     1  0.0000000  0.0000000  3
   6019   6017   6018   6021     1  0.0000000  0.6508444  3
   6019   6017   6036   6026     1  0.0000000  1.2552000  3
   6019   6017   6016   6023     1  0.0000000  1.0460000  1
   6019   6017   6016   6023     1  0.0000000  0.0000000  3
   6019   6017   6016   6020     1  0.0000000  0.6508444  3
   6020   6016   6017   6036     1  0.0000000  0.6508444  3
   6020   6016   6023   6025     1  0.0000000  0.6973333  3
   6020   6016   6014   6034     1  0.0000000  1.0460000  1
   6020   6016   6014   6034     1  0.0000000  0.0000000  3
   6020   6016   6014   6033     1  0.0000000  0.6508444  3
   6021   6018   6022   6032     1  0.0000000  0.6973333  3
   6021   6018   6017   6036     1  0.0000000  0.6508444  3
   6023   6016   6014   6033     1  0.0000000  1.0460000  1
   6023   6016   6014   6033     1  0.0000000  0.0000000  3
   6024   6013   6014   6033     1  0.0000000  0.6508444  3
   6027   6024   6029   6030     1  0.0000000  0.6973333  3
   6027   6024   6013   6031     1  0.0000000  1.0460000  1
   6027   6024   6013   6031     1  0.0000000  0.0000000  3
   6028   6024   6029   6030     1  0.0000000  0.6973333  3
   6028   6024   6013   6031     1  0.0000000  1.0460000  1
   6028   6024   6013   6031     1  0.0000000  0.0000000  3
   6031   6018   6022   6032     1  0.0000000  0.6973333  3
   6031   6013   6014   6033     1  0.0000000  1.0460000  1
   6031   6013   6014   6033     1  0.0000000  0.0000000  3
   6033   6014   6034   6035     1  0.0000000  0.6973333  3
   6037   6038   6040   6044     1  0.0000000  0.6508444  3
   6037   6038   6058   6059     1  0.0000000  1.0460000  1
   6037   6038   6058   6059     1  0.0000000  0.6694400  3
   6037   6048   6053   6054     1  0.0000000  1.0460000  1
   6037   6048   6053   6054     1  0.0000000  0.6694400  3
   6037   6055   6042   6045     1  0.0000000  1.6038667  3
   6038   6040   6041   6043     1  0.0000000  0.6508444  3
   6038   6040   6047   6049     1  0.0000000  1.0460000  1
   6038   6040   6047   6049     1  0.0000000  0.6694400  3
   6038   6037   6048   6051     1  0.0000000  0.6508444  3
   6038   6037   6048   6052     1  0.0000000  0.6508444  3
   6039   6037   6038   6040     1  0.0000000  0.6508444  3
   6039   6037   6038   6058     1  0.0000000  1.0460000  1
   6039   6037   6038   6058     1  0.0000000  0.0000000  3
   6039   6037   6038   6057     1  0.0000000  0.6508444  3
   6039   6037   6048   6053     1  0.0000000  1.0460000  1
   6039   6037   6048   6053     1  0.0000000  0.0000000  3
   6039   6037   6048   6051     1  0.0000000  0.6508444  3
   6039   6037   6048   6052     1  0.0000000  0.6508444  3
   6039   6037   6055   6042     1  0.0000000  1.6038667  3
   6040   6041   6042   6045     1  0.0000000  0.6508444  3
   6040   6041   6060   6050     1  0.0000000  1.2552000  3
   6040   6038   6058   6059     1  0.0000000  1.0460000  1
   6040   6038   6058   6059     1  0.0000000  0.6694400  3
   6041   6042   6046   6056     1  0.0000000  1.0460000  1
   6041   6042   6046   6056     1  0.0000000  0.6694400  3
   6041   6040   6047   6049     1  0.0000000  1.0460000  1
   6041   6040   6047   6049     1  0.0000000  0.6694400  3
   6041   6040   6038   6057     1  0.0000000  0.6508444  3
   6042   6041   6060   6050     1  0.0000000  1.2552000  3
   6042   6041   6040   6044     1  0.0000000  0.6508444  3
   6043   6041   6042   6046     1  0.0000000  1.0460000  1
   6043   6041   6042   6046     1  0.0000000  0.0000000  3
   6043   6041   6042   6055     1  0.0000000  1.0460000  1
   6043   6041   6042   6055     1  0.0000000  0.0000000  3
   6043   6041   6042   6045     1  0.0000000  0.6508444  3
   6043   6041   6060   6050     1  0.0000000  1.2552000  3
   6043   6041   6040   6047     1  0.0000000  1.0460000  1
   6043   6041   6040   6047     1  0.0000000  0.0000000  3
   6043   6041   6040   6044     1  0.0000000  0.6508444  3
   6044   6040   6041   6060     1  0.0000000  0.6508444  3
   6044   6040   6047   6049     1  0.0000000  0.6973333  3
   6044   6040   6038   6058     1  0.0000000  1.0460000  1
   6044   6040   6038   6058     1  0.0000000  0.0000000  3
   6044   6040   6038   6057     1  0.0000000  0.6508444  3
   6045   6042   6046   6056     1  0.0000000  0.6973333  3
   6045   6042   6041   6060     1  0.0000000  0.6508444  3
   6047   6040   6038   6057     1  0.0000000  1.0460000  1
   6047   6040   6038   6057     1  0.0000000  0.0000000  3
   6048   6037   6038   6057     1  0.0000000  0.6508444  3
   6051   6048   6053   6054     1  0.0000000  0.6973333  3
   6051   6048   6037   6055     1  0.0000000  1.0460000  1
   6051   6048   6037   6055     1  0.0000000  0.0000000  3
   6052   6048   6053   6054     1  0.0000000  0.6973333  3
   6052   6048   6037   6055     1  0.0000000  1.0460000  1
   6052   6048   6037   6055     1  0.0000000  0.0000000  3
   6055   6042   6046   6056     1  0.0000000  0.6973333  3
   6055   6037   6038   6057     1  0.0000000  1.0460000  1
   6055   6037   6038   6057     1  0.0000000  0.0000000  3
   6057   6038   6058   6059     1  0.0000000  0.6973333  3
   6061   6063   6065   6067     1  0.0000000  0.6508444  3
   6061   6063   6065   6068     1  0.0000000  0.6508444  3
   6062   6061   6063   6065     1  0.0000000  0.0000000  2
   6062   6061   6063   6064     1  0.0000000  0.0000000  2
   6062   6061   6063   6066     1  0.0000000  0.0000000  2
   6064   6063   6065   6069     1  0.0000000  0.6508444  3
   6064   6063   6065   6067     1  0.0000000  0.6508444  3
   6064   6063   6065   6068     1  0.0000000  0.6508444  3
   6065   6069   6070   6079     1  0.0000000  1.2552000  3
   6065   6069   6070   6080     1  0.0000000  1.2552000  3
   6065   6069   6071   6072     1  0.0000000  1.2552000  3
   6065   6069   6071   6074     1  0.0000000  1.2552000  3
   6066   6063   6065   6069     1  0.0000000  0.6508444  3
   6066   6063   6065   6067     1  0.0000000  0.6508444  3
   6066   6063   6065   6068     1  0.0000000  0.6508444  3
   6067   6065   6069   6070     1  0.0000000  1.2552000  3
   6067   6065   6069   6071     1  0.0000000  1.2552000  3
   6068   6065   6069   6070     1  0.0000000  1.2552000  3
   6068   6065   6069   6071     1  0.0000000  1.2552000  3
   6069   6070   6081   6082     1  0.0000000  0.6508444  3
   6069   6070   6081   6083     1  0.0000000  0.6508444  3
   6069   6071   6073   6075     1  0.0000000  0.6508444  3
   6069   6071   6073   6076     1  0.0000000  0.6508444  3
   6070   6069   6071   6072     1  0.0000000  1.2552000  3
   6070   6069   6071   6074     1  0.0000000  1.2552000  3
   6071   6069   6070   6079     1  0.0000000  1.2552000  3
   6071   6069   6070   6080     1  0.0000000  1.2552000  3
   6072   6071   6073   6077     1  0.0000000  0.6508444  3
   6072   6071   6073   6075     1  0.0000000  0.6508444  3
   6072   6071   6073   6076     1  0.0000000  0.6508444  3
   6073   6077   6109   6099     1  180.0000771  6.0668000  2
   6073   6077   6109   6099     1  180.0000771  1.4644000  4
   6074   6071   6073   6077     1  0.0000000  0.6508444  3
   6074   6071   6073   6075     1  0.0000000  0.6508444  3
   6074   6071   6073   6076     1  0.0000000  0.6508444  3
   6075   6073   6077   6078     1  0.0000000  3.3472000  1
   6075   6073   6077   6078     1  0.0000000  0.0000000  2
   6075   6073   6077   6078     1  180.0000771  0.3347200  3
   6075   6073   6077   6109     1  180.0000771  0.0000000  2
   6076   6073   6077   6078     1  0.0000000  3.3472000  1
   6076   6073   6077   6078     1  0.0000000  0.0000000  2
   6076   6073   6077   6078     1  180.0000771  0.3347200  3
   6076   6073   6077   6109     1  180.0000771  0.0000000  2
   6077   6109   6090   6092     1  0.0000000  1.2552000  3
   6078   6077   6109   6099     1  180.0000771  6.0668000  2
   6078   6077   6109   6099     1  180.0000771  1.4644000  4
   6079   6070   6081   6084     1  0.0000000  0.6508444  3
   6079   6070   6081   6082     1  0.0000000  0.6508444  3
   6079   6070   6081   6083     1  0.0000000  0.6508444  3
   6080   6070   6081   6084     1  0.0000000  0.6508444  3
   6080   6070   6081   6082     1  0.0000000  0.6508444  3
   6080   6070   6081   6083     1  0.0000000  0.6508444  3
   6081   6084   6133   6123     1  180.0000771  6.0668000  2
   6081   6084   6133   6123     1  180.0000771  1.4644000  4
   6082   6081   6084   6085     1  0.0000000  3.3472000  1
   6082   6081   6084   6085     1  0.0000000  0.0000000  2
   6082   6081   6084   6085     1  180.0000771  0.3347200  3
   6082   6081   6084   6133     1  180.0000771  0.0000000  2
   6083   6081   6084   6085     1  0.0000000  3.3472000  1
   6083   6081   6084   6085     1  0.0000000  0.0000000  2
   6083   6081   6084   6085     1  180.0000771  0.3347200  3
   6083   6081   6084   6133     1  180.0000771  0.0000000  2
   6084   6133   6114   6116     1  0.0000000  1.2552000  3
   6085   6084   6133   6123     1  180.0000771  6.0668000  2
   6085   6084   6133   6123     1  180.0000771  1.4644000  4
   6086   6087   6089   6093     1  0.0000000  0.6508444  3
   6086   6087   6107   6108     1  0.0000000  1.0460000  1
   6086   6087   6107   6108     1  0.0000000  0.6694400  3
   6086   6097   6102   6103     1  0.0000000  1.0460000  1
   6086   6097   6102   6103     1  0.0000000  0.6694400  3
   6086   6104   6091   6094     1  0.0000000  1.6038667  3
   6087   6086   6097   6100     1  0.0000000  0.6508444  3
   6087   6086   6097   6101     1  0.0000000  0.6508444  3
   6087   6089   6090   6092     1  0.0000000  0.6508444  3
   6087   6089   6096   6098     1  0.0000000  1.0460000  1
   6087   6089   6096   6098     1  0.0000000  0.6694400  3
   6088   6086   6087   6089     1  0.0000000  0.6508444  3
   6088   6086   6087   6107     1  0.0000000  1.0460000  1
   6088   6086   6087   6107     1  0.0000000  0.0000000  3
   6088   6086   6087   6106     1  0.0000000  0.6508444  3
   6088   6086   6097   6102     1  0.0000000  1.0460000  1
   6088   6086   6097   6102     1  0.0000000  0.0000000  3
   6088   6086   6097   6100     1  0.0000000  0.6508444  3
   6088   6086   6097   6101     1  0.0000000  0.6508444  3
   6088   6086   6104   6091     1  0.0000000  1.6038667  3
   6089   6087   6107   6108     1  0.0000000  1.0460000  1
   6089   6087   6107   6108     1  0.0000000  0.6694400  3
   6089   6090   6091   6094     1  0.0000000  0.6508444  3
   6089   6090   6109   6099     1  0.0000000  1.2552000  3
   6090   6089   6087   6106     1  0.0000000  0.6508444  3
   6090   6089   6096   6098     1  0.0000000  1.0460000  1
   6090   6089   6096   6098     1  0.0000000  0.6694400  3
   6090   6091   6095   6105     1  0.0000000  1.0460000  1
   6090   6091   6095   6105     1  0.0000000  0.6694400  3
   6091   6090   6089   6093     1  0.0000000  0.6508444  3
   6091   6090   6109   6099     1  0.0000000  1.2552000  3
   6092   6090   6089   6096     1  0.0000000  1.0460000  1
   6092   6090   6089   6096     1  0.0000000  0.0000000  3
   6092   6090   6089   6093     1  0.0000000  0.6508444  3
   6092   6090   6091   6095     1  0.0000000  1.0460000  1
   6092   6090   6091   6095     1  0.0000000  0.0000000  3
   6092   6090   6091   6104     1  0.0000000  1.0460000  1
   6092   6090   6091   6104     1  0.0000000  0.0000000  3
   6092   6090   6091   6094     1  0.0000000  0.6508444  3
   6092   6090   6109   6099     1  0.0000000  1.2552000  3
   6093   6089   6087   6107     1  0.0000000  1.0460000  1
   6093   6089   6087   6107     1  0.0000000  0.0000000  3
   6093   6089   6087   6106     1  0.0000000  0.6508444  3
   6093   6089   6090   6109     1  0.0000000  0.6508444  3
   6093   6089   6096   6098     1  0.0000000  0.6973333  3
   6094   6091   6090   6109     1  0.0000000  0.6508444  3
   6094   6091   6095   6105     1  0.0000000  0.6973333  3
   6096   6089   6087   6106     1  0.0000000  1.0460000  1
   6096   6089   6087   6106     1  0.0000000  0.0000000  3
   6097   6086   6087   6106     1  0.0000000  0.6508444  3
   6100   6097   6086   6104     1  0.0000000  1.0460000  1
   6100   6097   6086   6104     1  0.0000000  0.0000000  3
   6100   6097   6102   6103     1  0.0000000  0.6973333  3
   6101   6097   6086   6104     1  0.0000000  1.0460000  1
   6101   6097   6086   6104     1  0.0000000  0.0000000  3
   6101   6097   6102   6103     1  0.0000000  0.6973333  3
   6104   6086   6087   6106     1  0.0000000  1.0460000  1
   6104   6086   6087   6106     1  0.0000000  0.0000000  3
   6104   6091   6095   6105     1  0.0000000  0.6973333  3
   6106   6087   6107   6108     1  0.0000000  0.6973333  3
   6110   6111   6113   6117     1  0.0000000  0.6508444  3
   6110   6111   6131   6132     1  0.0000000  1.0460000  1
   6110   6111   6131   6132     1  0.0000000  0.6694400  3
   6110   6121   6126   6127     1  0.0000000  1.0460000  1
   6110   6121   6126   6127     1  0.0000000  0.6694400  3
   6110   6128   6115   6118     1  0.0000000  1.6038667  3
   6111   6110   6121   6124     1  0.0000000  0.6508444  3
   6111   6110   6121   6125     1  0.0000000  0.6508444  3
   6111   6113   6114   6116     1  0.0000000  0.6508444  3
   6111   6113   6120   6122     1  0.0000000  1.0460000  1
   6111   6113   6120   6122     1  0.0000000  0.6694400  3
   6112   6110   6111   6113     1  0.0000000  0.6508444  3
   6112   6110   6111   6131     1  0.0000000  1.0460000  1
   6112   6110   6111   6131     1  0.0000000  0.0000000  3
   6112   6110   6111   6130     1  0.0000000  0.6508444  3
   6112   6110   6121   6126     1  0.0000000  1.0460000  1
   6112   6110   6121   6126     1  0.0000000  0.0000000  3
   6112   6110   6121   6124     1  0.0000000  0.6508444  3
   6112   6110   6121   6125     1  0.0000000  0.6508444  3
   6112   6110   6128   6115     1  0.0000000  1.6038667  3
   6113   6111   6131   6132     1  0.0000000  1.0460000  1
   6113   6111   6131   6132     1  0.0000000  0.6694400  3
   6113   6114   6115   6118     1  0.0000000  0.6508444  3
   6113   6114   6133   6123     1  0.0000000  1.2552000  3
   6114   6113   6111   6130     1  0.0000000  0.6508444  3
   6114   6113   6120   6122     1  0.0000000  1.0460000  1
   6114   6113   6120   6122     1  0.0000000  0.6694400  3
   6114   6115   6119   6129     1  0.0000000  1.0460000  1
   6114   6115   6119   6129     1  0.0000000  0.6694400  3
   6115   6114   6113   6117     1  0.0000000  0.6508444  3
   6115   6114   6133   6123     1  0.0000000  1.2552000  3
   6116   6114   6113   6120     1  0.0000000  1.0460000  1
   6116   6114   6113   6120     1  0.0000000  0.0000000  3
   6116   6114   6113   6117     1  0.0000000  0.6508444  3
   6116   6114   6115   6119     1  0.0000000  1.0460000  1
   6116   6114   6115   6119     1  0.0000000  0.0000000  3
   6116   6114   6115   6128     1  0.0000000  1.0460000  1
   6116   6114   6115   6128     1  0.0000000  0.0000000  3
   6116   6114   6115   6118     1  0.0000000  0.6508444  3
   6116   6114   6133   6123     1  0.0000000  1.2552000  3
   6117   6113   6111   6131     1  0.0000000  1.0460000  1
   6117   6113   6111   6131     1  0.0000000  0.0000000  3
   6117   6113   6111   6130     1  0.0000000  0.6508444  3
   6117   6113   6114   6133     1  0.0000000  0.6508444  3
   6117   6113   6120   6122     1  0.0000000  0.6973333  3
   6118   6115   6114   6133     1  0.0000000  0.6508444  3
   6118   6115   6119   6129     1  0.0000000  0.6973333  3
   6120   6113   6111   6130     1  0.0000000  1.0460000  1
   6120   6113   6111   6130     1  0.0000000  0.0000000  3
   6121   6110   6111   6130     1  0.0000000  0.6508444  3
   6124   6121   6110   6128     1  0.0000000  1.0460000  1
   6124   6121   6110   6128     1  0.0000000  0.0000000  3
   6124   6121   6126   6127     1  0.0000000  0.6973333  3
   6125   6121   6110   6128     1  0.0000000  1.0460000  1
   6125   6121   6110   6128     1  0.0000000  0.0000000  3
   6125   6121   6126   6127     1  0.0000000  0.6973333  3
   6128   6110   6111   6130     1  0.0000000  1.0460000  1
   6128   6110   6111   6130     1  0.0000000  0.0000000  3
   6128   6115   6119   6129     1  0.0000000  0.6973333  3
   6130   6111   6131   6132     1  0.0000000  0.6973333  3
   6134   6136   6138   6140     1  0.0000000  0.6508444  3
   6134   6136   6138   6141     1  0.0000000  0.6508444  3
   6135   6134   6136   6138     1  0.0000000  0.0000000  2
   6135   6134   6136   6137     1  0.0000000  0.0000000  2
   6135   6134   6136   6139     1  0.0000000  0.0000000  2
   6137   6136   6138   6142     1  0.0000000  0.6508444  3
   6137   6136   6138   6140     1  0.0000000  0.6508444  3
   6137   6136   6138   6141     1  0.0000000  0.6508444  3
   6138   6142   6143   6152     1  0.0000000  1.2552000  3
   6138   6142   6143   6153     1  0.0000000  1.2552000  3
   6138   6142   6144   6145     1  0.0000000  1.2552000  3
   6138   6142   6144   6147     1  0.0000000  1.2552000  3
   6139   6136   6138   6142     1  0.0000000  0.6508444  3
   6139   6136   6138   6140     1  0.0000000  0.6508444  3
   6139   6136   6138   6141     1  0.0000000  0.6508444  3
   6140   6138   6142   6143     1  0.0000000  1.2552000  3
   6140   6138   6142   6144     1  0.0000000  1.2552000  3
   6141   6138   6142   6143     1  0.0000000  1.2552000  3
   6141   6138   6142   6144     1  0.0000000  1.2552000  3
   6142   6143   6154   6155     1  0.0000000  0.6508444  3
   6142   6143   6154   6156     1  0.0000000  0.6508444  3
   6142   6144   6146   6148     1  0.0000000  0.6508444  3
   6142   6144   6146   6149     1  0.0000000  0.6508444  3
   6143   6142   6144   6145     1  0.0000000  1.2552000  3
   6143   6142   6144   6147     1  0.0000000  1.2552000  3
   6144   6142   6143   6152     1  0.0000000  1.2552000  3
   6144   6142   6143   6153     1  0.0000000  1.2552000  3
   6145   6144   6146   6150     1  0.0000000  0.6508444  3
   6145   6144   6146   6148     1  0.0000000  0.6508444  3
   6145   6144   6146   6149     1  0.0000000  0.6508444  3
   6146   6150   6182   6172     1  180.0000771  6.0668000  2
   6146   6150   6182   6172     1  180.0000771  1.4644000  4
   6147   6144   6146   6150     1  0.0000000  0.6508444  3
   6147   6144   6146   6148     1  0.0000000  0.6508444  3
   6147   6144   6146   6149     1  0.0000000  0.6508444  3
   6148   6146   6150   6151     1  0.0000000  3.3472000  1
   6148   6146   6150   6151     1  0.0000000  0.0000000  2
   6148   6146   6150   6151     1  180.0000771  0.3347200  3
   6148   6146   6150   6182     1  180.0000771  0.0000000  2
   6149   6146   6150   6151     1  0.0000000  3.3472000  1
   6149   6146   6150   6151     1  0.0000000  0.0000000  2
   6149   6146   6150   6151     1  180.0000771  0.3347200  3
   6149   6146   6150   6182     1  180.0000771  0.0000000  2
   6150   6182   6163   6165     1  0.0000000  1.2552000  3
   6151   6150   6182   6172     1  180.0000771  6.0668000  2
   6151   6150   6182   6172     1  180.0000771  1.4644000  4
   6152   6143   6154   6157     1  0.0000000  0.6508444  3
   6152   6143   6154   6155     1  0.0000000  0.6508444  3
   6152   6143   6154   6156     1  0.0000000  0.6508444  3
   6153   6143   6154   6157     1  0.0000000  0.6508444  3
   6153   6143   6154   6155     1  0.0000000  0.6508444  3
   6153   6143   6154   6156     1  0.0000000  0.6508444  3
   6154   6157   6206   6196     1  180.0000771  6.0668000  2
   6154   6157   6206   6196     1  180.0000771  1.4644000  4
   6155   6154   6157   6158     1  0.0000000  3.3472000  1
   6155   6154   6157   6158     1  0.0000000  0.0000000  2
   6155   6154   6157   6158     1  180.0000771  0.3347200  3
   6155   6154   6157   6206     1  180.0000771  0.0000000  2
   6156   6154   6157   6158     1  0.0000000  3.3472000  1
   6156   6154   6157   6158     1  0.0000000  0.0000000  2
   6156   6154   6157   6158     1  180.0000771  0.3347200  3
   6156   6154   6157   6206     1  180.0000771  0.0000000  2
   6157   6206   6187   6189     1  0.0000000  1.2552000  3
   6158   6157   6206   6196     1  180.0000771  6.0668000  2
   6158   6157   6206   6196     1  180.0000771  1.4644000  4
   6159   6160   6162   6166     1  0.0000000  0.6508444  3
   6159   6160   6180   6181     1  0.0000000  1.0460000  1
   6159   6160   6180   6181     1  0.0000000  0.6694400  3
   6159   6170   6175   6176     1  0.0000000  1.0460000  1
   6159   6170   6175   6176     1  0.0000000  0.6694400  3
   6159   6177   6164   6167     1  0.0000000  1.6038667  3
   6160   6162   6163   6165     1  0.0000000  0.6508444  3
   6160   6162   6169   6171     1  0.0000000  1.0460000  1
   6160   6162   6169   6171     1  0.0000000  0.6694400  3
   6160   6159   6170   6173     1  0.0000000  0.6508444  3
   6160   6159   6170   6174     1  0.0000000  0.6508444  3
   6161   6159   6160   6162     1  0.0000000  0.6508444  3
   6161   6159   6160   6180     1  0.0000000  1.0460000  1
   6161   6159   6160   6180     1  0.0000000  0.0000000  3
   6161   6159   6160   6179     1  0.0000000  0.6508444  3
   6161   6159   6170   6175     1  0.0000000  1.0460000  1
   6161   6159   6170   6175     1  0.0000000  0.0000000  3
   6161   6159   6170   6173     1  0.0000000  0.6508444  3
   6161   6159   6170   6174     1  0.0000000  0.6508444  3
   6161   6159   6177   6164     1  0.0000000  1.6038667  3
   6162   6163   6164   6167     1  0.0000000  0.6508444  3
   6162   6163   6182   6172     1  0.0000000  1.2552000  3
   6162   6160   6180   6181     1  0.0000000  1.0460000  1
   6162   6160   6180   6181     1  0.0000000  0.6694400  3
   6163   6164   6168   6178     1  0.0000000  1.0460000  1
   6163   6164   6168   6178     1  0.0000000  0.6694400  3
   6163   6162   6169   6171     1  0.0000000  1.0460000  1
   6163   6162   6169   6171     1  0.0000000  0.6694400  3
   6163   6162   6160   6179     1  0.0000000  0.6508444  3
   6164   6163   6182   6172     1  0.0000000  1.2552000  3
   6164   6163   6162   6166     1  0.0000000  0.6508444  3
   6165   6163   6164   6168     1  0.0000000  1.0460000  1
   6165   6163   6164   6168     1  0.0000000  0.0000000  3
   6165   6163   6164   6177     1  0.0000000  1.0460000  1
   6165   6163   6164   6177     1  0.0000000  0.0000000  3
   6165   6163   6164   6167     1  0.0000000  0.6508444  3
   6165   6163   6182   6172     1  0.0000000  1.2552000  3
   6165   6163   6162   6169     1  0.0000000  1.0460000  1
   6165   6163   6162   6169     1  0.0000000  0.0000000  3
   6165   6163   6162   6166     1  0.0000000  0.6508444  3
   6166   6162   6163   6182     1  0.0000000  0.6508444  3
   6166   6162   6169   6171     1  0.0000000  0.6973333  3
   6166   6162   6160   6180     1  0.0000000  1.0460000  1
   6166   6162   6160   6180     1  0.0000000  0.0000000  3
   6166   6162   6160   6179     1  0.0000000  0.6508444  3
   6167   6164   6168   6178     1  0.0000000  0.6973333  3
   6167   6164   6163   6182     1  0.0000000  0.6508444  3
   6169   6162   6160   6179     1  0.0000000  1.0460000  1
   6169   6162   6160   6179     1  0.0000000  0.0000000  3
   6170   6159   6160   6179     1  0.0000000  0.6508444  3
   6173   6170   6175   6176     1  0.0000000  0.6973333  3
   6173   6170   6159   6177     1  0.0000000  1.0460000  1
   6173   6170   6159   6177     1  0.0000000  0.0000000  3
   6174   6170   6175   6176     1  0.0000000  0.6973333  3
   6174   6170   6159   6177     1  0.0000000  1.0460000  1
   6174   6170   6159   6177     1  0.0000000  0.0000000  3
   6177   6164   6168   6178     1  0.0000000  0.6973333  3
   6177   6159   6160   6179     1  0.0000000  1.0460000  1
   6177   6159   6160   6179     1  0.0000000  0.0000000  3
   6179   6160   6180   6181     1  0.0000000  0.6973333  3
   6183   6184   6186   6190     1  0.0000000  0.6508444  3
   6183   6184   6204   6205     1  0.0000000  1.0460000  1
   6183   6184   6204   6205     1  0.0000000  0.6694400  3
   6183   6194   6199   6200     1  0.0000000  1.0460000  1
   6183   6194   6199   6200     1  0.0000000  0.6694400  3
   6183   6201   6188   6191     1  0.0000000  1.6038667  3
   6184   6186   6187   6189     1  0.0000000  0.6508444  3
   6184   6186   6193   6195     1  0.0000000  1.0460000  1
   6184   6186   6193   6195     1  0.0000000  0.6694400  3
   6184   6183   6194   6197     1  0.0000000  0.6508444  3
   6184   6183   6194   6198     1  0.0000000  0.6508444  3
   6185   6183   6184   6186     1  0.0000000  0.6508444  3
   6185   6183   6184   6204     1  0.0000000  1.0460000  1
   6185   6183   6184   6204     1  0.0000000  0.0000000  3
   6185   6183   6184   6203     1  0.0000000  0.6508444  3
   6185   6183   6194   6199     1  0.0000000  1.0460000  1
   6185   6183   6194   6199     1  0.0000000  0.0000000  3
   6185   6183   6194   6197     1  0.0000000  0.6508444  3
   6185   6183   6194   6198     1  0.0000000  0.6508444  3
   6185   6183   6201   6188     1  0.0000000  1.6038667  3
   6186   6187   6188   6191     1  0.0000000  0.6508444  3
   6186   6187   6206   6196     1  0.0000000  1.2552000  3
   6186   6184   6204   6205     1  0.0000000  1.0460000  1
   6186   6184   6204   6205     1  0.0000000  0.6694400  3
   6187   6188   6192   6202     1  0.0000000  1.0460000  1
   6187   6188   6192   6202     1  0.0000000  0.6694400  3
   6187   6186   6193   6195     1  0.0000000  1.0460000  1
   6187   6186   6193   6195     1  0.0000000  0.6694400  3
   6187   6186   6184   6203     1  0.0000000  0.6508444  3
   6188   6187   6206   6196     1  0.0000000  1.2552000  3
   6188   6187   6186   6190     1  0.0000000  0.6508444  3
   6189   6187   6188   6192     1  0.0000000  1.0460000  1
   6189   6187   6188   6192     1  0.0000000  0.0000000  3
   6189   6187   6188   6201     1  0.0000000  1.0460000  1
   6189   6187   6188   6201     1  0.0000000  0.0000000  3
   6189   6187   6188   6191     1  0.0000000  0.6508444  3
   6189   6187   6206   6196     1  0.0000000  1.2552000  3
   6189   6187   6186   6193     1  0.0000000  1.0460000  1
   6189   6187   6186   6193     1  0.0000000  0.0000000  3
   6189   6187   6186   6190     1  0.0000000  0.6508444  3
   6190   6186   6187   6206     1  0.0000000  0.6508444  3
   6190   6186   6193   6195     1  0.0000000  0.6973333  3
   6190   6186   6184   6204     1  0.0000000  1.0460000  1
   6190   6186   6184   6204     1  0.0000000  0.0000000  3
   6190   6186   6184   6203     1  0.0000000  0.6508444  3
   6191   6188   6192   6202     1  0.0000000  0.6973333  3
   6191   6188   6187   6206     1  0.0000000  0.6508444  3
   6193   6186   6184   6203     1  0.0000000  1.0460000  1
   6193   6186   6184   6203     1  0.0000000  0.0000000  3
   6194   6183   6184   6203     1  0.0000000  0.6508444  3
   6197   6194   6199   6200     1  0.0000000  0.6973333  3
   6197   6194   6183   6201     1  0.0000000  1.0460000  1
   6197   6194   6183   6201     1  0.0000000  0.0000000  3
   6198   6194   6199   6200     1  0.0000000  0.6973333  3
   6198   6194   6183   6201     1  0.0000000  1.0460000  1
   6198   6194   6183   6201     1  0.0000000  0.0000000  3
   6201   6188   6192   6202     1  0.0000000  0.6973333  3
   6201   6183   6184   6203     1  0.0000000  1.0460000  1
   6201   6183   6184   6203     1  0.0000000  0.0000000  3
   6203   6184   6204   6205     1  0.0000000  0.6973333  3
   6207   6209   6211   6213     1  0.0000000  0.6508444  3
   6207   6209   6211   6214     1  0.0000000  0.6508444  3
   6208   6207   6209   6211     1  0.0000000  0.0000000  2
   6208   6207   6209   6210     1  0.0000000  0.0000000  2
   6208   6207   6209   6212     1  0.0000000  0.0000000  2
   6210   6209   6211   6215     1  0.0000000  0.6508444  3
   6210   6209   6211   6213     1  0.0000000  0.6508444  3
   6210   6209   6211   6214     1  0.0000000  0.6508444  3
   6211   6215   6216   6225     1  0.0000000  1.2552000  3
   6211   6215   6216   6226     1  0.0000000  1.2552000  3
   6211   6215   6217   6218     1  0.0000000  1.2552000  3
   6211   6215   6217   6220     1  0.0000000  1.2552000  3
   6212   6209   6211   6215     1  0.0000000  0.6508444  3
   6212   6209   6211   6213     1  0.0000000  0.6508444  3
   6212   6209   6211   6214     1  0.0000000  0.6508444  3
   6213   6211   6215   6216     1  0.0000000  1.2552000  3
   6213   6211   6215   6217     1  0.0000000  1.2552000  3
   6214   6211   6215   6216     1  0.0000000  1.2552000  3
   6214   6211   6215   6217     1  0.0000000  1.2552000  3
   6215   6216   6227   6228     1  0.0000000  0.6508444  3
   6215   6216   6227   6229     1  0.0000000  0.6508444  3
   6215   6217   6219   6221     1  0.0000000  0.6508444  3
   6215   6217   6219   6222     1  0.0000000  0.6508444  3
   6216   6215   6217   6218     1  0.0000000  1.2552000  3
   6216   6215   6217   6220     1  0.0000000  1.2552000  3
   6217   6215   6216   6225     1  0.0000000  1.2552000  3
   6217   6215   6216   6226     1  0.0000000  1.2552000  3
   6218   6217   6219   6223     1  0.0000000  0.6508444  3
   6218   6217   6219   6221     1  0.0000000  0.6508444  3
   6218   6217   6219   6222     1  0.0000000  0.6508444  3
   6219   6223   6255   6245     1  180.0000771  6.0668000  2
   6219   6223   6255   6245     1  180.0000771  1.4644000  4
   6220   6217   6219   6223     1  0.0000000  0.6508444  3
   6220   6217   6219   6221     1  0.0000000  0.6508444  3
   6220   6217   6219   6222     1  0.0000000  0.6508444  3
   6221   6219   6223   6224     1  0.0000000  3.3472000  1
   6221   6219   6223   6224     1  0.0000000  0.0000000  2
   6221   6219   6223   6224     1  180.0000771  0.3347200  3
   6221   6219   6223   6255     1  180.0000771  0.0000000  2
   6222   6219   6223   6224     1  0.0000000  3.3472000  1
   6222   6219   6223   6224     1  0.0000000  0.0000000  2
   6222   6219   6223   6224     1  180.0000771  0.3347200  3
   6222   6219   6223   6255     1  180.0000771  0.0000000  2
   6223   6255   6236   6238     1  0.0000000  1.2552000  3
   6224   6223   6255   6245     1  180.0000771  6.0668000  2
   6224   6223   6255   6245     1  180.0000771  1.4644000  4
   6225   6216   6227   6230     1  0.0000000  0.6508444  3
   6225   6216   6227   6228     1  0.0000000  0.6508444  3
   6225   6216   6227   6229     1  0.0000000  0.6508444  3
   6226   6216   6227   6230     1  0.0000000  0.6508444  3
   6226   6216   6227   6228     1  0.0000000  0.6508444  3
   6226   6216   6227   6229     1  0.0000000  0.6508444  3
   6227   6230   6279   6269     1  180.0000771  6.0668000  2
   6227   6230   6279   6269     1  180.0000771  1.4644000  4
   6228   6227   6230   6231     1  0.0000000  3.3472000  1
   6228   6227   6230   6231     1  0.0000000  0.0000000  2
   6228   6227   6230   6231     1  180.0000771  0.3347200  3
   6228   6227   6230   6279     1  180.0000771  0.0000000  2
   6229   6227   6230   6231     1  0.0000000  3.3472000  1
   6229   6227   6230   6231     1  0.0000000  0.0000000  2
   6229   6227   6230   6231     1  180.0000771  0.3347200  3
   6229   6227   6230   6279     1  180.0000771  0.0000000  2
   6230   6279   6260   6262     1  0.0000000  1.2552000  3
   6231   6230   6279   6269     1  180.0000771  6.0668000  2
   6231   6230   6279   6269     1  180.0000771  1.4644000  4
   6232   6233   6235   6239     1  0.0000000  0.6508444  3
   6232   6233   6253   6254     1  0.0000000  1.0460000  1
   6232   6233   6253   6254     1  0.0000000  0.6694400  3
   6232   6243   6248   6249     1  0.0000000  1.0460000  1
   6232   6243   6248   6249     1  0.0000000  0.6694400  3
   6232   6250   6237   6240     1  0.0000000  1.6038667  3
   6233   6232   6243   6246     1  0.0000000  0.6508444  3
   6233   6232   6243   6247     1  0.0000000  0.6508444  3
   6233   6235   6236   6238     1  0.0000000  0.6508444  3
   6233   6235   6242   6244     1  0.0000000  1.0460000  1
   6233   6235   6242   6244     1  0.0000000  0.6694400  3
   6234   6232   6233   6235     1  0.0000000  0.6508444  3
   6234   6232   6233   6253     1  0.0000000  1.0460000  1
   6234   6232   6233   6253     1  0.0000000  0.0000000  3
   6234   6232   6233   6252     1  0.0000000  0.6508444  3
   6234   6232   6243   6248     1  0.0000000  1.0460000  1
   6234   6232   6243   6248     1  0.0000000  0.0000000  3
   6234   6232   6243   6246     1  0.0000000  0.6508444  3
   6234   6232   6243   6247     1  0.0000000  0.6508444  3
   6234   6232   6250   6237     1  0.0000000  1.6038667  3
   6235   6233   6253   6254     1  0.0000000  1.0460000  1
   6235   6233   6253   6254     1  0.0000000  0.6694400  3
   6235   6236   6237   6240     1  0.0000000  0.6508444  3
   6235   6236   6255   6245     1  0.0000000  1.2552000  3
   6236   6235   6233   6252     1  0.0000000  0.6508444  3
   6236   6235   6242   6244     1  0.0000000  1.0460000  1
   6236   6235   6242   6244     1  0.0000000  0.6694400  3
   6236   6237   6241   6251     1  0.0000000  1.0460000  1
   6236   6237   6241   6251     1  0.0000000  0.6694400  3
   6237   6236   6235   6239     1  0.0000000  0.6508444  3
   6237   6236   6255   6245     1  0.0000000  1.2552000  3
   6238   6236   6235   6242     1  0.0000000  1.0460000  1
   6238   6236   6235   6242     1  0.0000000  0.0000000  3
   6238   6236   6235   6239     1  0.0000000  0.6508444  3
   6238   6236   6237   6241     1  0.0000000  1.0460000  1
   6238   6236   6237   6241     1  0.0000000  0.0000000  3
   6238   6236   6237   6250     1  0.0000000  1.0460000  1
   6238   6236   6237   6250     1  0.0000000  0.0000000  3
   6238   6236   6237   6240     1  0.0000000  0.6508444  3
   6238   6236   6255   6245     1  0.0000000  1.2552000  3
   6239   6235   6233   6253     1  0.0000000  1.0460000  1
   6239   6235   6233   6253     1  0.0000000  0.0000000  3
   6239   6235   6233   6252     1  0.0000000  0.6508444  3
   6239   6235   6236   6255     1  0.0000000  0.6508444  3
   6239   6235   6242   6244     1  0.0000000  0.6973333  3
   6240   6237   6236   6255     1  0.0000000  0.6508444  3
   6240   6237   6241   6251     1  0.0000000  0.6973333  3
   6242   6235   6233   6252     1  0.0000000  1.0460000  1
   6242   6235   6233   6252     1  0.0000000  0.0000000  3
   6243   6232   6233   6252     1  0.0000000  0.6508444  3
   6246   6243   6232   6250     1  0.0000000  1.0460000  1
   6246   6243   6232   6250     1  0.0000000  0.0000000  3
   6246   6243   6248   6249     1  0.0000000  0.6973333  3
   6247   6243   6232   6250     1  0.0000000  1.0460000  1
   6247   6243   6232   6250     1  0.0000000  0.0000000  3
   6247   6243   6248   6249     1  0.0000000  0.6973333  3
   6250   6232   6233   6252     1  0.0000000  1.0460000  1
   6250   6232   6233   6252     1  0.0000000  0.0000000  3
   6250   6237   6241   6251     1  0.0000000  0.6973333  3
   6252   6233   6253   6254     1  0.0000000  0.6973333  3
   6256   6257   6259   6263     1  0.0000000  0.6508444  3
   6256   6257   6277   6278     1  0.0000000  1.0460000  1
   6256   6257   6277   6278     1  0.0000000  0.6694400  3
   6256   6267   6272   6273     1  0.0000000  1.0460000  1
   6256   6267   6272   6273     1  0.0000000  0.6694400  3
   6256   6274   6261   6264     1  0.0000000  1.6038667  3
   6257   6256   6267   6270     1  0.0000000  0.6508444  3
   6257   6256   6267   6271     1  0.0000000  0.6508444  3
   6257   6259   6260   6262     1  0.0000000  0.6508444  3
   6257   6259   6266   6268     1  0.0000000  1.0460000  1
   6257   6259   6266   6268     1  0.0000000  0.6694400  3
   6258   6256   6257   6259     1  0.0000000  0.6508444  3
   6258   6256   6257   6277     1  0.0000000  1.0460000  1
   6258   6256   6257   6277     1  0.0000000  0.0000000  3
   6258   6256   6257   6276     1  0.0000000  0.6508444  3
   6258   6256   6267   6272     1  0.0000000  1.0460000  1
   6258   6256   6267   6272     1  0.0000000  0.0000000  3
   6258   6256   6267   6270     1  0.0000000  0.6508444  3
   6258   6256   6267   6271     1  0.0000000  0.6508444  3
   6258   6256   6274   6261     1  0.0000000  1.6038667  3
   6259   6257   6277   6278     1  0.0000000  1.0460000  1
   6259   6257   6277   6278     1  0.0000000  0.6694400  3
   6259   6260   6261   6264     1  0.0000000  0.6508444  3
   6259   6260   6279   6269     1  0.0000000  1.2552000  3
   6260   6259   6257   6276     1  0.0000000  0.6508444  3
   6260   6259   6266   6268     1  0.0000000  1.0460000  1
   6260   6259   6266   6268     1  0.0000000  0.6694400  3
   6260   6261   6265   6275     1  0.0000000  1.0460000  1
   6260   6261   6265   6275     1  0.0000000  0.6694400  3
   6261   6260   6259   6263     1  0.0000000  0.6508444  3
   6261   6260   6279   6269     1  0.0000000  1.2552000  3
   6262   6260   6259   6266     1  0.0000000  1.0460000  1
   6262   6260   6259   6266     1  0.0000000  0.0000000  3
   6262   6260   6259   6263     1  0.0000000  0.6508444  3
   6262   6260   6261   6265     1  0.0000000  1.0460000  1
   6262   6260   6261   6265     1  0.0000000  0.0000000  3
   6262   6260   6261   6274     1  0.0000000  1.0460000  1
   6262   6260   6261   6274     1  0.0000000  0.0000000  3
   6262   6260   6261   6264     1  0.0000000  0.6508444  3
   6262   6260   6279   6269     1  0.0000000  1.2552000  3
   6263   6259   6257   6277     1  0.0000000  1.0460000  1
   6263   6259   6257   6277     1  0.0000000  0.0000000  3
   6263   6259   6257   6276     1  0.0000000  0.6508444  3
   6263   6259   6260   6279     1  0.0000000  0.6508444  3
   6263   6259   6266   6268     1  0.0000000  0.6973333  3
   6264   6261   6260   6279     1  0.0000000  0.6508444  3
   6264   6261   6265   6275     1  0.0000000  0.6973333  3
   6266   6259   6257   6276     1  0.0000000  1.0460000  1
   6266   6259   6257   6276     1  0.0000000  0.0000000  3
   6267   6256   6257   6276     1  0.0000000  0.6508444  3
   6270   6267   6256   6274     1  0.0000000  1.0460000  1
   6270   6267   6256   6274     1  0.0000000  0.0000000  3
   6270   6267   6272   6273     1  0.0000000  0.6973333  3
   6271   6267   6256   6274     1  0.0000000  1.0460000  1
   6271   6267   6256   6274     1  0.0000000  0.0000000  3
   6271   6267   6272   6273     1  0.0000000  0.6973333  3
   6274   6256   6257   6276     1  0.0000000  1.0460000  1
   6274   6256   6257   6276     1  0.0000000  0.0000000  3
   6274   6261   6265   6275     1  0.0000000  0.6973333  3
   6276   6257   6277   6278     1  0.0000000  0.6973333  3
   6280   6282   6284   6286     1  0.0000000  0.6508444  3
   6280   6282   6284   6287     1  0.0000000  0.6508444  3
   6281   6280   6282   6284     1  0.0000000  0.0000000  2
   6281   6280   6282   6283     1  0.0000000  0.0000000  2
   6281   6280   6282   6285     1  0.0000000  0.0000000  2
   6283   6282   6284   6288     1  0.0000000  0.6508444  3
   6283   6282   6284   6286     1  0.0000000  0.6508444  3
   6283   6282   6284   6287     1  0.0000000  0.6508444  3
   6284   6288   6289   6298     1  0.0000000  1.2552000  3
   6284   6288   6289   6299     1  0.0000000  1.2552000  3
   6284   6288   6290   6291     1  0.0000000  1.2552000  3
   6284   6288   6290   6293     1  0.0000000  1.2552000  3
   6285   6282   6284   6288     1  0.0000000  0.6508444  3
   6285   6282   6284   6286     1  0.0000000  0.6508444  3
   6285   6282   6284   6287     1  0.0000000  0.6508444  3
   6286   6284   6288   6289     1  0.0000000  1.2552000  3
   6286   6284   6288   6290     1  0.0000000  1.2552000  3
   6287   6284   6288   6289     1  0.0000000  1.2552000  3
   6287   6284   6288   6290     1  0.0000000  1.2552000  3
   6288   6289   6300   6301     1  0.0000000  0.6508444  3
   6288   6289   6300   6302     1  0.0000000  0.6508444  3
   6288   6290   6292   6294     1  0.0000000  0.6508444  3
   6288   6290   6292   6295     1  0.0000000  0.6508444  3
   6289   6288   6290   6291     1  0.0000000  1.2552000  3
   6289   6288   6290   6293     1  0.0000000  1.2552000  3
   6290   6288   6289   6298     1  0.0000000  1.2552000  3
   6290   6288   6289   6299     1  0.0000000  1.2552000  3
   6291   6290   6292   6296     1  0.0000000  0.6508444  3
   6291   6290   6292   6294     1  0.0000000  0.6508444  3
   6291   6290   6292   6295     1  0.0000000  0.6508444  3
   6292   6296   6328   6318     1  180.0000771  6.0668000  2
   6292   6296   6328   6318     1  180.0000771  1.4644000  4
   6293   6290   6292   6296     1  0.0000000  0.6508444  3
   6293   6290   6292   6294     1  0.0000000  0.6508444  3
   6293   6290   6292   6295     1  0.0000000  0.6508444  3
   6294   6292   6296   6297     1  0.0000000  3.3472000  1
   6294   6292   6296   6297     1  0.0000000  0.0000000  2
   6294   6292   6296   6297     1  180.0000771  0.3347200  3
   6294   6292   6296   6328     1  180.0000771  0.0000000  2
   6295   6292   6296   6297     1  0.0000000  3.3472000  1
   6295   6292   6296   6297     1  0.0000000  0.0000000  2
   6295   6292   6296   6297     1  180.0000771  0.3347200  3
   6295   6292   6296   6328     1  180.0000771  0.0000000  2
   6296   6328   6309   6311     1  0.0000000  1.2552000  3
   6297   6296   6328   6318     1  180.0000771  6.0668000  2
   6297   6296   6328   6318     1  180.0000771  1.4644000  4
   6298   6289   6300   6303     1  0.0000000  0.6508444  3
   6298   6289   6300   6301     1  0.0000000  0.6508444  3
   6298   6289   6300   6302     1  0.0000000  0.6508444  3
   6299   6289   6300   6303     1  0.0000000  0.6508444  3
   6299   6289   6300   6301     1  0.0000000  0.6508444  3
   6299   6289   6300   6302     1  0.0000000  0.6508444  3
   6300   6303   6352   6342     1  180.0000771  6.0668000  2
   6300   6303   6352   6342     1  180.0000771  1.4644000  4
   6301   6300   6303   6304     1  0.0000000  3.3472000  1
   6301   6300   6303   6304     1  0.0000000  0.0000000  2
   6301   6300   6303   6304     1  180.0000771  0.3347200  3
   6301   6300   6303   6352     1  180.0000771  0.0000000  2
   6302   6300   6303   6304     1  0.0000000  3.3472000  1
   6302   6300   6303   6304     1  0.0000000  0.0000000  2
   6302   6300   6303   6304     1  180.0000771  0.3347200  3
   6302   6300   6303   6352     1  180.0000771  0.0000000  2
   6303   6352   6333   6335     1  0.0000000  1.2552000  3
   6304   6303   6352   6342     1  180.0000771  6.0668000  2
   6304   6303   6352   6342     1  180.0000771  1.4644000  4
   6305   6306   6308   6312     1  0.0000000  0.6508444  3
   6305   6306   6326   6327     1  0.0000000  1.0460000  1
   6305   6306   6326   6327     1  0.0000000  0.6694400  3
   6305   6316   6321   6322     1  0.0000000  1.0460000  1
   6305   6316   6321   6322     1  0.0000000  0.6694400  3
   6305   6323   6310   6313     1  0.0000000  1.6038667  3
   6306   6308   6309   6311     1  0.0000000  0.6508444  3
   6306   6308   6315   6317     1  0.0000000  1.0460000  1
   6306   6308   6315   6317     1  0.0000000  0.6694400  3
   6306   6305   6316   6319     1  0.0000000  0.6508444  3
   6306   6305   6316   6320     1  0.0000000  0.6508444  3
   6307   6305   6306   6308     1  0.0000000  0.6508444  3
   6307   6305   6306   6326     1  0.0000000  1.0460000  1
   6307   6305   6306   6326     1  0.0000000  0.0000000  3
   6307   6305   6306   6325     1  0.0000000  0.6508444  3
   6307   6305   6316   6321     1  0.0000000  1.0460000  1
   6307   6305   6316   6321     1  0.0000000  0.0000000  3
   6307   6305   6316   6319     1  0.0000000  0.6508444  3
   6307   6305   6316   6320     1  0.0000000  0.6508444  3
   6307   6305   6323   6310     1  0.0000000  1.6038667  3
   6308   6309   6310   6313     1  0.0000000  0.6508444  3
   6308   6309   6328   6318     1  0.0000000  1.2552000  3
   6308   6306   6326   6327     1  0.0000000  1.0460000  1
   6308   6306   6326   6327     1  0.0000000  0.6694400  3
   6309   6310   6314   6324     1  0.0000000  1.0460000  1
   6309   6310   6314   6324     1  0.0000000  0.6694400  3
   6309   6308   6315   6317     1  0.0000000  1.0460000  1
   6309   6308   6315   6317     1  0.0000000  0.6694400  3
   6309   6308   6306   6325     1  0.0000000  0.6508444  3
   6310   6309   6328   6318     1  0.0000000  1.2552000  3
   6310   6309   6308   6312     1  0.0000000  0.6508444  3
   6311   6309   6310   6314     1  0.0000000  1.0460000  1
   6311   6309   6310   6314     1  0.0000000  0.0000000  3
   6311   6309   6310   6323     1  0.0000000  1.0460000  1
   6311   6309   6310   6323     1  0.0000000  0.0000000  3
   6311   6309   6310   6313     1  0.0000000  0.6508444  3
   6311   6309   6328   6318     1  0.0000000  1.2552000  3
   6311   6309   6308   6315     1  0.0000000  1.0460000  1
   6311   6309   6308   6315     1  0.0000000  0.0000000  3
   6311   6309   6308   6312     1  0.0000000  0.6508444  3
   6312   6308   6309   6328     1  0.0000000  0.6508444  3
   6312   6308   6315   6317     1  0.0000000  0.6973333  3
   6312   6308   6306   6326     1  0.0000000  1.0460000  1
   6312   6308   6306   6326     1  0.0000000  0.0000000  3
   6312   6308   6306   6325     1  0.0000000  0.6508444  3
   6313   6310   6314   6324     1  0.0000000  0.6973333  3
   6313   6310   6309   6328     1  0.0000000  0.6508444  3
   6315   6308   6306   6325     1  0.0000000  1.0460000  1
   6315   6308   6306   6325     1  0.0000000  0.0000000  3
   6316   6305   6306   6325     1  0.0000000  0.6508444  3
   6319   6316   6321   6322     1  0.0000000  0.6973333  3
   6319   6316   6305   6323     1  0.0000000  1.0460000  1
   6319   6316   6305   6323     1  0.0000000  0.0000000  3
   6320   6316   6321   6322     1  0.0000000  0.6973333  3
   6320   6316   6305   6323     1  0.0000000  1.0460000  1
   6320   6316   6305   6323     1  0.0000000  0.0000000  3
   6323   6310   6314   6324     1  0.0000000  0.6973333  3
   6323   6305   6306   6325     1  0.0000000  1.0460000  1
   6323   6305   6306   6325     1  0.0000000  0.0000000  3
   6325   6306   6326   6327     1  0.0000000  0.6973333  3
   6329   6330   6332   6336     1  0.0000000  0.6508444  3
   6329   6330   6350   6351     1  0.0000000  1.0460000  1
   6329   6330   6350   6351     1  0.0000000  0.6694400  3
   6329   6340   6345   6346     1  0.0000000  1.0460000  1
   6329   6340   6345   6346     1  0.0000000  0.6694400  3
   6329   6347   6334   6337     1  0.0000000  1.6038667  3
   6330   6332   6333   6335     1  0.0000000  0.6508444  3
   6330   6332   6339   6341     1  0.0000000  1.0460000  1
   6330   6332   6339   6341     1  0.0000000  0.6694400  3
   6330   6329   6340   6343     1  0.0000000  0.6508444  3
   6330   6329   6340   6344     1  0.0000000  0.6508444  3
   6331   6329   6330   6332     1  0.0000000  0.6508444  3
   6331   6329   6330   6350     1  0.0000000  1.0460000  1
   6331   6329   6330   6350     1  0.0000000  0.0000000  3
   6331   6329   6330   6349     1  0.0000000  0.6508444  3
   6331   6329   6340   6345     1  0.0000000  1.0460000  1
   6331   6329   6340   6345     1  0.0000000  0.0000000  3
   6331   6329   6340   6343     1  0.0000000  0.6508444  3
   6331   6329   6340   6344     1  0.0000000  0.6508444  3
   6331   6329   6347   6334     1  0.0000000  1.6038667  3
   6332   6333   6334   6337     1  0.0000000  0.6508444  3
   6332   6333   6352   6342     1  0.0000000  1.2552000  3
   6332   6330   6350   6351     1  0.0000000  1.0460000  1
   6332   6330   6350   6351     1  0.0000000  0.6694400  3
   6333   6334   6338   6348     1  0.0000000  1.0460000  1
   6333   6334   6338   6348     1  0.0000000  0.6694400  3
   6333   6332   6339   6341     1  0.0000000  1.0460000  1
   6333   6332   6339   6341     1  0.0000000  0.6694400  3
   6333   6332   6330   6349     1  0.0000000  0.6508444  3
   6334   6333   6352   6342     1  0.0000000  1.2552000  3
   6334   6333   6332   6336     1  0.0000000  0.6508444  3
   6335   6333   6334   6338     1  0.0000000  1.0460000  1
   6335   6333   6334   6338     1  0.0000000  0.0000000  3
   6335   6333   6334   6347     1  0.0000000  1.0460000  1
   6335   6333   6334   6347     1  0.0000000  0.0000000  3
   6335   6333   6334   6337     1  0.0000000  0.6508444  3
   6335   6333   6352   6342     1  0.0000000  1.2552000  3
   6335   6333   6332   6339     1  0.0000000  1.0460000  1
   6335   6333   6332   6339     1  0.0000000  0.0000000  3
   6335   6333   6332   6336     1  0.0000000  0.6508444  3
   6336   6332   6333   6352     1  0.0000000  0.6508444  3
   6336   6332   6339   6341     1  0.0000000  0.6973333  3
   6336   6332   6330   6350     1  0.0000000  1.0460000  1
   6336   6332   6330   6350     1  0.0000000  0.0000000  3
   6336   6332   6330   6349     1  0.0000000  0.6508444  3
   6337   6334   6338   6348     1  0.0000000  0.6973333  3
   6337   6334   6333   6352     1  0.0000000  0.6508444  3
   6339   6332   6330   6349     1  0.0000000  1.0460000  1
   6339   6332   6330   6349     1  0.0000000  0.0000000  3
   6340   6329   6330   6349     1  0.0000000  0.6508444  3
   6343   6340   6345   6346     1  0.0000000  0.6973333  3
   6343   6340   6329   6347     1  0.0000000  1.0460000  1
   6343   6340   6329   6347     1  0.0000000  0.0000000  3
   6344   6340   6345   6346     1  0.0000000  0.6973333  3
   6344   6340   6329   6347     1  0.0000000  1.0460000  1
   6344   6340   6329   6347     1  0.0000000  0.0000000  3
   6347   6334   6338   6348     1  0.0000000  0.6973333  3
   6347   6329   6330   6349     1  0.0000000  1.0460000  1
   6347   6329   6330   6349     1  0.0000000  0.0000000  3
   6349   6330   6350   6351     1  0.0000000  0.6973333  3
   6353   6355   6357   6359     1  0.0000000  0.6508444  3
   6353   6355   6357   6360     1  0.0000000  0.6508444  3
   6354   6353   6355   6357     1  0.0000000  0.0000000  2
   6354   6353   6355   6356     1  0.0000000  0.0000000  2
   6354   6353   6355   6358     1  0.0000000  0.0000000  2
   6356   6355   6357   6361     1  0.0000000  0.6508444  3
   6356   6355   6357   6359     1  0.0000000  0.6508444  3
   6356   6355   6357   6360     1  0.0000000  0.6508444  3
   6357   6361   6362   6371     1  0.0000000  1.2552000  3
   6357   6361   6362   6372     1  0.0000000  1.2552000  3
   6357   6361   6363   6364     1  0.0000000  1.2552000  3
   6357   6361   6363   6366     1  0.0000000  1.2552000  3
   6358   6355   6357   6361     1  0.0000000  0.6508444  3
   6358   6355   6357   6359     1  0.0000000  0.6508444  3
   6358   6355   6357   6360     1  0.0000000  0.6508444  3
   6359   6357   6361   6362     1  0.0000000  1.2552000  3
   6359   6357   6361   6363     1  0.0000000  1.2552000  3
   6360   6357   6361   6362     1  0.0000000  1.2552000  3
   6360   6357   6361   6363     1  0.0000000  1.2552000  3
   6361   6362   6373   6374     1  0.0000000  0.6508444  3
   6361   6362   6373   6375     1  0.0000000  0.6508444  3
   6361   6363   6365   6367     1  0.0000000  0.6508444  3
   6361   6363   6365   6368     1  0.0000000  0.6508444  3
   6362   6361   6363   6364     1  0.0000000  1.2552000  3
   6362   6361   6363   6366     1  0.0000000  1.2552000  3
   6363   6361   6362   6371     1  0.0000000  1.2552000  3
   6363   6361   6362   6372     1  0.0000000  1.2552000  3
   6364   6363   6365   6369     1  0.0000000  0.6508444  3
   6364   6363   6365   6367     1  0.0000000  0.6508444  3
   6364   6363   6365   6368     1  0.0000000  0.6508444  3
   6365   6369   6401   6391     1  180.0000771  6.0668000  2
   6365   6369   6401   6391     1  180.0000771  1.4644000  4
   6366   6363   6365   6369     1  0.0000000  0.6508444  3
   6366   6363   6365   6367     1  0.0000000  0.6508444  3
   6366   6363   6365   6368     1  0.0000000  0.6508444  3
   6367   6365   6369   6370     1  0.0000000  3.3472000  1
   6367   6365   6369   6370     1  0.0000000  0.0000000  2
   6367   6365   6369   6370     1  180.0000771  0.3347200  3
   6367   6365   6369   6401     1  180.0000771  0.0000000  2
   6368   6365   6369   6370     1  0.0000000  3.3472000  1
   6368   6365   6369   6370     1  0.0000000  0.0000000  2
   6368   6365   6369   6370     1  180.0000771  0.3347200  3
   6368   6365   6369   6401     1  180.0000771  0.0000000  2
   6369   6401   6382   6384     1  0.0000000  1.2552000  3
   6370   6369   6401   6391     1  180.0000771  6.0668000  2
   6370   6369   6401   6391     1  180.0000771  1.4644000  4
   6371   6362   6373   6376     1  0.0000000  0.6508444  3
   6371   6362   6373   6374     1  0.0000000  0.6508444  3
   6371   6362   6373   6375     1  0.0000000  0.6508444  3
   6372   6362   6373   6376     1  0.0000000  0.6508444  3
   6372   6362   6373   6374     1  0.0000000  0.6508444  3
   6372   6362   6373   6375     1  0.0000000  0.6508444  3
   6373   6376   6425   6415     1  180.0000771  6.0668000  2
   6373   6376   6425   6415     1  180.0000771  1.4644000  4
   6374   6373   6376   6377     1  0.0000000  3.3472000  1
   6374   6373   6376   6377     1  0.0000000  0.0000000  2
   6374   6373   6376   6377     1  180.0000771  0.3347200  3
   6374   6373   6376   6425     1  180.0000771  0.0000000  2
   6375   6373   6376   6377     1  0.0000000  3.3472000  1
   6375   6373   6376   6377     1  0.0000000  0.0000000  2
   6375   6373   6376   6377     1  180.0000771  0.3347200  3
   6375   6373   6376   6425     1  180.0000771  0.0000000  2
   6376   6425   6406   6408     1  0.0000000  1.2552000  3
   6377   6376   6425   6415     1  180.0000771  6.0668000  2
   6377   6376   6425   6415     1  180.0000771  1.4644000  4
   6378   6379   6381   6385     1  0.0000000  0.6508444  3
   6378   6379   6399   6400     1  0.0000000  1.0460000  1
   6378   6379   6399   6400     1  0.0000000  0.6694400  3
   6378   6389   6394   6395     1  0.0000000  1.0460000  1
   6378   6389   6394   6395     1  0.0000000  0.6694400  3
   6378   6396   6383   6386     1  0.0000000  1.6038667  3
   6379   6378   6389   6392     1  0.0000000  0.6508444  3
   6379   6378   6389   6393     1  0.0000000  0.6508444  3
   6379   6381   6382   6384     1  0.0000000  0.6508444  3
   6379   6381   6388   6390     1  0.0000000  1.0460000  1
   6379   6381   6388   6390     1  0.0000000  0.6694400  3
   6380   6378   6379   6381     1  0.0000000  0.6508444  3
   6380   6378   6379   6399     1  0.0000000  1.0460000  1
   6380   6378   6379   6399     1  0.0000000  0.0000000  3
   6380   6378   6379   6398     1  0.0000000  0.6508444  3
   6380   6378   6389   6394     1  0.0000000  1.0460000  1
   6380   6378   6389   6394     1  0.0000000  0.0000000  3
   6380   6378   6389   6392     1  0.0000000  0.6508444  3
   6380   6378   6389   6393     1  0.0000000  0.6508444  3
   6380   6378   6396   6383     1  0.0000000  1.6038667  3
   6381   6379   6399   6400     1  0.0000000  1.0460000  1
   6381   6379   6399   6400     1  0.0000000  0.6694400  3
   6381   6382   6383   6386     1  0.0000000  0.6508444  3
   6381   6382   6401   6391     1  0.0000000  1.2552000  3
   6382   6381   6379   6398     1  0.0000000  0.6508444  3
   6382   6381   6388   6390     1  0.0000000  1.0460000  1
   6382   6381   6388   6390     1  0.0000000  0.6694400  3
   6382   6383   6387   6397     1  0.0000000  1.0460000  1
   6382   6383   6387   6397     1  0.0000000  0.6694400  3
   6383   6382   6381   6385     1  0.0000000  0.6508444  3
   6383   6382   6401   6391     1  0.0000000  1.2552000  3
   6384   6382   6381   6388     1  0.0000000  1.0460000  1
   6384   6382   6381   6388     1  0.0000000  0.0000000  3
   6384   6382   6381   6385     1  0.0000000  0.6508444  3
   6384   6382   6383   6387     1  0.0000000  1.0460000  1
   6384   6382   6383   6387     1  0.0000000  0.0000000  3
   6384   6382   6383   6396     1  0.0000000  1.0460000  1
   6384   6382   6383   6396     1  0.0000000  0.0000000  3
   6384   6382   6383   6386     1  0.0000000  0.6508444  3
   6384   6382   6401   6391     1  0.0000000  1.2552000  3
   6385   6381   6379   6399     1  0.0000000  1.0460000  1
   6385   6381   6379   6399     1  0.0000000  0.0000000  3
   6385   6381   6379   6398     1  0.0000000  0.6508444  3
   6385   6381   6382   6401     1  0.0000000  0.6508444  3
   6385   6381   6388   6390     1  0.0000000  0.6973333  3
   6386   6383   6382   6401     1  0.0000000  0.6508444  3
   6386   6383   6387   6397     1  0.0000000  0.6973333  3
   6388   6381   6379   6398     1  0.0000000  1.0460000  1
   6388   6381   6379   6398     1  0.0000000  0.0000000  3
   6389   6378   6379   6398     1  0.0000000  0.6508444  3
   6392   6389   6378   6396     1  0.0000000  1.0460000  1
   6392   6389   6378   6396     1  0.0000000  0.0000000  3
   6392   6389   6394   6395     1  0.0000000  0.6973333  3
   6393   6389   6378   6396     1  0.0000000  1.0460000  1
   6393   6389   6378   6396     1  0.0000000  0.0000000  3
   6393   6389   6394   6395     1  0.0000000  0.6973333  3
   6396   6378   6379   6398     1  0.0000000  1.0460000  1
   6396   6378   6379   6398     1  0.0000000  0.0000000  3
   6396   6383   6387   6397     1  0.0000000  0.6973333  3
   6398   6379   6399   6400     1  0.0000000  0.6973333  3
   6402   6403   6405   6409     1  0.0000000  0.6508444  3
   6402   6403   6423   6424     1  0.0000000  1.0460000  1
   6402   6403   6423   6424     1  0.0000000  0.6694400  3
   6402   6413   6418   6419     1  0.0000000  1.0460000  1
   6402   6413   6418   6419     1  0.0000000  0.6694400  3
   6402   6420   6407   6410     1  0.0000000  1.6038667  3
   6403   6402   6413   6416     1  0.0000000  0.6508444  3
   6403   6402   6413   6417     1  0.0000000  0.6508444  3
   6403   6405   6406   6408     1  0.0000000  0.6508444  3
   6403   6405   6412   6414     1  0.0000000  1.0460000  1
   6403   6405   6412   6414     1  0.0000000  0.6694400  3
   6404   6402   6403   6405     1  0.0000000  0.6508444  3
   6404   6402   6403   6423     1  0.0000000  1.0460000  1
   6404   6402   6403   6423     1  0.0000000  0.0000000  3
   6404   6402   6403   6422     1  0.0000000  0.6508444  3
   6404   6402   6413   6418     1  0.0000000  1.0460000  1
   6404   6402   6413   6418     1  0.0000000  0.0000000  3
   6404   6402   6413   6416     1  0.0000000  0.6508444  3
   6404   6402   6413   6417     1  0.0000000  0.6508444  3
   6404   6402   6420   6407     1  0.0000000  1.6038667  3
   6405   6403   6423   6424     1  0.0000000  1.0460000  1
   6405   6403   6423   6424     1  0.0000000  0.6694400  3
   6405   6406   6407   6410     1  0.0000000  0.6508444  3
   6405   6406   6425   6415     1  0.0000000  1.2552000  3
   6406   6405   6403   6422     1  0.0000000  0.6508444  3
   6406   6405   6412   6414     1  0.0000000  1.0460000  1
   6406   6405   6412   6414     1  0.0000000  0.6694400  3
   6406   6407   6411   6421     1  0.0000000  1.0460000  1
   6406   6407   6411   6421     1  0.0000000  0.6694400  3
   6407   6406   6405   6409     1  0.0000000  0.6508444  3
   6407   6406   6425   6415     1  0.0000000  1.2552000  3
   6408   6406   6405   6412     1  0.0000000  1.0460000  1
   6408   6406   6405   6412     1  0.0000000  0.0000000  3
   6408   6406   6405   6409     1  0.0000000  0.6508444  3
   6408   6406   6407   6411     1  0.0000000  1.0460000  1
   6408   6406   6407   6411     1  0.0000000  0.0000000  3
   6408   6406   6407   6420     1  0.0000000  1.0460000  1
   6408   6406   6407   6420     1  0.0000000  0.0000000  3
   6408   6406   6407   6410     1  0.0000000  0.6508444  3
   6408   6406   6425   6415     1  0.0000000  1.2552000  3
   6409   6405   6403   6423     1  0.0000000  1.0460000  1
   6409   6405   6403   6423     1  0.0000000  0.0000000  3
   6409   6405   6403   6422     1  0.0000000  0.6508444  3
   6409   6405   6406   6425     1  0.0000000  0.6508444  3
   6409   6405   6412   6414     1  0.0000000  0.6973333  3
   6410   6407   6406   6425     1  0.0000000  0.6508444  3
   6410   6407   6411   6421     1  0.0000000  0.6973333  3
   6412   6405   6403   6422     1  0.0000000  1.0460000  1
   6412   6405   6403   6422     1  0.0000000  0.0000000  3
   6413   6402   6403   6422     1  0.0000000  0.6508444  3
   6416   6413   6402   6420     1  0.0000000  1.0460000  1
   6416   6413   6402   6420     1  0.0000000  0.0000000  3
   6416   6413   6418   6419     1  0.0000000  0.6973333  3
   6417   6413   6402   6420     1  0.0000000  1.0460000  1
   6417   6413   6402   6420     1  0.0000000  0.0000000  3
   6417   6413   6418   6419     1  0.0000000  0.6973333  3
   6420   6402   6403   6422     1  0.0000000  1.0460000  1
   6420   6402   6403   6422     1  0.0000000  0.0000000  3
   6420   6407   6411   6421     1  0.0000000  0.6973333  3
   6422   6403   6423   6424     1  0.0000000  0.6973333  3
   6426   6428   6430   6432     1  0.0000000  0.6508444  3
   6426   6428   6430   6433     1  0.0000000  0.6508444  3
   6427   6426   6428   6430     1  0.0000000  0.0000000  2
   6427   6426   6428   6429     1  0.0000000  0.0000000  2
   6427   6426   6428   6431     1  0.0000000  0.0000000  2
   6429   6428   6430   6434     1  0.0000000  0.6508444  3
   6429   6428   6430   6432     1  0.0000000  0.6508444  3
   6429   6428   6430   6433     1  0.0000000  0.6508444  3
   6430   6434   6435   6444     1  0.0000000  1.2552000  3
   6430   6434   6435   6445     1  0.0000000  1.2552000  3
   6430   6434   6436   6437     1  0.0000000  1.2552000  3
   6430   6434   6436   6439     1  0.0000000  1.2552000  3
   6431   6428   6430   6434     1  0.0000000  0.6508444  3
   6431   6428   6430   6432     1  0.0000000  0.6508444  3
   6431   6428   6430   6433     1  0.0000000  0.6508444  3
   6432   6430   6434   6435     1  0.0000000  1.2552000  3
   6432   6430   6434   6436     1  0.0000000  1.2552000  3
   6433   6430   6434   6435     1  0.0000000  1.2552000  3
   6433   6430   6434   6436     1  0.0000000  1.2552000  3
   6434   6435   6446   6447     1  0.0000000  0.6508444  3
   6434   6435   6446   6448     1  0.0000000  0.6508444  3
   6434   6436   6438   6440     1  0.0000000  0.6508444  3
   6434   6436   6438   6441     1  0.0000000  0.6508444  3
   6435   6434   6436   6437     1  0.0000000  1.2552000  3
   6435   6434   6436   6439     1  0.0000000  1.2552000  3
   6436   6434   6435   6444     1  0.0000000  1.2552000  3
   6436   6434   6435   6445     1  0.0000000  1.2552000  3
   6437   6436   6438   6442     1  0.0000000  0.6508444  3
   6437   6436   6438   6440     1  0.0000000  0.6508444  3
   6437   6436   6438   6441     1  0.0000000  0.6508444  3
   6438   6442   6474   6464     1  180.0000771  6.0668000  2
   6438   6442   6474   6464     1  180.0000771  1.4644000  4
   6439   6436   6438   6442     1  0.0000000  0.6508444  3
   6439   6436   6438   6440     1  0.0000000  0.6508444  3
   6439   6436   6438   6441     1  0.0000000  0.6508444  3
   6440   6438   6442   6443     1  0.0000000  3.3472000  1
   6440   6438   6442   6443     1  0.0000000  0.0000000  2
   6440   6438   6442   6443     1  180.0000771  0.3347200  3
   6440   6438   6442   6474     1  180.0000771  0.0000000  2
   6441   6438   6442   6443     1  0.0000000  3.3472000  1
   6441   6438   6442   6443     1  0.0000000  0.0000000  2
   6441   6438   6442   6443     1  180.0000771  0.3347200  3
   6441   6438   6442   6474     1  180.0000771  0.0000000  2
   6442   6474   6455   6457     1  0.0000000  1.2552000  3
   6443   6442   6474   6464     1  180.0000771  6.0668000  2
   6443   6442   6474   6464     1  180.0000771  1.4644000  4
   6444   6435   6446   6449     1  0.0000000  0.6508444  3
   6444   6435   6446   6447     1  0.0000000  0.6508444  3
   6444   6435   6446   6448     1  0.0000000  0.6508444  3
   6445   6435   6446   6449     1  0.0000000  0.6508444  3
   6445   6435   6446   6447     1  0.0000000  0.6508444  3
   6445   6435   6446   6448     1  0.0000000  0.6508444  3
   6446   6449   6498   6488     1  180.0000771  6.0668000  2
   6446   6449   6498   6488     1  180.0000771  1.4644000  4
   6447   6446   6449   6450     1  0.0000000  3.3472000  1
   6447   6446   6449   6450     1  0.0000000  0.0000000  2
   6447   6446   6449   6450     1  180.0000771  0.3347200  3
   6447   6446   6449   6498     1  180.0000771  0.0000000  2
   6448   6446   6449   6450     1  0.0000000  3.3472000  1
   6448   6446   6449   6450     1  0.0000000  0.0000000  2
   6448   6446   6449   6450     1  180.0000771  0.3347200  3
   6448   6446   6449   6498     1  180.0000771  0.0000000  2
   6449   6498   6479   6481     1  0.0000000  1.2552000  3
   6450   6449   6498   6488     1  180.0000771  6.0668000  2
   6450   6449   6498   6488     1  180.0000771  1.4644000  4
   6451   6452   6454   6458     1  0.0000000  0.6508444  3
   6451   6452   6472   6473     1  0.0000000  1.0460000  1
   6451   6452   6472   6473     1  0.0000000  0.6694400  3
   6451   6462   6467   6468     1  0.0000000  1.0460000  1
   6451   6462   6467   6468     1  0.0000000  0.6694400  3
   6451   6469   6456   6459     1  0.0000000  1.6038667  3
   6452   6454   6455   6457     1  0.0000000  0.6508444  3
   6452   6454   6461   6463     1  0.0000000  1.0460000  1
   6452   6454   6461   6463     1  0.0000000  0.6694400  3
   6452   6451   6462   6465     1  0.0000000  0.6508444  3
   6452   6451   6462   6466     1  0.0000000  0.6508444  3
   6453   6451   6452   6454     1  0.0000000  0.6508444  3
   6453   6451   6452   6472     1  0.0000000  1.0460000  1
   6453   6451   6452   6472     1  0.0000000  0.0000000  3
   6453   6451   6452   6471     1  0.0000000  0.6508444  3
   6453   6451   6462   6467     1  0.0000000  1.0460000  1
   6453   6451   6462   6467     1  0.0000000  0.0000000  3
   6453   6451   6462   6465     1  0.0000000  0.6508444  3
   6453   6451   6462   6466     1  0.0000000  0.6508444  3
   6453   6451   6469   6456     1  0.0000000  1.6038667  3
   6454   6455   6456   6459     1  0.0000000  0.6508444  3
   6454   6455   6474   6464     1  0.0000000  1.2552000  3
   6454   6452   6472   6473     1  0.0000000  1.0460000  1
   6454   6452   6472   6473     1  0.0000000  0.6694400  3
   6455   6456   6460   6470     1  0.0000000  1.0460000  1
   6455   6456   6460   6470     1  0.0000000  0.6694400  3
   6455   6454   6461   6463     1  0.0000000  1.0460000  1
   6455   6454   6461   6463     1  0.0000000  0.6694400  3
   6455   6454   6452   6471     1  0.0000000  0.6508444  3
   6456   6455   6474   6464     1  0.0000000  1.2552000  3
   6456   6455   6454   6458     1  0.0000000  0.6508444  3
   6457   6455   6456   6460     1  0.0000000  1.0460000  1
   6457   6455   6456   6460     1  0.0000000  0.0000000  3
   6457   6455   6456   6469     1  0.0000000  1.0460000  1
   6457   6455   6456   6469     1  0.0000000  0.0000000  3
   6457   6455   6456   6459     1  0.0000000  0.6508444  3
   6457   6455   6474   6464     1  0.0000000  1.2552000  3
   6457   6455   6454   6461     1  0.0000000  1.0460000  1
   6457   6455   6454   6461     1  0.0000000  0.0000000  3
   6457   6455   6454   6458     1  0.0000000  0.6508444  3
   6458   6454   6455   6474     1  0.0000000  0.6508444  3
   6458   6454   6461   6463     1  0.0000000  0.6973333  3
   6458   6454   6452   6472     1  0.0000000  1.0460000  1
   6458   6454   6452   6472     1  0.0000000  0.0000000  3
   6458   6454   6452   6471     1  0.0000000  0.6508444  3
   6459   6456   6460   6470     1  0.0000000  0.6973333  3
   6459   6456   6455   6474     1  0.0000000  0.6508444  3
   6461   6454   6452   6471     1  0.0000000  1.0460000  1
   6461   6454   6452   6471     1  0.0000000  0.0000000  3
   6462   6451   6452   6471     1  0.0000000  0.6508444  3
   6465   6462   6467   6468     1  0.0000000  0.6973333  3
   6465   6462   6451   6469     1  0.0000000  1.0460000  1
   6465   6462   6451   6469     1  0.0000000  0.0000000  3
   6466   6462   6467   6468     1  0.0000000  0.6973333  3
   6466   6462   6451   6469     1  0.0000000  1.0460000  1
   6466   6462   6451   6469     1  0.0000000  0.0000000  3
   6469   6456   6460   6470     1  0.0000000  0.6973333  3
   6469   6451   6452   6471     1  0.0000000  1.0460000  1
   6469   6451   6452   6471     1  0.0000000  0.0000000  3
   6471   6452   6472   6473     1  0.0000000  0.6973333  3
   6475   6476   6478   6482     1  0.0000000  0.6508444  3
   6475   6476   6496   6497     1  0.0000000  1.0460000  1
   6475   6476   6496   6497     1  0.0000000  0.6694400  3
   6475   6486   6491   6492     1  0.0000000  1.0460000  1
   6475   6486   6491   6492     1  0.0000000  0.6694400  3
   6475   6493   6480   6483     1  0.0000000  1.6038667  3
   6476   6478   6479   6481     1  0.0000000  0.6508444  3
   6476   6478   6485   6487     1  0.0000000  1.0460000  1
   6476   6478   6485   6487     1  0.0000000  0.6694400  3
   6476   6475   6486   6489     1  0.0000000  0.6508444  3
   6476   6475   6486   6490     1  0.0000000  0.6508444  3
   6477   6475   6476   6478     1  0.0000000  0.6508444  3
   6477   6475   6476   6496     1  0.0000000  1.0460000  1
   6477   6475   6476   6496     1  0.0000000  0.0000000  3
   6477   6475   6476   6495     1  0.0000000  0.6508444  3
   6477   6475   6486   6491     1  0.0000000  1.0460000  1
   6477   6475   6486   6491     1  0.0000000  0.0000000  3
   6477   6475   6486   6489     1  0.0000000  0.6508444  3
   6477   6475   6486   6490     1  0.0000000  0.6508444  3
   6477   6475   6493   6480     1  0.0000000  1.6038667  3
   6478   6479   6480   6483     1  0.0000000  0.6508444  3
   6478   6479   6498   6488     1  0.0000000  1.2552000  3
   6478   6476   6496   6497     1  0.0000000  1.0460000  1
   6478   6476   6496   6497     1  0.0000000  0.6694400  3
   6479   6480   6484   6494     1  0.0000000  1.0460000  1
   6479   6480   6484   6494     1  0.0000000  0.6694400  3
   6479   6478   6485   6487     1  0.0000000  1.0460000  1
   6479   6478   6485   6487     1  0.0000000  0.6694400  3
   6479   6478   6476   6495     1  0.0000000  0.6508444  3
   6480   6479   6498   6488     1  0.0000000  1.2552000  3
   6480   6479   6478   6482     1  0.0000000  0.6508444  3
   6481   6479   6480   6484     1  0.0000000  1.0460000  1
   6481   6479   6480   6484     1  0.0000000  0.0000000  3
   6481   6479   6480   6493     1  0.0000000  1.0460000  1
   6481   6479   6480   6493     1  0.0000000  0.0000000  3
   6481   6479   6480   6483     1  0.0000000  0.6508444  3
   6481   6479   6498   6488     1  0.0000000  1.2552000  3
   6481   6479   6478   6485     1  0.0000000  1.0460000  1
   6481   6479   6478   6485     1  0.0000000  0.0000000  3
   6481   6479   6478   6482     1  0.0000000  0.6508444  3
   6482   6478   6479   6498     1  0.0000000  0.6508444  3
   6482   6478   6485   6487     1  0.0000000  0.6973333  3
   6482   6478   6476   6496     1  0.0000000  1.0460000  1
   6482   6478   6476   6496     1  0.0000000  0.0000000  3
   6482   6478   6476   6495     1  0.0000000  0.6508444  3
   6483   6480   6484   6494     1  0.0000000  0.6973333  3
   6483   6480   6479   6498     1  0.0000000  0.6508444  3
   6485   6478   6476   6495     1  0.0000000  1.0460000  1
   6485   6478   6476   6495     1  0.0000000  0.0000000  3
   6486   6475   6476   6495     1  0.0000000  0.6508444  3
   6489   6486   6491   6492     1  0.0000000  0.6973333  3
   6489   6486   6475   6493     1  0.0000000  1.0460000  1
   6489   6486   6475   6493     1  0.0000000  0.0000000  3
   6490   6486   6491   6492     1  0.0000000  0.6973333  3
   6490   6486   6475   6493     1  0.0000000  1.0460000  1
   6490   6486   6475   6493     1  0.0000000  0.0000000  3
   6493   6480   6484   6494     1  0.0000000  0.6973333  3
   6493   6475   6476   6495     1  0.0000000  1.0460000  1
   6493   6475   6476   6495     1  0.0000000  0.0000000  3
   6495   6476   6496   6497     1  0.0000000  0.6973333  3
   6499   6501   6503   6505     1  0.0000000  0.6508444  3
   6499   6501   6503   6506     1  0.0000000  0.6508444  3
   6500   6499   6501   6503     1  0.0000000  0.0000000  2
   6500   6499   6501   6502     1  0.0000000  0.0000000  2
   6500   6499   6501   6504     1  0.0000000  0.0000000  2
   6502   6501   6503   6507     1  0.0000000  0.6508444  3
   6502   6501   6503   6505     1  0.0000000  0.6508444  3
   6502   6501   6503   6506     1  0.0000000  0.6508444  3
   6503   6507   6508   6517     1  0.0000000  1.2552000  3
   6503   6507   6508   6518     1  0.0000000  1.2552000  3
   6503   6507   6509   6510     1  0.0000000  1.2552000  3
   6503   6507   6509   6512     1  0.0000000  1.2552000  3
   6504   6501   6503   6507     1  0.0000000  0.6508444  3
   6504   6501   6503   6505     1  0.0000000  0.6508444  3
   6504   6501   6503   6506     1  0.0000000  0.6508444  3
   6505   6503   6507   6508     1  0.0000000  1.2552000  3
   6505   6503   6507   6509     1  0.0000000  1.2552000  3
   6506   6503   6507   6508     1  0.0000000  1.2552000  3
   6506   6503   6507   6509     1  0.0000000  1.2552000  3
   6507   6508   6519   6520     1  0.0000000  0.6508444  3
   6507   6508   6519   6521     1  0.0000000  0.6508444  3
   6507   6509   6511   6513     1  0.0000000  0.6508444  3
   6507   6509   6511   6514     1  0.0000000  0.6508444  3
   6508   6507   6509   6510     1  0.0000000  1.2552000  3
   6508   6507   6509   6512     1  0.0000000  1.2552000  3
   6509   6507   6508   6517     1  0.0000000  1.2552000  3
   6509   6507   6508   6518     1  0.0000000  1.2552000  3
   6510   6509   6511   6515     1  0.0000000  0.6508444  3
   6510   6509   6511   6513     1  0.0000000  0.6508444  3
   6510   6509   6511   6514     1  0.0000000  0.6508444  3
   6511   6515   6547   6537     1  180.0000771  6.0668000  2
   6511   6515   6547   6537     1  180.0000771  1.4644000  4
   6512   6509   6511   6515     1  0.0000000  0.6508444  3
   6512   6509   6511   6513     1  0.0000000  0.6508444  3
   6512   6509   6511   6514     1  0.0000000  0.6508444  3
   6513   6511   6515   6516     1  0.0000000  3.3472000  1
   6513   6511   6515   6516     1  0.0000000  0.0000000  2
   6513   6511   6515   6516     1  180.0000771  0.3347200  3
   6513   6511   6515   6547     1  180.0000771  0.0000000  2
   6514   6511   6515   6516     1  0.0000000  3.3472000  1
   6514   6511   6515   6516     1  0.0000000  0.0000000  2
   6514   6511   6515   6516     1  180.0000771  0.3347200  3
   6514   6511   6515   6547     1  180.0000771  0.0000000  2
   6515   6547   6528   6530     1  0.0000000  1.2552000  3
   6516   6515   6547   6537     1  180.0000771  6.0668000  2
   6516   6515   6547   6537     1  180.0000771  1.4644000  4
   6517   6508   6519   6522     1  0.0000000  0.6508444  3
   6517   6508   6519   6520     1  0.0000000  0.6508444  3
   6517   6508   6519   6521     1  0.0000000  0.6508444  3
   6518   6508   6519   6522     1  0.0000000  0.6508444  3
   6518   6508   6519   6520     1  0.0000000  0.6508444  3
   6518   6508   6519   6521     1  0.0000000  0.6508444  3
   6519   6522   6571   6561     1  180.0000771  6.0668000  2
   6519   6522   6571   6561     1  180.0000771  1.4644000  4
   6520   6519   6522   6523     1  0.0000000  3.3472000  1
   6520   6519   6522   6523     1  0.0000000  0.0000000  2
   6520   6519   6522   6523     1  180.0000771  0.3347200  3
   6520   6519   6522   6571     1  180.0000771  0.0000000  2
   6521   6519   6522   6523     1  0.0000000  3.3472000  1
   6521   6519   6522   6523     1  0.0000000  0.0000000  2
   6521   6519   6522   6523     1  180.0000771  0.3347200  3
   6521   6519   6522   6571     1  180.0000771  0.0000000  2
   6522   6571   6552   6554     1  0.0000000  1.2552000  3
   6523   6522   6571   6561     1  180.0000771  6.0668000  2
   6523   6522   6571   6561     1  180.0000771  1.4644000  4
   6524   6525   6527   6531     1  0.0000000  0.6508444  3
   6524   6525   6545   6546     1  0.0000000  1.0460000  1
   6524   6525   6545   6546     1  0.0000000  0.6694400  3
   6524   6535   6540   6541     1  0.0000000  1.0460000  1
   6524   6535   6540   6541     1  0.0000000  0.6694400  3
   6524   6542   6529   6532     1  0.0000000  1.6038667  3
   6525   6524   6535   6538     1  0.0000000  0.6508444  3
   6525   6524   6535   6539     1  0.0000000  0.6508444  3
   6525   6527   6528   6530     1  0.0000000  0.6508444  3
   6525   6527   6534   6536     1  0.0000000  1.0460000  1
   6525   6527   6534   6536     1  0.0000000  0.6694400  3
   6526   6524   6525   6527     1  0.0000000  0.6508444  3
   6526   6524   6525   6545     1  0.0000000  1.0460000  1
   6526   6524   6525   6545     1  0.0000000  0.0000000  3
   6526   6524   6525   6544     1  0.0000000  0.6508444  3
   6526   6524   6535   6540     1  0.0000000  1.0460000  1
   6526   6524   6535   6540     1  0.0000000  0.0000000  3
   6526   6524   6535   6538     1  0.0000000  0.6508444  3
   6526   6524   6535   6539     1  0.0000000  0.6508444  3
   6526   6524   6542   6529     1  0.0000000  1.6038667  3
   6527   6525   6545   6546     1  0.0000000  1.0460000  1
   6527   6525   6545   6546     1  0.0000000  0.6694400  3
   6527   6528   6529   6532     1  0.0000000  0.6508444  3
   6527   6528   6547   6537     1  0.0000000  1.2552000  3
   6528   6527   6525   6544     1  0.0000000  0.6508444  3
   6528   6527   6534   6536     1  0.0000000  1.0460000  1
   6528   6527   6534   6536     1  0.0000000  0.6694400  3
   6528   6529   6533   6543     1  0.0000000  1.0460000  1
   6528   6529   6533   6543     1  0.0000000  0.6694400  3
   6529   6528   6527   6531     1  0.0000000  0.6508444  3
   6529   6528   6547   6537     1  0.0000000  1.2552000  3
   6530   6528   6527   6534     1  0.0000000  1.0460000  1
   6530   6528   6527   6534     1  0.0000000  0.0000000  3
   6530   6528   6527   6531     1  0.0000000  0.6508444  3
   6530   6528   6529   6533     1  0.0000000  1.0460000  1
   6530   6528   6529   6533     1  0.0000000  0.0000000  3
   6530   6528   6529   6542     1  0.0000000  1.0460000  1
   6530   6528   6529   6542     1  0.0000000  0.0000000  3
   6530   6528   6529   6532     1  0.0000000  0.6508444  3
   6530   6528   6547   6537     1  0.0000000  1.2552000  3
   6531   6527   6525   6545     1  0.0000000  1.0460000  1
   6531   6527   6525   6545     1  0.0000000  0.0000000  3
   6531   6527   6525   6544     1  0.0000000  0.6508444  3
   6531   6527   6528   6547     1  0.0000000  0.6508444  3
   6531   6527   6534   6536     1  0.0000000  0.6973333  3
   6532   6529   6528   6547     1  0.0000000  0.6508444  3
   6532   6529   6533   6543     1  0.0000000  0.6973333  3
   6534   6527   6525   6544     1  0.0000000  1.0460000  1
   6534   6527   6525   6544     1  0.0000000  0.0000000  3
   6535   6524   6525   6544     1  0.0000000  0.6508444  3
   6538   6535   6524   6542     1  0.0000000  1.0460000  1
   6538   6535   6524   6542     1  0.0000000  0.0000000  3
   6538   6535   6540   6541     1  0.0000000  0.6973333  3
   6539   6535   6524   6542     1  0.0000000  1.0460000  1
   6539   6535   6524   6542     1  0.0000000  0.0000000  3
   6539   6535   6540   6541     1  0.0000000  0.6973333  3
   6542   6524   6525   6544     1  0.0000000  1.0460000  1
   6542   6524   6525   6544     1  0.0000000  0.0000000  3
   6542   6529   6533   6543     1  0.0000000  0.6973333  3
   6544   6525   6545   6546     1  0.0000000  0.6973333  3
   6548   6549   6551   6555     1  0.0000000  0.6508444  3
   6548   6549   6569   6570     1  0.0000000  1.0460000  1
   6548   6549   6569   6570     1  0.0000000  0.6694400  3
   6548   6559   6564   6565     1  0.0000000  1.0460000  1
   6548   6559   6564   6565     1  0.0000000  0.6694400  3
   6548   6566   6553   6556     1  0.0000000  1.6038667  3
   6549   6548   6559   6562     1  0.0000000  0.6508444  3
   6549   6548   6559   6563     1  0.0000000  0.6508444  3
   6549   6551   6552   6554     1  0.0000000  0.6508444  3
   6549   6551   6558   6560     1  0.0000000  1.0460000  1
   6549   6551   6558   6560     1  0.0000000  0.6694400  3
   6550   6548   6549   6551     1  0.0000000  0.6508444  3
   6550   6548   6549   6569     1  0.0000000  1.0460000  1
   6550   6548   6549   6569     1  0.0000000  0.0000000  3
   6550   6548   6549   6568     1  0.0000000  0.6508444  3
   6550   6548   6559   6564     1  0.0000000  1.0460000  1
   6550   6548   6559   6564     1  0.0000000  0.0000000  3
   6550   6548   6559   6562     1  0.0000000  0.6508444  3
   6550   6548   6559   6563     1  0.0000000  0.6508444  3
   6550   6548   6566   6553     1  0.0000000  1.6038667  3
   6551   6549   6569   6570     1  0.0000000  1.0460000  1
   6551   6549   6569   6570     1  0.0000000  0.6694400  3
   6551   6552   6553   6556     1  0.0000000  0.6508444  3
   6551   6552   6571   6561     1  0.0000000  1.2552000  3
   6552   6551   6549   6568     1  0.0000000  0.6508444  3
   6552   6551   6558   6560     1  0.0000000  1.0460000  1
   6552   6551   6558   6560     1  0.0000000  0.6694400  3
   6552   6553   6557   6567     1  0.0000000  1.0460000  1
   6552   6553   6557   6567     1  0.0000000  0.6694400  3
   6553   6552   6551   6555     1  0.0000000  0.6508444  3
   6553   6552   6571   6561     1  0.0000000  1.2552000  3
   6554   6552   6551   6558     1  0.0000000  1.0460000  1
   6554   6552   6551   6558     1  0.0000000  0.0000000  3
   6554   6552   6551   6555     1  0.0000000  0.6508444  3
   6554   6552   6553   6557     1  0.0000000  1.0460000  1
   6554   6552   6553   6557     1  0.0000000  0.0000000  3
   6554   6552   6553   6566     1  0.0000000  1.0460000  1
   6554   6552   6553   6566     1  0.0000000  0.0000000  3
   6554   6552   6553   6556     1  0.0000000  0.6508444  3
   6554   6552   6571   6561     1  0.0000000  1.2552000  3
   6555   6551   6549   6569     1  0.0000000  1.0460000  1
   6555   6551   6549   6569     1  0.0000000  0.0000000  3
   6555   6551   6549   6568     1  0.0000000  0.6508444  3
   6555   6551   6552   6571     1  0.0000000  0.6508444  3
   6555   6551   6558   6560     1  0.0000000  0.6973333  3
   6556   6553   6552   6571     1  0.0000000  0.6508444  3
   6556   6553   6557   6567     1  0.0000000  0.6973333  3
   6558   6551   6549   6568     1  0.0000000  1.0460000  1
   6558   6551   6549   6568     1  0.0000000  0.0000000  3
   6559   6548   6549   6568     1  0.0000000  0.6508444  3
   6562   6559   6548   6566     1  0.0000000  1.0460000  1
   6562   6559   6548   6566     1  0.0000000  0.0000000  3
   6562   6559   6564   6565     1  0.0000000  0.6973333  3
   6563   6559   6548   6566     1  0.0000000  1.0460000  1
   6563   6559   6548   6566     1  0.0000000  0.0000000  3
   6563   6559   6564   6565     1  0.0000000  0.6973333  3
   6566   6548   6549   6568     1  0.0000000  1.0460000  1
   6566   6548   6549   6568     1  0.0000000  0.0000000  3
   6566   6553   6557   6567     1  0.0000000  0.6973333  3
   6568   6549   6569   6570     1  0.0000000  0.6973333  3
   6572   6574   6576   6578     1  0.0000000  0.6508444  3
   6572   6574   6576   6579     1  0.0000000  0.6508444  3
   6573   6572   6574   6576     1  0.0000000  0.0000000  2
   6573   6572   6574   6575     1  0.0000000  0.0000000  2
   6573   6572   6574   6577     1  0.0000000  0.0000000  2
   6575   6574   6576   6580     1  0.0000000  0.6508444  3
   6575   6574   6576   6578     1  0.0000000  0.6508444  3
   6575   6574   6576   6579     1  0.0000000  0.6508444  3
   6576   6580   6581   6590     1  0.0000000  1.2552000  3
   6576   6580   6581   6591     1  0.0000000  1.2552000  3
   6576   6580   6582   6583     1  0.0000000  1.2552000  3
   6576   6580   6582   6585     1  0.0000000  1.2552000  3
   6577   6574   6576   6580     1  0.0000000  0.6508444  3
   6577   6574   6576   6578     1  0.0000000  0.6508444  3
   6577   6574   6576   6579     1  0.0000000  0.6508444  3
   6578   6576   6580   6581     1  0.0000000  1.2552000  3
   6578   6576   6580   6582     1  0.0000000  1.2552000  3
   6579   6576   6580   6581     1  0.0000000  1.2552000  3
   6579   6576   6580   6582     1  0.0000000  1.2552000  3
   6580   6581   6592   6593     1  0.0000000  0.6508444  3
   6580   6581   6592   6594     1  0.0000000  0.6508444  3
   6580   6582   6584   6586     1  0.0000000  0.6508444  3
   6580   6582   6584   6587     1  0.0000000  0.6508444  3
   6581   6580   6582   6583     1  0.0000000  1.2552000  3
   6581   6580   6582   6585     1  0.0000000  1.2552000  3
   6582   6580   6581   6590     1  0.0000000  1.2552000  3
   6582   6580   6581   6591     1  0.0000000  1.2552000  3
   6583   6582   6584   6588     1  0.0000000  0.6508444  3
   6583   6582   6584   6586     1  0.0000000  0.6508444  3
   6583   6582   6584   6587     1  0.0000000  0.6508444  3
   6584   6588   6620   6610     1  180.0000771  6.0668000  2
   6584   6588   6620   6610     1  180.0000771  1.4644000  4
   6585   6582   6584   6588     1  0.0000000  0.6508444  3
   6585   6582   6584   6586     1  0.0000000  0.6508444  3
   6585   6582   6584   6587     1  0.0000000  0.6508444  3
   6586   6584   6588   6589     1  0.0000000  3.3472000  1
   6586   6584   6588   6589     1  0.0000000  0.0000000  2
   6586   6584   6588   6589     1  180.0000771  0.3347200  3
   6586   6584   6588   6620     1  180.0000771  0.0000000  2
   6587   6584   6588   6589     1  0.0000000  3.3472000  1
   6587   6584   6588   6589     1  0.0000000  0.0000000  2
   6587   6584   6588   6589     1  180.0000771  0.3347200  3
   6587   6584   6588   6620     1  180.0000771  0.0000000  2
   6588   6620   6601   6603     1  0.0000000  1.2552000  3
   6589   6588   6620   6610     1  180.0000771  6.0668000  2
   6589   6588   6620   6610     1  180.0000771  1.4644000  4
   6590   6581   6592   6595     1  0.0000000  0.6508444  3
   6590   6581   6592   6593     1  0.0000000  0.6508444  3
   6590   6581   6592   6594     1  0.0000000  0.6508444  3
   6591   6581   6592   6595     1  0.0000000  0.6508444  3
   6591   6581   6592   6593     1  0.0000000  0.6508444  3
   6591   6581   6592   6594     1  0.0000000  0.6508444  3
   6592   6595   6644   6634     1  180.0000771  6.0668000  2
   6592   6595   6644   6634     1  180.0000771  1.4644000  4
   6593   6592   6595   6596     1  0.0000000  3.3472000  1
   6593   6592   6595   6596     1  0.0000000  0.0000000  2
   6593   6592   6595   6596     1  180.0000771  0.3347200  3
   6593   6592   6595   6644     1  180.0000771  0.0000000  2
   6594   6592   6595   6596     1  0.0000000  3.3472000  1
   6594   6592   6595   6596     1  0.0000000  0.0000000  2
   6594   6592   6595   6596     1  180.0000771  0.3347200  3
   6594   6592   6595   6644     1  180.0000771  0.0000000  2
   6595   6644   6625   6627     1  0.0000000  1.2552000  3
   6596   6595   6644   6634     1  180.0000771  6.0668000  2
   6596   6595   6644   6634     1  180.0000771  1.4644000  4
   6597   6598   6600   6604     1  0.0000000  0.6508444  3
   6597   6598   6618   6619     1  0.0000000  1.0460000  1
   6597   6598   6618   6619     1  0.0000000  0.6694400  3
   6597   6608   6613   6614     1  0.0000000  1.0460000  1
   6597   6608   6613   6614     1  0.0000000  0.6694400  3
   6597   6615   6602   6605     1  0.0000000  1.6038667  3
   6598   6600   6601   6603     1  0.0000000  0.6508444  3
   6598   6600   6607   6609     1  0.0000000  1.0460000  1
   6598   6600   6607   6609     1  0.0000000  0.6694400  3
   6598   6597   6608   6611     1  0.0000000  0.6508444  3
   6598   6597   6608   6612     1  0.0000000  0.6508444  3
   6599   6597   6598   6600     1  0.0000000  0.6508444  3
   6599   6597   6598   6618     1  0.0000000  1.0460000  1
   6599   6597   6598   6618     1  0.0000000  0.0000000  3
   6599   6597   6598   6617     1  0.0000000  0.6508444  3
   6599   6597   6608   6613     1  0.0000000  1.0460000  1
   6599   6597   6608   6613     1  0.0000000  0.0000000  3
   6599   6597   6608   6611     1  0.0000000  0.6508444  3
   6599   6597   6608   6612     1  0.0000000  0.6508444  3
   6599   6597   6615   6602     1  0.0000000  1.6038667  3
   6600   6601   6602   6605     1  0.0000000  0.6508444  3
   6600   6601   6620   6610     1  0.0000000  1.2552000  3
   6600   6598   6618   6619     1  0.0000000  1.0460000  1
   6600   6598   6618   6619     1  0.0000000  0.6694400  3
   6601   6602   6606   6616     1  0.0000000  1.0460000  1
   6601   6602   6606   6616     1  0.0000000  0.6694400  3
   6601   6600   6607   6609     1  0.0000000  1.0460000  1
   6601   6600   6607   6609     1  0.0000000  0.6694400  3
   6601   6600   6598   6617     1  0.0000000  0.6508444  3
   6602   6601   6620   6610     1  0.0000000  1.2552000  3
   6602   6601   6600   6604     1  0.0000000  0.6508444  3
   6603   6601   6602   6606     1  0.0000000  1.0460000  1
   6603   6601   6602   6606     1  0.0000000  0.0000000  3
   6603   6601   6602   6615     1  0.0000000  1.0460000  1
   6603   6601   6602   6615     1  0.0000000  0.0000000  3
   6603   6601   6602   6605     1  0.0000000  0.6508444  3
   6603   6601   6620   6610     1  0.0000000  1.2552000  3
   6603   6601   6600   6607     1  0.0000000  1.0460000  1
   6603   6601   6600   6607     1  0.0000000  0.0000000  3
   6603   6601   6600   6604     1  0.0000000  0.6508444  3
   6604   6600   6601   6620     1  0.0000000  0.6508444  3
   6604   6600   6607   6609     1  0.0000000  0.6973333  3
   6604   6600   6598   6618     1  0.0000000  1.0460000  1
   6604   6600   6598   6618     1  0.0000000  0.0000000  3
   6604   6600   6598   6617     1  0.0000000  0.6508444  3
   6605   6602   6606   6616     1  0.0000000  0.6973333  3
   6605   6602   6601   6620     1  0.0000000  0.6508444  3
   6607   6600   6598   6617     1  0.0000000  1.0460000  1
   6607   6600   6598   6617     1  0.0000000  0.0000000  3
   6608   6597   6598   6617     1  0.0000000  0.6508444  3
   6611   6608   6613   6614     1  0.0000000  0.6973333  3
   6611   6608   6597   6615     1  0.0000000  1.0460000  1
   6611   6608   6597   6615     1  0.0000000  0.0000000  3
   6612   6608   6613   6614     1  0.0000000  0.6973333  3
   6612   6608   6597   6615     1  0.0000000  1.0460000  1
   6612   6608   6597   6615     1  0.0000000  0.0000000  3
   6615   6602   6606   6616     1  0.0000000  0.6973333  3
   6615   6597   6598   6617     1  0.0000000  1.0460000  1
   6615   6597   6598   6617     1  0.0000000  0.0000000  3
   6617   6598   6618   6619     1  0.0000000  0.6973333  3
   6621   6622   6624   6628     1  0.0000000  0.6508444  3
   6621   6622   6642   6643     1  0.0000000  1.0460000  1
   6621   6622   6642   6643     1  0.0000000  0.6694400  3
   6621   6632   6637   6638     1  0.0000000  1.0460000  1
   6621   6632   6637   6638     1  0.0000000  0.6694400  3
   6621   6639   6626   6629     1  0.0000000  1.6038667  3
   6622   6624   6625   6627     1  0.0000000  0.6508444  3
   6622   6624   6631   6633     1  0.0000000  1.0460000  1
   6622   6624   6631   6633     1  0.0000000  0.6694400  3
   6622   6621   6632   6635     1  0.0000000  0.6508444  3
   6622   6621   6632   6636     1  0.0000000  0.6508444  3
   6623   6621   6622   6624     1  0.0000000  0.6508444  3
   6623   6621   6622   6642     1  0.0000000  1.0460000  1
   6623   6621   6622   6642     1  0.0000000  0.0000000  3
   6623   6621   6622   6641     1  0.0000000  0.6508444  3
   6623   6621   6632   6637     1  0.0000000  1.0460000  1
   6623   6621   6632   6637     1  0.0000000  0.0000000  3
   6623   6621   6632   6635     1  0.0000000  0.6508444  3
   6623   6621   6632   6636     1  0.0000000  0.6508444  3
   6623   6621   6639   6626     1  0.0000000  1.6038667  3
   6624   6625   6626   6629     1  0.0000000  0.6508444  3
   6624   6625   6644   6634     1  0.0000000  1.2552000  3
   6624   6622   6642   6643     1  0.0000000  1.0460000  1
   6624   6622   6642   6643     1  0.0000000  0.6694400  3
   6625   6626   6630   6640     1  0.0000000  1.0460000  1
   6625   6626   6630   6640     1  0.0000000  0.6694400  3
   6625   6624   6631   6633     1  0.0000000  1.0460000  1
   6625   6624   6631   6633     1  0.0000000  0.6694400  3
   6625   6624   6622   6641     1  0.0000000  0.6508444  3
   6626   6625   6644   6634     1  0.0000000  1.2552000  3
   6626   6625   6624   6628     1  0.0000000  0.6508444  3
   6627   6625   6626   6630     1  0.0000000  1.0460000  1
   6627   6625   6626   6630     1  0.0000000  0.0000000  3
   6627   6625   6626   6639     1  0.0000000  1.0460000  1
   6627   6625   6626   6639     1  0.0000000  0.0000000  3
   6627   6625   6626   6629     1  0.0000000  0.6508444  3
   6627   6625   6644   6634     1  0.0000000  1.2552000  3
   6627   6625   6624   6631     1  0.0000000  1.0460000  1
   6627   6625   6624   6631     1  0.0000000  0.0000000  3
   6627   6625   6624   6628     1  0.0000000  0.6508444  3
   6628   6624   6625   6644     1  0.0000000  0.6508444  3
   6628   6624   6631   6633     1  0.0000000  0.6973333  3
   6628   6624   6622   6642     1  0.0000000  1.0460000  1
   6628   6624   6622   6642     1  0.0000000  0.0000000  3
   6628   6624   6622   6641     1  0.0000000  0.6508444  3
   6629   6626   6630   6640     1  0.0000000  0.6973333  3
   6629   6626   6625   6644     1  0.0000000  0.6508444  3
   6631   6624   6622   6641     1  0.0000000  1.0460000  1
   6631   6624   6622   6641     1  0.0000000  0.0000000  3
   6632   6621   6622   6641     1  0.0000000  0.6508444  3
   6635   6632   6637   6638     1  0.0000000  0.6973333  3
   6635   6632   6621   6639     1  0.0000000  1.0460000  1
   6635   6632   6621   6639     1  0.0000000  0.0000000  3
   6636   6632   6637   6638     1  0.0000000  0.6973333  3
   6636   6632   6621   6639     1  0.0000000  1.0460000  1
   6636   6632   6621   6639     1  0.0000000  0.0000000  3
   6639   6626   6630   6640     1  0.0000000  0.6973333  3
   6639   6621   6622   6641     1  0.0000000  1.0460000  1
   6639   6621   6622   6641     1  0.0000000  0.0000000  3
   6641   6622   6642   6643     1  0.0000000  0.6973333  3
   6645   6647   6649   6651     1  0.0000000  0.6508444  3
   6645   6647   6649   6652     1  0.0000000  0.6508444  3
   6646   6645   6647   6649     1  0.0000000  0.0000000  2
   6646   6645   6647   6648     1  0.0000000  0.0000000  2
   6646   6645   6647   6650     1  0.0000000  0.0000000  2
   6648   6647   6649   6653     1  0.0000000  0.6508444  3
   6648   6647   6649   6651     1  0.0000000  0.6508444  3
   6648   6647   6649   6652     1  0.0000000  0.6508444  3
   6649   6653   6654   6663     1  0.0000000  1.2552000  3
   6649   6653   6654   6664     1  0.0000000  1.2552000  3
   6649   6653   6655   6656     1  0.0000000  1.2552000  3
   6649   6653   6655   6658     1  0.0000000  1.2552000  3
   6650   6647   6649   6653     1  0.0000000  0.6508444  3
   6650   6647   6649   6651     1  0.0000000  0.6508444  3
   6650   6647   6649   6652     1  0.0000000  0.6508444  3
   6651   6649   6653   6654     1  0.0000000  1.2552000  3
   6651   6649   6653   6655     1  0.0000000  1.2552000  3
   6652   6649   6653   6654     1  0.0000000  1.2552000  3
   6652   6649   6653   6655     1  0.0000000  1.2552000  3
   6653   6654   6665   6666     1  0.0000000  0.6508444  3
   6653   6654   6665   6667     1  0.0000000  0.6508444  3
   6653   6655   6657   6659     1  0.0000000  0.6508444  3
   6653   6655   6657   6660     1  0.0000000  0.6508444  3
   6654   6653   6655   6656     1  0.0000000  1.2552000  3
   6654   6653   6655   6658     1  0.0000000  1.2552000  3
   6655   6653   6654   6663     1  0.0000000  1.2552000  3
   6655   6653   6654   6664     1  0.0000000  1.2552000  3
   6656   6655   6657   6661     1  0.0000000  0.6508444  3
   6656   6655   6657   6659     1  0.0000000  0.6508444  3
   6656   6655   6657   6660     1  0.0000000  0.6508444  3
   6657   6661   6693   6683     1  180.0000771  6.0668000  2
   6657   6661   6693   6683     1  180.0000771  1.4644000  4
   6658   6655   6657   6661     1  0.0000000  0.6508444  3
   6658   6655   6657   6659     1  0.0000000  0.6508444  3
   6658   6655   6657   6660     1  0.0000000  0.6508444  3
   6659   6657   6661   6662     1  0.0000000  3.3472000  1
   6659   6657   6661   6662     1  0.0000000  0.0000000  2
   6659   6657   6661   6662     1  180.0000771  0.3347200  3
   6659   6657   6661   6693     1  180.0000771  0.0000000  2
   6660   6657   6661   6662     1  0.0000000  3.3472000  1
   6660   6657   6661   6662     1  0.0000000  0.0000000  2
   6660   6657   6661   6662     1  180.0000771  0.3347200  3
   6660   6657   6661   6693     1  180.0000771  0.0000000  2
   6661   6693   6674   6676     1  0.0000000  1.2552000  3
   6662   6661   6693   6683     1  180.0000771  6.0668000  2
   6662   6661   6693   6683     1  180.0000771  1.4644000  4
   6663   6654   6665   6668     1  0.0000000  0.6508444  3
   6663   6654   6665   6666     1  0.0000000  0.6508444  3
   6663   6654   6665   6667     1  0.0000000  0.6508444  3
   6664   6654   6665   6668     1  0.0000000  0.6508444  3
   6664   6654   6665   6666     1  0.0000000  0.6508444  3
   6664   6654   6665   6667     1  0.0000000  0.6508444  3
   6665   6668   6717   6707     1  180.0000771  6.0668000  2
   6665   6668   6717   6707     1  180.0000771  1.4644000  4
   6666   6665   6668   6669     1  0.0000000  3.3472000  1
   6666   6665   6668   6669     1  0.0000000  0.0000000  2
   6666   6665   6668   6669     1  180.0000771  0.3347200  3
   6666   6665   6668   6717     1  180.0000771  0.0000000  2
   6667   6665   6668   6669     1  0.0000000  3.3472000  1
   6667   6665   6668   6669     1  0.0000000  0.0000000  2
   6667   6665   6668   6669     1  180.0000771  0.3347200  3
   6667   6665   6668   6717     1  180.0000771  0.0000000  2
   6668   6717   6698   6700     1  0.0000000  1.2552000  3
   6669   6668   6717   6707     1  180.0000771  6.0668000  2
   6669   6668   6717   6707     1  180.0000771  1.4644000  4
   6670   6671   6673   6677     1  0.0000000  0.6508444  3
   6670   6671   6691   6692     1  0.0000000  1.0460000  1
   6670   6671   6691   6692     1  0.0000000  0.6694400  3
   6670   6681   6686   6687     1  0.0000000  1.0460000  1
   6670   6681   6686   6687     1  0.0000000  0.6694400  3
   6670   6688   6675   6678     1  0.0000000  1.6038667  3
   6671   6670   6681   6684     1  0.0000000  0.6508444  3
   6671   6670   6681   6685     1  0.0000000  0.6508444  3
   6671   6673   6674   6676     1  0.0000000  0.6508444  3
   6671   6673   6680   6682     1  0.0000000  1.0460000  1
   6671   6673   6680   6682     1  0.0000000  0.6694400  3
   6672   6670   6671   6673     1  0.0000000  0.6508444  3
   6672   6670   6671   6691     1  0.0000000  1.0460000  1
   6672   6670   6671   6691     1  0.0000000  0.0000000  3
   6672   6670   6671   6690     1  0.0000000  0.6508444  3
   6672   6670   6681   6686     1  0.0000000  1.0460000  1
   6672   6670   6681   6686     1  0.0000000  0.0000000  3
   6672   6670   6681   6684     1  0.0000000  0.6508444  3
   6672   6670   6681   6685     1  0.0000000  0.6508444  3
   6672   6670   6688   6675     1  0.0000000  1.6038667  3
   6673   6671   6691   6692     1  0.0000000  1.0460000  1
   6673   6671   6691   6692     1  0.0000000  0.6694400  3
   6673   6674   6675   6678     1  0.0000000  0.6508444  3
   6673   6674   6693   6683     1  0.0000000  1.2552000  3
   6674   6673   6671   6690     1  0.0000000  0.6508444  3
   6674   6673   6680   6682     1  0.0000000  1.0460000  1
   6674   6673   6680   6682     1  0.0000000  0.6694400  3
   6674   6675   6679   6689     1  0.0000000  1.0460000  1
   6674   6675   6679   6689     1  0.0000000  0.6694400  3
   6675   6674   6673   6677     1  0.0000000  0.6508444  3
   6675   6674   6693   6683     1  0.0000000  1.2552000  3
   6676   6674   6673   6680     1  0.0000000  1.0460000  1
   6676   6674   6673   6680     1  0.0000000  0.0000000  3
   6676   6674   6673   6677     1  0.0000000  0.6508444  3
   6676   6674   6675   6679     1  0.0000000  1.0460000  1
   6676   6674   6675   6679     1  0.0000000  0.0000000  3
   6676   6674   6675   6688     1  0.0000000  1.0460000  1
   6676   6674   6675   6688     1  0.0000000  0.0000000  3
   6676   6674   6675   6678     1  0.0000000  0.6508444  3
   6676   6674   6693   6683     1  0.0000000  1.2552000  3
   6677   6673   6671   6691     1  0.0000000  1.0460000  1
   6677   6673   6671   6691     1  0.0000000  0.0000000  3
   6677   6673   6671   6690     1  0.0000000  0.6508444  3
   6677   6673   6674   6693     1  0.0000000  0.6508444  3
   6677   6673   6680   6682     1  0.0000000  0.6973333  3
   6678   6675   6674   6693     1  0.0000000  0.6508444  3
   6678   6675   6679   6689     1  0.0000000  0.6973333  3
   6680   6673   6671   6690     1  0.0000000  1.0460000  1
   6680   6673   6671   6690     1  0.0000000  0.0000000  3
   6681   6670   6671   6690     1  0.0000000  0.6508444  3
   6684   6681   6670   6688     1  0.0000000  1.0460000  1
   6684   6681   6670   6688     1  0.0000000  0.0000000  3
   6684   6681   6686   6687     1  0.0000000  0.6973333  3
   6685   6681   6670   6688     1  0.0000000  1.0460000  1
   6685   6681   6670   6688     1  0.0000000  0.0000000  3
   6685   6681   6686   6687     1  0.0000000  0.6973333  3
   6688   6670   6671   6690     1  0.0000000  1.0460000  1
   6688   6670   6671   6690     1  0.0000000  0.0000000  3
   6688   6675   6679   6689     1  0.0000000  0.6973333  3
   6690   6671   6691   6692     1  0.0000000  0.6973333  3
   6694   6695   6697   6701     1  0.0000000  0.6508444  3
   6694   6695   6715   6716     1  0.0000000  1.0460000  1
   6694   6695   6715   6716     1  0.0000000  0.6694400  3
   6694   6705   6710   6711     1  0.0000000  1.0460000  1
   6694   6705   6710   6711     1  0.0000000  0.6694400  3
   6694   6712   6699   6702     1  0.0000000  1.6038667  3
   6695   6694   6705   6708     1  0.0000000  0.6508444  3
   6695   6694   6705   6709     1  0.0000000  0.6508444  3
   6695   6697   6698   6700     1  0.0000000  0.6508444  3
   6695   6697   6704   6706     1  0.0000000  1.0460000  1
   6695   6697   6704   6706     1  0.0000000  0.6694400  3
   6696   6694   6695   6697     1  0.0000000  0.6508444  3
   6696   6694   6695   6715     1  0.0000000  1.0460000  1
   6696   6694   6695   6715     1  0.0000000  0.0000000  3
   6696   6694   6695   6714     1  0.0000000  0.6508444  3
   6696   6694   6705   6710     1  0.0000000  1.0460000  1
   6696   6694   6705   6710     1  0.0000000  0.0000000  3
   6696   6694   6705   6708     1  0.0000000  0.6508444  3
   6696   6694   6705   6709     1  0.0000000  0.6508444  3
   6696   6694   6712   6699     1  0.0000000  1.6038667  3
   6697   6695   6715   6716     1  0.0000000  1.0460000  1
   6697   6695   6715   6716     1  0.0000000  0.6694400  3
   6697   6698   6699   6702     1  0.0000000  0.6508444  3
   6697   6698   6717   6707     1  0.0000000  1.2552000  3
   6698   6697   6695   6714     1  0.0000000  0.6508444  3
   6698   6697   6704   6706     1  0.0000000  1.0460000  1
   6698   6697   6704   6706     1  0.0000000  0.6694400  3
   6698   6699   6703   6713     1  0.0000000  1.0460000  1
   6698   6699   6703   6713     1  0.0000000  0.6694400  3
   6699   6698   6697   6701     1  0.0000000  0.6508444  3
   6699   6698   6717   6707     1  0.0000000  1.2552000  3
   6700   6698   6697   6704     1  0.0000000  1.0460000  1
   6700   6698   6697   6704     1  0.0000000  0.0000000  3
   6700   6698   6697   6701     1  0.0000000  0.6508444  3
   6700   6698   6699   6703     1  0.0000000  1.0460000  1
   6700   6698   6699   6703     1  0.0000000  0.0000000  3
   6700   6698   6699   6712     1  0.0000000  1.0460000  1
   6700   6698   6699   6712     1  0.0000000  0.0000000  3
   6700   6698   6699   6702     1  0.0000000  0.6508444  3
   6700   6698   6717   6707     1  0.0000000  1.2552000  3
   6701   6697   6695   6715     1  0.0000000  1.0460000  1
   6701   6697   6695   6715     1  0.0000000  0.0000000  3
   6701   6697   6695   6714     1  0.0000000  0.6508444  3
   6701   6697   6698   6717     1  0.0000000  0.6508444  3
   6701   6697   6704   6706     1  0.0000000  0.6973333  3
   6702   6699   6698   6717     1  0.0000000  0.6508444  3
   6702   6699   6703   6713     1  0.0000000  0.6973333  3
   6704   6697   6695   6714     1  0.0000000  1.0460000  1
   6704   6697   6695   6714     1  0.0000000  0.0000000  3
   6705   6694   6695   6714     1  0.0000000  0.6508444  3
   6708   6705   6694   6712     1  0.0000000  1.0460000  1
   6708   6705   6694   6712     1  0.0000000  0.0000000  3
   6708   6705   6710   6711     1  0.0000000  0.6973333  3
   6709   6705   6694   6712     1  0.0000000  1.0460000  1
   6709   6705   6694   6712     1  0.0000000  0.0000000  3
   6709   6705   6710   6711     1  0.0000000  0.6973333  3
   6712   6694   6695   6714     1  0.0000000  1.0460000  1
   6712   6694   6695   6714     1  0.0000000  0.0000000  3
   6712   6699   6703   6713     1  0.0000000  0.6973333  3
   6714   6695   6715   6716     1  0.0000000  0.6973333  3
   6718   6720   6722   6724     1  0.0000000  0.6508444  3
   6718   6720   6722   6725     1  0.0000000  0.6508444  3
   6719   6718   6720   6722     1  0.0000000  0.0000000  2
   6719   6718   6720   6721     1  0.0000000  0.0000000  2
   6719   6718   6720   6723     1  0.0000000  0.0000000  2
   6721   6720   6722   6726     1  0.0000000  0.6508444  3
   6721   6720   6722   6724     1  0.0000000  0.6508444  3
   6721   6720   6722   6725     1  0.0000000  0.6508444  3
   6722   6726   6727   6736     1  0.0000000  1.2552000  3
   6722   6726   6727   6737     1  0.0000000  1.2552000  3
   6722   6726   6728   6729     1  0.0000000  1.2552000  3
   6722   6726   6728   6731     1  0.0000000  1.2552000  3
   6723   6720   6722   6726     1  0.0000000  0.6508444  3
   6723   6720   6722   6724     1  0.0000000  0.6508444  3
   6723   6720   6722   6725     1  0.0000000  0.6508444  3
   6724   6722   6726   6727     1  0.0000000  1.2552000  3
   6724   6722   6726   6728     1  0.0000000  1.2552000  3
   6725   6722   6726   6727     1  0.0000000  1.2552000  3
   6725   6722   6726   6728     1  0.0000000  1.2552000  3
   6726   6727   6738   6739     1  0.0000000  0.6508444  3
   6726   6727   6738   6740     1  0.0000000  0.6508444  3
   6726   6728   6730   6732     1  0.0000000  0.6508444  3
   6726   6728   6730   6733     1  0.0000000  0.6508444  3
   6727   6726   6728   6729     1  0.0000000  1.2552000  3
   6727   6726   6728   6731     1  0.0000000  1.2552000  3
   6728   6726   6727   6736     1  0.0000000  1.2552000  3
   6728   6726   6727   6737     1  0.0000000  1.2552000  3
   6729   6728   6730   6734     1  0.0000000  0.6508444  3
   6729   6728   6730   6732     1  0.0000000  0.6508444  3
   6729   6728   6730   6733     1  0.0000000  0.6508444  3
   6730   6734   6766   6756     1  180.0000771  6.0668000  2
   6730   6734   6766   6756     1  180.0000771  1.4644000  4
   6731   6728   6730   6734     1  0.0000000  0.6508444  3
   6731   6728   6730   6732     1  0.0000000  0.6508444  3
   6731   6728   6730   6733     1  0.0000000  0.6508444  3
   6732   6730   6734   6735     1  0.0000000  3.3472000  1
   6732   6730   6734   6735     1  0.0000000  0.0000000  2
   6732   6730   6734   6735     1  180.0000771  0.3347200  3
   6732   6730   6734   6766     1  180.0000771  0.0000000  2
   6733   6730   6734   6735     1  0.0000000  3.3472000  1
   6733   6730   6734   6735     1  0.0000000  0.0000000  2
   6733   6730   6734   6735     1  180.0000771  0.3347200  3
   6733   6730   6734   6766     1  180.0000771  0.0000000  2
   6734   6766   6747   6749     1  0.0000000  1.2552000  3
   6735   6734   6766   6756     1  180.0000771  6.0668000  2
   6735   6734   6766   6756     1  180.0000771  1.4644000  4
   6736   6727   6738   6741     1  0.0000000  0.6508444  3
   6736   6727   6738   6739     1  0.0000000  0.6508444  3
   6736   6727   6738   6740     1  0.0000000  0.6508444  3
   6737   6727   6738   6741     1  0.0000000  0.6508444  3
   6737   6727   6738   6739     1  0.0000000  0.6508444  3
   6737   6727   6738   6740     1  0.0000000  0.6508444  3
   6738   6741   6790   6780     1  180.0000771  6.0668000  2
   6738   6741   6790   6780     1  180.0000771  1.4644000  4
   6739   6738   6741   6742     1  0.0000000  3.3472000  1
   6739   6738   6741   6742     1  0.0000000  0.0000000  2
   6739   6738   6741   6742     1  180.0000771  0.3347200  3
   6739   6738   6741   6790     1  180.0000771  0.0000000  2
   6740   6738   6741   6742     1  0.0000000  3.3472000  1
   6740   6738   6741   6742     1  0.0000000  0.0000000  2
   6740   6738   6741   6742     1  180.0000771  0.3347200  3
   6740   6738   6741   6790     1  180.0000771  0.0000000  2
   6741   6790   6771   6773     1  0.0000000  1.2552000  3
   6742   6741   6790   6780     1  180.0000771  6.0668000  2
   6742   6741   6790   6780     1  180.0000771  1.4644000  4
   6743   6744   6746   6750     1  0.0000000  0.6508444  3
   6743   6744   6764   6765     1  0.0000000  1.0460000  1
   6743   6744   6764   6765     1  0.0000000  0.6694400  3
   6743   6754   6759   6760     1  0.0000000  1.0460000  1
   6743   6754   6759   6760     1  0.0000000  0.6694400  3
   6743   6761   6748   6751     1  0.0000000  1.6038667  3
   6744   6746   6747   6749     1  0.0000000  0.6508444  3
   6744   6746   6753   6755     1  0.0000000  1.0460000  1
   6744   6746   6753   6755     1  0.0000000  0.6694400  3
   6744   6743   6754   6757     1  0.0000000  0.6508444  3
   6744   6743   6754   6758     1  0.0000000  0.6508444  3
   6745   6743   6744   6746     1  0.0000000  0.6508444  3
   6745   6743   6744   6764     1  0.0000000  1.0460000  1
   6745   6743   6744   6764     1  0.0000000  0.0000000  3
   6745   6743   6744   6763     1  0.0000000  0.6508444  3
   6745   6743   6754   6759     1  0.0000000  1.0460000  1
   6745   6743   6754   6759     1  0.0000000  0.0000000  3
   6745   6743   6754   6757     1  0.0000000  0.6508444  3
   6745   6743   6754   6758     1  0.0000000  0.6508444  3
   6745   6743   6761   6748     1  0.0000000  1.6038667  3
   6746   6747   6748   6751     1  0.0000000  0.6508444  3
   6746   6747   6766   6756     1  0.0000000  1.2552000  3
   6746   6744   6764   6765     1  0.0000000  1.0460000  1
   6746   6744   6764   6765     1  0.0000000  0.6694400  3
   6747   6748   6752   6762     1  0.0000000  1.0460000  1
   6747   6748   6752   6762     1  0.0000000  0.6694400  3
   6747   6746   6753   6755     1  0.0000000  1.0460000  1
   6747   6746   6753   6755     1  0.0000000  0.6694400  3
   6747   6746   6744   6763     1  0.0000000  0.6508444  3
   6748   6747   6766   6756     1  0.0000000  1.2552000  3
   6748   6747   6746   6750     1  0.0000000  0.6508444  3
   6749   6747   6748   6752     1  0.0000000  1.0460000  1
   6749   6747   6748   6752     1  0.0000000  0.0000000  3
   6749   6747   6748   6761     1  0.0000000  1.0460000  1
   6749   6747   6748   6761     1  0.0000000  0.0000000  3
   6749   6747   6748   6751     1  0.0000000  0.6508444  3
   6749   6747   6766   6756     1  0.0000000  1.2552000  3
   6749   6747   6746   6753     1  0.0000000  1.0460000  1
   6749   6747   6746   6753     1  0.0000000  0.0000000  3
   6749   6747   6746   6750     1  0.0000000  0.6508444  3
   6750   6746   6747   6766     1  0.0000000  0.6508444  3
   6750   6746   6753   6755     1  0.0000000  0.6973333  3
   6750   6746   6744   6764     1  0.0000000  1.0460000  1
   6750   6746   6744   6764     1  0.0000000  0.0000000  3
   6750   6746   6744   6763     1  0.0000000  0.6508444  3
   6751   6748   6752   6762     1  0.0000000  0.6973333  3
   6751   6748   6747   6766     1  0.0000000  0.6508444  3
   6753   6746   6744   6763     1  0.0000000  1.0460000  1
   6753   6746   6744   6763     1  0.0000000  0.0000000  3
   6754   6743   6744   6763     1  0.0000000  0.6508444  3
   6757   6754   6759   6760     1  0.0000000  0.6973333  3
   6757   6754   6743   6761     1  0.0000000  1.0460000  1
   6757   6754   6743   6761     1  0.0000000  0.0000000  3
   6758   6754   6759   6760     1  0.0000000  0.6973333  3
   6758   6754   6743   6761     1  0.0000000  1.0460000  1
   6758   6754   6743   6761     1  0.0000000  0.0000000  3
   6761   6748   6752   6762     1  0.0000000  0.6973333  3
   6761   6743   6744   6763     1  0.0000000  1.0460000  1
   6761   6743   6744   6763     1  0.0000000  0.0000000  3
   6763   6744   6764   6765     1  0.0000000  0.6973333  3
   6767   6768   6770   6774     1  0.0000000  0.6508444  3
   6767   6768   6788   6789     1  0.0000000  1.0460000  1
   6767   6768   6788   6789     1  0.0000000  0.6694400  3
   6767   6778   6783   6784     1  0.0000000  1.0460000  1
   6767   6778   6783   6784     1  0.0000000  0.6694400  3
   6767   6785   6772   6775     1  0.0000000  1.6038667  3
   6768   6770   6771   6773     1  0.0000000  0.6508444  3
   6768   6770   6777   6779     1  0.0000000  1.0460000  1
   6768   6770   6777   6779     1  0.0000000  0.6694400  3
   6768   6767   6778   6781     1  0.0000000  0.6508444  3
   6768   6767   6778   6782     1  0.0000000  0.6508444  3
   6769   6767   6768   6770     1  0.0000000  0.6508444  3
   6769   6767   6768   6788     1  0.0000000  1.0460000  1
   6769   6767   6768   6788     1  0.0000000  0.0000000  3
   6769   6767   6768   6787     1  0.0000000  0.6508444  3
   6769   6767   6778   6783     1  0.0000000  1.0460000  1
   6769   6767   6778   6783     1  0.0000000  0.0000000  3
   6769   6767   6778   6781     1  0.0000000  0.6508444  3
   6769   6767   6778   6782     1  0.0000000  0.6508444  3
   6769   6767   6785   6772     1  0.0000000  1.6038667  3
   6770   6771   6772   6775     1  0.0000000  0.6508444  3
   6770   6771   6790   6780     1  0.0000000  1.2552000  3
   6770   6768   6788   6789     1  0.0000000  1.0460000  1
   6770   6768   6788   6789     1  0.0000000  0.6694400  3
   6771   6772   6776   6786     1  0.0000000  1.0460000  1
   6771   6772   6776   6786     1  0.0000000  0.6694400  3
   6771   6770   6777   6779     1  0.0000000  1.0460000  1
   6771   6770   6777   6779     1  0.0000000  0.6694400  3
   6771   6770   6768   6787     1  0.0000000  0.6508444  3
   6772   6771   6790   6780     1  0.0000000  1.2552000  3
   6772   6771   6770   6774     1  0.0000000  0.6508444  3
   6773   6771   6772   6776     1  0.0000000  1.0460000  1
   6773   6771   6772   6776     1  0.0000000  0.0000000  3
   6773   6771   6772   6785     1  0.0000000  1.0460000  1
   6773   6771   6772   6785     1  0.0000000  0.0000000  3
   6773   6771   6772   6775     1  0.0000000  0.6508444  3
   6773   6771   6790   6780     1  0.0000000  1.2552000  3
   6773   6771   6770   6777     1  0.0000000  1.0460000  1
   6773   6771   6770   6777     1  0.0000000  0.0000000  3
   6773   6771   6770   6774     1  0.0000000  0.6508444  3
   6774   6770   6771   6790     1  0.0000000  0.6508444  3
   6774   6770   6777   6779     1  0.0000000  0.6973333  3
   6774   6770   6768   6788     1  0.0000000  1.0460000  1
   6774   6770   6768   6788     1  0.0000000  0.0000000  3
   6774   6770   6768   6787     1  0.0000000  0.6508444  3
   6775   6772   6776   6786     1  0.0000000  0.6973333  3
   6775   6772   6771   6790     1  0.0000000  0.6508444  3
   6777   6770   6768   6787     1  0.0000000  1.0460000  1
   6777   6770   6768   6787     1  0.0000000  0.0000000  3
   6778   6767   6768   6787     1  0.0000000  0.6508444  3
   6781   6778   6783   6784     1  0.0000000  0.6973333  3
   6781   6778   6767   6785     1  0.0000000  1.0460000  1
   6781   6778   6767   6785     1  0.0000000  0.0000000  3
   6782   6778   6783   6784     1  0.0000000  0.6973333  3
   6782   6778   6767   6785     1  0.0000000  1.0460000  1
   6782   6778   6767   6785     1  0.0000000  0.0000000  3
   6785   6772   6776   6786     1  0.0000000  0.6973333  3
   6785   6767   6768   6787     1  0.0000000  1.0460000  1
   6785   6767   6768   6787     1  0.0000000  0.0000000  3
   6787   6768   6788   6789     1  0.0000000  0.6973333  3
   6791   6793   6795   6797     1  0.0000000  0.6508444  3
   6791   6793   6795   6798     1  0.0000000  0.6508444  3
   6792   6791   6793   6795     1  0.0000000  0.0000000  2
   6792   6791   6793   6794     1  0.0000000  0.0000000  2
   6792   6791   6793   6796     1  0.0000000  0.0000000  2
   6794   6793   6795   6799     1  0.0000000  0.6508444  3
   6794   6793   6795   6797     1  0.0000000  0.6508444  3
   6794   6793   6795   6798     1  0.0000000  0.6508444  3
   6795   6799   6800   6809     1  0.0000000  1.2552000  3
   6795   6799   6800   6810     1  0.0000000  1.2552000  3
   6795   6799   6801   6802     1  0.0000000  1.2552000  3
   6795   6799   6801   6804     1  0.0000000  1.2552000  3
   6796   6793   6795   6799     1  0.0000000  0.6508444  3
   6796   6793   6795   6797     1  0.0000000  0.6508444  3
   6796   6793   6795   6798     1  0.0000000  0.6508444  3
   6797   6795   6799   6800     1  0.0000000  1.2552000  3
   6797   6795   6799   6801     1  0.0000000  1.2552000  3
   6798   6795   6799   6800     1  0.0000000  1.2552000  3
   6798   6795   6799   6801     1  0.0000000  1.2552000  3
   6799   6800   6811   6812     1  0.0000000  0.6508444  3
   6799   6800   6811   6813     1  0.0000000  0.6508444  3
   6799   6801   6803   6805     1  0.0000000  0.6508444  3
   6799   6801   6803   6806     1  0.0000000  0.6508444  3
   6800   6799   6801   6802     1  0.0000000  1.2552000  3
   6800   6799   6801   6804     1  0.0000000  1.2552000  3
   6801   6799   6800   6809     1  0.0000000  1.2552000  3
   6801   6799   6800   6810     1  0.0000000  1.2552000  3
   6802   6801   6803   6807     1  0.0000000  0.6508444  3
   6802   6801   6803   6805     1  0.0000000  0.6508444  3
   6802   6801   6803   6806     1  0.0000000  0.6508444  3
   6803   6807   6839   6829     1  180.0000771  6.0668000  2
   6803   6807   6839   6829     1  180.0000771  1.4644000  4
   6804   6801   6803   6807     1  0.0000000  0.6508444  3
   6804   6801   6803   6805     1  0.0000000  0.6508444  3
   6804   6801   6803   6806     1  0.0000000  0.6508444  3
   6805   6803   6807   6808     1  0.0000000  3.3472000  1
   6805   6803   6807   6808     1  0.0000000  0.0000000  2
   6805   6803   6807   6808     1  180.0000771  0.3347200  3
   6805   6803   6807   6839     1  180.0000771  0.0000000  2
   6806   6803   6807   6808     1  0.0000000  3.3472000  1
   6806   6803   6807   6808     1  0.0000000  0.0000000  2
   6806   6803   6807   6808     1  180.0000771  0.3347200  3
   6806   6803   6807   6839     1  180.0000771  0.0000000  2
   6807   6839   6820   6822     1  0.0000000  1.2552000  3
   6808   6807   6839   6829     1  180.0000771  6.0668000  2
   6808   6807   6839   6829     1  180.0000771  1.4644000  4
   6809   6800   6811   6814     1  0.0000000  0.6508444  3
   6809   6800   6811   6812     1  0.0000000  0.6508444  3
   6809   6800   6811   6813     1  0.0000000  0.6508444  3
   6810   6800   6811   6814     1  0.0000000  0.6508444  3
   6810   6800   6811   6812     1  0.0000000  0.6508444  3
   6810   6800   6811   6813     1  0.0000000  0.6508444  3
   6811   6814   6863   6853     1  180.0000771  6.0668000  2
   6811   6814   6863   6853     1  180.0000771  1.4644000  4
   6812   6811   6814   6815     1  0.0000000  3.3472000  1
   6812   6811   6814   6815     1  0.0000000  0.0000000  2
   6812   6811   6814   6815     1  180.0000771  0.3347200  3
   6812   6811   6814   6863     1  180.0000771  0.0000000  2
   6813   6811   6814   6815     1  0.0000000  3.3472000  1
   6813   6811   6814   6815     1  0.0000000  0.0000000  2
   6813   6811   6814   6815     1  180.0000771  0.3347200  3
   6813   6811   6814   6863     1  180.0000771  0.0000000  2
   6814   6863   6844   6846     1  0.0000000  1.2552000  3
   6815   6814   6863   6853     1  180.0000771  6.0668000  2
   6815   6814   6863   6853     1  180.0000771  1.4644000  4
   6816   6817   6819   6823     1  0.0000000  0.6508444  3
   6816   6817   6837   6838     1  0.0000000  1.0460000  1
   6816   6817   6837   6838     1  0.0000000  0.6694400  3
   6816   6827   6832   6833     1  0.0000000  1.0460000  1
   6816   6827   6832   6833     1  0.0000000  0.6694400  3
   6816   6834   6821   6824     1  0.0000000  1.6038667  3
   6817   6816   6827   6830     1  0.0000000  0.6508444  3
   6817   6816   6827   6831     1  0.0000000  0.6508444  3
   6817   6819   6820   6822     1  0.0000000  0.6508444  3
   6817   6819   6826   6828     1  0.0000000  1.0460000  1
   6817   6819   6826   6828     1  0.0000000  0.6694400  3
   6818   6816   6817   6819     1  0.0000000  0.6508444  3
   6818   6816   6817   6837     1  0.0000000  1.0460000  1
   6818   6816   6817   6837     1  0.0000000  0.0000000  3
   6818   6816   6817   6836     1  0.0000000  0.6508444  3
   6818   6816   6827   6832     1  0.0000000  1.0460000  1
   6818   6816   6827   6832     1  0.0000000  0.0000000  3
   6818   6816   6827   6830     1  0.0000000  0.6508444  3
   6818   6816   6827   6831     1  0.0000000  0.6508444  3
   6818   6816   6834   6821     1  0.0000000  1.6038667  3
   6819   6817   6837   6838     1  0.0000000  1.0460000  1
   6819   6817   6837   6838     1  0.0000000  0.6694400  3
   6819   6820   6821   6824     1  0.0000000  0.6508444  3
   6819   6820   6839   6829     1  0.0000000  1.2552000  3
   6820   6819   6817   6836     1  0.0000000  0.6508444  3
   6820   6819   6826   6828     1  0.0000000  1.0460000  1
   6820   6819   6826   6828     1  0.0000000  0.6694400  3
   6820   6821   6825   6835     1  0.0000000  1.0460000  1
   6820   6821   6825   6835     1  0.0000000  0.6694400  3
   6821   6820   6819   6823     1  0.0000000  0.6508444  3
   6821   6820   6839   6829     1  0.0000000  1.2552000  3
   6822   6820   6819   6826     1  0.0000000  1.0460000  1
   6822   6820   6819   6826     1  0.0000000  0.0000000  3
   6822   6820   6819   6823     1  0.0000000  0.6508444  3
   6822   6820   6821   6825     1  0.0000000  1.0460000  1
   6822   6820   6821   6825     1  0.0000000  0.0000000  3
   6822   6820   6821   6834     1  0.0000000  1.0460000  1
   6822   6820   6821   6834     1  0.0000000  0.0000000  3
   6822   6820   6821   6824     1  0.0000000  0.6508444  3
   6822   6820   6839   6829     1  0.0000000  1.2552000  3
   6823   6819   6817   6837     1  0.0000000  1.0460000  1
   6823   6819   6817   6837     1  0.0000000  0.0000000  3
   6823   6819   6817   6836     1  0.0000000  0.6508444  3
   6823   6819   6820   6839     1  0.0000000  0.6508444  3
   6823   6819   6826   6828     1  0.0000000  0.6973333  3
   6824   6821   6820   6839     1  0.0000000  0.6508444  3
   6824   6821   6825   6835     1  0.0000000  0.6973333  3
   6826   6819   6817   6836     1  0.0000000  1.0460000  1
   6826   6819   6817   6836     1  0.0000000  0.0000000  3
   6827   6816   6817   6836     1  0.0000000  0.6508444  3
   6830   6827   6816   6834     1  0.0000000  1.0460000  1
   6830   6827   6816   6834     1  0.0000000  0.0000000  3
   6830   6827   6832   6833     1  0.0000000  0.6973333  3
   6831   6827   6816   6834     1  0.0000000  1.0460000  1
   6831   6827   6816   6834     1  0.0000000  0.0000000  3
   6831   6827   6832   6833     1  0.0000000  0.6973333  3
   6834   6816   6817   6836     1  0.0000000  1.0460000  1
   6834   6816   6817   6836     1  0.0000000  0.0000000  3
   6834   6821   6825   6835     1  0.0000000  0.6973333  3
   6836   6817   6837   6838     1  0.0000000  0.6973333  3
   6840   6841   6843   6847     1  0.0000000  0.6508444  3
   6840   6841   6861   6862     1  0.0000000  1.0460000  1
   6840   6841   6861   6862     1  0.0000000  0.6694400  3
   6840   6851   6856   6857     1  0.0000000  1.0460000  1
   6840   6851   6856   6857     1  0.0000000  0.6694400  3
   6840   6858   6845   6848     1  0.0000000  1.6038667  3
   6841   6840   6851   6854     1  0.0000000  0.6508444  3
   6841   6840   6851   6855     1  0.0000000  0.6508444  3
   6841   6843   6844   6846     1  0.0000000  0.6508444  3
   6841   6843   6850   6852     1  0.0000000  1.0460000  1
   6841   6843   6850   6852     1  0.0000000  0.6694400  3
   6842   6840   6841   6843     1  0.0000000  0.6508444  3
   6842   6840   6841   6861     1  0.0000000  1.0460000  1
   6842   6840   6841   6861     1  0.0000000  0.0000000  3
   6842   6840   6841   6860     1  0.0000000  0.6508444  3
   6842   6840   6851   6856     1  0.0000000  1.0460000  1
   6842   6840   6851   6856     1  0.0000000  0.0000000  3
   6842   6840   6851   6854     1  0.0000000  0.6508444  3
   6842   6840   6851   6855     1  0.0000000  0.6508444  3
   6842   6840   6858   6845     1  0.0000000  1.6038667  3
   6843   6841   6861   6862     1  0.0000000  1.0460000  1
   6843   6841   6861   6862     1  0.0000000  0.6694400  3
   6843   6844   6845   6848     1  0.0000000  0.6508444  3
   6843   6844   6863   6853     1  0.0000000  1.2552000  3
   6844   6843   6841   6860     1  0.0000000  0.6508444  3
   6844   6843   6850   6852     1  0.0000000  1.0460000  1
   6844   6843   6850   6852     1  0.0000000  0.6694400  3
   6844   6845   6849   6859     1  0.0000000  1.0460000  1
   6844   6845   6849   6859     1  0.0000000  0.6694400  3
   6845   6844   6843   6847     1  0.0000000  0.6508444  3
   6845   6844   6863   6853     1  0.0000000  1.2552000  3
   6846   6844   6843   6850     1  0.0000000  1.0460000  1
   6846   6844   6843   6850     1  0.0000000  0.0000000  3
   6846   6844   6843   6847     1  0.0000000  0.6508444  3
   6846   6844   6845   6849     1  0.0000000  1.0460000  1
   6846   6844   6845   6849     1  0.0000000  0.0000000  3
   6846   6844   6845   6858     1  0.0000000  1.0460000  1
   6846   6844   6845   6858     1  0.0000000  0.0000000  3
   6846   6844   6845   6848     1  0.0000000  0.6508444  3
   6846   6844   6863   6853     1  0.0000000  1.2552000  3
   6847   6843   6841   6861     1  0.0000000  1.0460000  1
   6847   6843   6841   6861     1  0.0000000  0.0000000  3
   6847   6843   6841   6860     1  0.0000000  0.6508444  3
   6847   6843   6844   6863     1  0.0000000  0.6508444  3
   6847   6843   6850   6852     1  0.0000000  0.6973333  3
   6848   6845   6844   6863     1  0.0000000  0.6508444  3
   6848   6845   6849   6859     1  0.0000000  0.6973333  3
   6850   6843   6841   6860     1  0.0000000  1.0460000  1
   6850   6843   6841   6860     1  0.0000000  0.0000000  3
   6851   6840   6841   6860     1  0.0000000  0.6508444  3
   6854   6851   6840   6858     1  0.0000000  1.0460000  1
   6854   6851   6840   6858     1  0.0000000  0.0000000  3
   6854   6851   6856   6857     1  0.0000000  0.6973333  3
   6855   6851   6840   6858     1  0.0000000  1.0460000  1
   6855   6851   6840   6858     1  0.0000000  0.0000000  3
   6855   6851   6856   6857     1  0.0000000  0.6973333  3
   6858   6840   6841   6860     1  0.0000000  1.0460000  1
   6858   6840   6841   6860     1  0.0000000  0.0000000  3
   6858   6845   6849   6859     1  0.0000000  0.6973333  3
   6860   6841   6861   6862     1  0.0000000  0.6973333  3
   6864   6866   6868   6870     1  0.0000000  0.6508444  3
   6864   6866   6868   6871     1  0.0000000  0.6508444  3
   6865   6864   6866   6868     1  0.0000000  0.0000000  2
   6865   6864   6866   6867     1  0.0000000  0.0000000  2
   6865   6864   6866   6869     1  0.0000000  0.0000000  2
   6867   6866   6868   6872     1  0.0000000  0.6508444  3
   6867   6866   6868   6870     1  0.0000000  0.6508444  3
   6867   6866   6868   6871     1  0.0000000  0.6508444  3
   6868   6872   6873   6882     1  0.0000000  1.2552000  3
   6868   6872   6873   6883     1  0.0000000  1.2552000  3
   6868   6872   6874   6875     1  0.0000000  1.2552000  3
   6868   6872   6874   6877     1  0.0000000  1.2552000  3
   6869   6866   6868   6872     1  0.0000000  0.6508444  3
   6869   6866   6868   6870     1  0.0000000  0.6508444  3
   6869   6866   6868   6871     1  0.0000000  0.6508444  3
   6870   6868   6872   6873     1  0.0000000  1.2552000  3
   6870   6868   6872   6874     1  0.0000000  1.2552000  3
   6871   6868   6872   6873     1  0.0000000  1.2552000  3
   6871   6868   6872   6874     1  0.0000000  1.2552000  3
   6872   6873   6884   6885     1  0.0000000  0.6508444  3
   6872   6873   6884   6886     1  0.0000000  0.6508444  3
   6872   6874   6876   6878     1  0.0000000  0.6508444  3
   6872   6874   6876   6879     1  0.0000000  0.6508444  3
   6873   6872   6874   6875     1  0.0000000  1.2552000  3
   6873   6872   6874   6877     1  0.0000000  1.2552000  3
   6874   6872   6873   6882     1  0.0000000  1.2552000  3
   6874   6872   6873   6883     1  0.0000000  1.2552000  3
   6875   6874   6876   6880     1  0.0000000  0.6508444  3
   6875   6874   6876   6878     1  0.0000000  0.6508444  3
   6875   6874   6876   6879     1  0.0000000  0.6508444  3
   6876   6880   6912   6902     1  180.0000771  6.0668000  2
   6876   6880   6912   6902     1  180.0000771  1.4644000  4
   6877   6874   6876   6880     1  0.0000000  0.6508444  3
   6877   6874   6876   6878     1  0.0000000  0.6508444  3
   6877   6874   6876   6879     1  0.0000000  0.6508444  3
   6878   6876   6880   6881     1  0.0000000  3.3472000  1
   6878   6876   6880   6881     1  0.0000000  0.0000000  2
   6878   6876   6880   6881     1  180.0000771  0.3347200  3
   6878   6876   6880   6912     1  180.0000771  0.0000000  2
   6879   6876   6880   6881     1  0.0000000  3.3472000  1
   6879   6876   6880   6881     1  0.0000000  0.0000000  2
   6879   6876   6880   6881     1  180.0000771  0.3347200  3
   6879   6876   6880   6912     1  180.0000771  0.0000000  2
   6880   6912   6893   6895     1  0.0000000  1.2552000  3
   6881   6880   6912   6902     1  180.0000771  6.0668000  2
   6881   6880   6912   6902     1  180.0000771  1.4644000  4
   6882   6873   6884   6887     1  0.0000000  0.6508444  3
   6882   6873   6884   6885     1  0.0000000  0.6508444  3
   6882   6873   6884   6886     1  0.0000000  0.6508444  3
   6883   6873   6884   6887     1  0.0000000  0.6508444  3
   6883   6873   6884   6885     1  0.0000000  0.6508444  3
   6883   6873   6884   6886     1  0.0000000  0.6508444  3
   6884   6887   6936   6926     1  180.0000771  6.0668000  2
   6884   6887   6936   6926     1  180.0000771  1.4644000  4
   6885   6884   6887   6888     1  0.0000000  3.3472000  1
   6885   6884   6887   6888     1  0.0000000  0.0000000  2
   6885   6884   6887   6888     1  180.0000771  0.3347200  3
   6885   6884   6887   6936     1  180.0000771  0.0000000  2
   6886   6884   6887   6888     1  0.0000000  3.3472000  1
   6886   6884   6887   6888     1  0.0000000  0.0000000  2
   6886   6884   6887   6888     1  180.0000771  0.3347200  3
   6886   6884   6887   6936     1  180.0000771  0.0000000  2
   6887   6936   6917   6919     1  0.0000000  1.2552000  3
   6888   6887   6936   6926     1  180.0000771  6.0668000  2
   6888   6887   6936   6926     1  180.0000771  1.4644000  4
   6889   6890   6892   6896     1  0.0000000  0.6508444  3
   6889   6890   6910   6911     1  0.0000000  1.0460000  1
   6889   6890   6910   6911     1  0.0000000  0.6694400  3
   6889   6900   6905   6906     1  0.0000000  1.0460000  1
   6889   6900   6905   6906     1  0.0000000  0.6694400  3
   6889   6907   6894   6897     1  0.0000000  1.6038667  3
   6890   6892   6893   6895     1  0.0000000  0.6508444  3
   6890   6892   6899   6901     1  0.0000000  1.0460000  1
   6890   6892   6899   6901     1  0.0000000  0.6694400  3
   6890   6889   6900   6903     1  0.0000000  0.6508444  3
   6890   6889   6900   6904     1  0.0000000  0.6508444  3
   6891   6889   6890   6892     1  0.0000000  0.6508444  3
   6891   6889   6890   6910     1  0.0000000  1.0460000  1
   6891   6889   6890   6910     1  0.0000000  0.0000000  3
   6891   6889   6890   6909     1  0.0000000  0.6508444  3
   6891   6889   6900   6905     1  0.0000000  1.0460000  1
   6891   6889   6900   6905     1  0.0000000  0.0000000  3
   6891   6889   6900   6903     1  0.0000000  0.6508444  3
   6891   6889   6900   6904     1  0.0000000  0.6508444  3
   6891   6889   6907   6894     1  0.0000000  1.6038667  3
   6892   6893   6894   6897     1  0.0000000  0.6508444  3
   6892   6893   6912   6902     1  0.0000000  1.2552000  3
   6892   6890   6910   6911     1  0.0000000  1.0460000  1
   6892   6890   6910   6911     1  0.0000000  0.6694400  3
   6893   6894   6898   6908     1  0.0000000  1.0460000  1
   6893   6894   6898   6908     1  0.0000000  0.6694400  3
   6893   6892   6899   6901     1  0.0000000  1.0460000  1
   6893   6892   6899   6901     1  0.0000000  0.6694400  3
   6893   6892   6890   6909     1  0.0000000  0.6508444  3
   6894   6893   6912   6902     1  0.0000000  1.2552000  3
   6894   6893   6892   6896     1  0.0000000  0.6508444  3
   6895   6893   6894   6898     1  0.0000000  1.0460000  1
   6895   6893   6894   6898     1  0.0000000  0.0000000  3
   6895   6893   6894   6907     1  0.0000000  1.0460000  1
   6895   6893   6894   6907     1  0.0000000  0.0000000  3
   6895   6893   6894   6897     1  0.0000000  0.6508444  3
   6895   6893   6912   6902     1  0.0000000  1.2552000  3
   6895   6893   6892   6899     1  0.0000000  1.0460000  1
   6895   6893   6892   6899     1  0.0000000  0.0000000  3
   6895   6893   6892   6896     1  0.0000000  0.6508444  3
   6896   6892   6893   6912     1  0.0000000  0.6508444  3
   6896   6892   6899   6901     1  0.0000000  0.6973333  3
   6896   6892   6890   6910     1  0.0000000  1.0460000  1
   6896   6892   6890   6910     1  0.0000000  0.0000000  3
   6896   6892   6890   6909     1  0.0000000  0.6508444  3
   6897   6894   6898   6908     1  0.0000000  0.6973333  3
   6897   6894   6893   6912     1  0.0000000  0.6508444  3
   6899   6892   6890   6909     1  0.0000000  1.0460000  1
   6899   6892   6890   6909     1  0.0000000  0.0000000  3
   6900   6889   6890   6909     1  0.0000000  0.6508444  3
   6903   6900   6905   6906     1  0.0000000  0.6973333  3
   6903   6900   6889   6907     1  0.0000000  1.0460000  1
   6903   6900   6889   6907     1  0.0000000  0.0000000  3
   6904   6900   6905   6906     1  0.0000000  0.6973333  3
   6904   6900   6889   6907     1  0.0000000  1.0460000  1
   6904   6900   6889   6907     1  0.0000000  0.0000000  3
   6907   6894   6898   6908     1  0.0000000  0.6973333  3
   6907   6889   6890   6909     1  0.0000000  1.0460000  1
   6907   6889   6890   6909     1  0.0000000  0.0000000  3
   6909   6890   6910   6911     1  0.0000000  0.6973333  3
   6913   6914   6916   6920     1  0.0000000  0.6508444  3
   6913   6914   6934   6935     1  0.0000000  1.0460000  1
   6913   6914   6934   6935     1  0.0000000  0.6694400  3
   6913   6924   6929   6930     1  0.0000000  1.0460000  1
   6913   6924   6929   6930     1  0.0000000  0.6694400  3
   6913   6931   6918   6921     1  0.0000000  1.6038667  3
   6914   6916   6917   6919     1  0.0000000  0.6508444  3
   6914   6916   6923   6925     1  0.0000000  1.0460000  1
   6914   6916   6923   6925     1  0.0000000  0.6694400  3
   6914   6913   6924   6927     1  0.0000000  0.6508444  3
   6914   6913   6924   6928     1  0.0000000  0.6508444  3
   6915   6913   6914   6916     1  0.0000000  0.6508444  3
   6915   6913   6914   6934     1  0.0000000  1.0460000  1
   6915   6913   6914   6934     1  0.0000000  0.0000000  3
   6915   6913   6914   6933     1  0.0000000  0.6508444  3
   6915   6913   6924   6929     1  0.0000000  1.0460000  1
   6915   6913   6924   6929     1  0.0000000  0.0000000  3
   6915   6913   6924   6927     1  0.0000000  0.6508444  3
   6915   6913   6924   6928     1  0.0000000  0.6508444  3
   6915   6913   6931   6918     1  0.0000000  1.6038667  3
   6916   6917   6918   6921     1  0.0000000  0.6508444  3
   6916   6917   6936   6926     1  0.0000000  1.2552000  3
   6916   6914   6934   6935     1  0.0000000  1.0460000  1
   6916   6914   6934   6935     1  0.0000000  0.6694400  3
   6917   6918   6922   6932     1  0.0000000  1.0460000  1
   6917   6918   6922   6932     1  0.0000000  0.6694400  3
   6917   6916   6923   6925     1  0.0000000  1.0460000  1
   6917   6916   6923   6925     1  0.0000000  0.6694400  3
   6917   6916   6914   6933     1  0.0000000  0.6508444  3
   6918   6917   6936   6926     1  0.0000000  1.2552000  3
   6918   6917   6916   6920     1  0.0000000  0.6508444  3
   6919   6917   6918   6922     1  0.0000000  1.0460000  1
   6919   6917   6918   6922     1  0.0000000  0.0000000  3
   6919   6917   6918   6931     1  0.0000000  1.0460000  1
   6919   6917   6918   6931     1  0.0000000  0.0000000  3
   6919   6917   6918   6921     1  0.0000000  0.6508444  3
   6919   6917   6936   6926     1  0.0000000  1.2552000  3
   6919   6917   6916   6923     1  0.0000000  1.0460000  1
   6919   6917   6916   6923     1  0.0000000  0.0000000  3
   6919   6917   6916   6920     1  0.0000000  0.6508444  3
   6920   6916   6917   6936     1  0.0000000  0.6508444  3
   6920   6916   6923   6925     1  0.0000000  0.6973333  3
   6920   6916   6914   6934     1  0.0000000  1.0460000  1
   6920   6916   6914   6934     1  0.0000000  0.0000000  3
   6920   6916   6914   6933     1  0.0000000  0.6508444  3
   6921   6918   6922   6932     1  0.0000000  0.6973333  3
   6921   6918   6917   6936     1  0.0000000  0.6508444  3
   6923   6916   6914   6933     1  0.0000000  1.0460000  1
   6923   6916   6914   6933     1  0.0000000  0.0000000  3
   6924   6913   6914   6933     1  0.0000000  0.6508444  3
   6927   6924   6929   6930     1  0.0000000  0.6973333  3
   6927   6924   6913   6931     1  0.0000000  1.0460000  1
   6927   6924   6913   6931     1  0.0000000  0.0000000  3
   6928   6924   6929   6930     1  0.0000000  0.6973333  3
   6928   6924   6913   6931     1  0.0000000  1.0460000  1
   6928   6924   6913   6931     1  0.0000000  0.0000000  3
   6931   6918   6922   6932     1  0.0000000  0.6973333  3
   6931   6913   6914   6933     1  0.0000000  1.0460000  1
   6931   6913   6914   6933     1  0.0000000  0.0000000  3
   6933   6914   6934   6935     1  0.0000000  0.6973333  3
   6937   6939   6941   6943     1  0.0000000  0.6508444  3
   6937   6939   6941   6944     1  0.0000000  0.6508444  3
   6938   6937   6939   6941     1  0.0000000  0.0000000  2
   6938   6937   6939   6940     1  0.0000000  0.0000000  2
   6938   6937   6939   6942     1  0.0000000  0.0000000  2
   6940   6939   6941   6945     1  0.0000000  0.6508444  3
   6940   6939   6941   6943     1  0.0000000  0.6508444  3
   6940   6939   6941   6944     1  0.0000000  0.6508444  3
   6941   6945   6946   6955     1  0.0000000  1.2552000  3
   6941   6945   6946   6956     1  0.0000000  1.2552000  3
   6941   6945   6947   6948     1  0.0000000  1.2552000  3
   6941   6945   6947   6950     1  0.0000000  1.2552000  3
   6942   6939   6941   6945     1  0.0000000  0.6508444  3
   6942   6939   6941   6943     1  0.0000000  0.6508444  3
   6942   6939   6941   6944     1  0.0000000  0.6508444  3
   6943   6941   6945   6946     1  0.0000000  1.2552000  3
   6943   6941   6945   6947     1  0.0000000  1.2552000  3
   6944   6941   6945   6946     1  0.0000000  1.2552000  3
   6944   6941   6945   6947     1  0.0000000  1.2552000  3
   6945   6946   6957   6958     1  0.0000000  0.6508444  3
   6945   6946   6957   6959     1  0.0000000  0.6508444  3
   6945   6947   6949   6951     1  0.0000000  0.6508444  3
   6945   6947   6949   6952     1  0.0000000  0.6508444  3
   6946   6945   6947   6948     1  0.0000000  1.2552000  3
   6946   6945   6947   6950     1  0.0000000  1.2552000  3
   6947   6945   6946   6955     1  0.0000000  1.2552000  3
   6947   6945   6946   6956     1  0.0000000  1.2552000  3
   6948   6947   6949   6953     1  0.0000000  0.6508444  3
   6948   6947   6949   6951     1  0.0000000  0.6508444  3
   6948   6947   6949   6952     1  0.0000000  0.6508444  3
   6949   6953   6985   6975     1  180.0000771  6.0668000  2
   6949   6953   6985   6975     1  180.0000771  1.4644000  4
   6950   6947   6949   6953     1  0.0000000  0.6508444  3
   6950   6947   6949   6951     1  0.0000000  0.6508444  3
   6950   6947   6949   6952     1  0.0000000  0.6508444  3
   6951   6949   6953   6954     1  0.0000000  3.3472000  1
   6951   6949   6953   6954     1  0.0000000  0.0000000  2
   6951   6949   6953   6954     1  180.0000771  0.3347200  3
   6951   6949   6953   6985     1  180.0000771  0.0000000  2
   6952   6949   6953   6954     1  0.0000000  3.3472000  1
   6952   6949   6953   6954     1  0.0000000  0.0000000  2
   6952   6949   6953   6954     1  180.0000771  0.3347200  3
   6952   6949   6953   6985     1  180.0000771  0.0000000  2
   6953   6985   6966   6968     1  0.0000000  1.2552000  3
   6954   6953   6985   6975     1  180.0000771  6.0668000  2
   6954   6953   6985   6975     1  180.0000771  1.4644000  4
   6955   6946   6957   6960     1  0.0000000  0.6508444  3
   6955   6946   6957   6958     1  0.0000000  0.6508444  3
   6955   6946   6957   6959     1  0.0000000  0.6508444  3
   6956   6946   6957   6960     1  0.0000000  0.6508444  3
   6956   6946   6957   6958     1  0.0000000  0.6508444  3
   6956   6946   6957   6959     1  0.0000000  0.6508444  3
   6957   6960   7009   6999     1  180.0000771  6.0668000  2
   6957   6960   7009   6999     1  180.0000771  1.4644000  4
   6958   6957   6960   6961     1  0.0000000  3.3472000  1
   6958   6957   6960   6961     1  0.0000000  0.0000000  2
   6958   6957   6960   6961     1  180.0000771  0.3347200  3
   6958   6957   6960   7009     1  180.0000771  0.0000000  2
   6959   6957   6960   6961     1  0.0000000  3.3472000  1
   6959   6957   6960   6961     1  0.0000000  0.0000000  2
   6959   6957   6960   6961     1  180.0000771  0.3347200  3
   6959   6957   6960   7009     1  180.0000771  0.0000000  2
   6960   7009   6990   6992     1  0.0000000  1.2552000  3
   6961   6960   7009   6999     1  180.0000771  6.0668000  2
   6961   6960   7009   6999     1  180.0000771  1.4644000  4
   6962   6963   6965   6969     1  0.0000000  0.6508444  3
   6962   6963   6983   6984     1  0.0000000  1.0460000  1
   6962   6963   6983   6984     1  0.0000000  0.6694400  3
   6962   6973   6978   6979     1  0.0000000  1.0460000  1
   6962   6973   6978   6979     1  0.0000000  0.6694400  3
   6962   6980   6967   6970     1  0.0000000  1.6038667  3
   6963   6962   6973   6976     1  0.0000000  0.6508444  3
   6963   6962   6973   6977     1  0.0000000  0.6508444  3
   6963   6965   6966   6968     1  0.0000000  0.6508444  3
   6963   6965   6972   6974     1  0.0000000  1.0460000  1
   6963   6965   6972   6974     1  0.0000000  0.6694400  3
   6964   6962   6963   6965     1  0.0000000  0.6508444  3
   6964   6962   6963   6983     1  0.0000000  1.0460000  1
   6964   6962   6963   6983     1  0.0000000  0.0000000  3
   6964   6962   6963   6982     1  0.0000000  0.6508444  3
   6964   6962   6973   6978     1  0.0000000  1.0460000  1
   6964   6962   6973   6978     1  0.0000000  0.0000000  3
   6964   6962   6973   6976     1  0.0000000  0.6508444  3
   6964   6962   6973   6977     1  0.0000000  0.6508444  3
   6964   6962   6980   6967     1  0.0000000  1.6038667  3
   6965   6963   6983   6984     1  0.0000000  1.0460000  1
   6965   6963   6983   6984     1  0.0000000  0.6694400  3
   6965   6966   6967   6970     1  0.0000000  0.6508444  3
   6965   6966   6985   6975     1  0.0000000  1.2552000  3
   6966   6965   6963   6982     1  0.0000000  0.6508444  3
   6966   6965   6972   6974     1  0.0000000  1.0460000  1
   6966   6965   6972   6974     1  0.0000000  0.6694400  3
   6966   6967   6971   6981     1  0.0000000  1.0460000  1
   6966   6967   6971   6981     1  0.0000000  0.6694400  3
   6967   6966   6965   6969     1  0.0000000  0.6508444  3
   6967   6966   6985   6975     1  0.0000000  1.2552000  3
   6968   6966   6965   6972     1  0.0000000  1.0460000  1
   6968   6966   6965   6972     1  0.0000000  0.0000000  3
   6968   6966   6965   6969     1  0.0000000  0.6508444  3
   6968   6966   6967   6971     1  0.0000000  1.0460000  1
   6968   6966   6967   6971     1  0.0000000  0.0000000  3
   6968   6966   6967   6980     1  0.0000000  1.0460000  1
   6968   6966   6967   6980     1  0.0000000  0.0000000  3
   6968   6966   6967   6970     1  0.0000000  0.6508444  3
   6968   6966   6985   6975     1  0.0000000  1.2552000  3
   6969   6965   6963   6983     1  0.0000000  1.0460000  1
   6969   6965   6963   6983     1  0.0000000  0.0000000  3
   6969   6965   6963   6982     1  0.0000000  0.6508444  3
   6969   6965   6966   6985     1  0.0000000  0.6508444  3
   6969   6965   6972   6974     1  0.0000000  0.6973333  3
   6970   6967   6966   6985     1  0.0000000  0.6508444  3
   6970   6967   6971   6981     1  0.0000000  0.6973333  3
   6972   6965   6963   6982     1  0.0000000  1.0460000  1
   6972   6965   6963   6982     1  0.0000000  0.0000000  3
   6973   6962   6963   6982     1  0.0000000  0.6508444  3
   6976   6973   6962   6980     1  0.0000000  1.0460000  1
   6976   6973   6962   6980     1  0.0000000  0.0000000  3
   6976   6973   6978   6979     1  0.0000000  0.6973333  3
   6977   6973   6962   6980     1  0.0000000  1.0460000  1
   6977   6973   6962   6980     1  0.0000000  0.0000000  3
   6977   6973   6978   6979     1  0.0000000  0.6973333  3
   6980   6962   6963   6982     1  0.0000000  1.0460000  1
   6980   6962   6963   6982     1  0.0000000  0.0000000  3
   6980   6967   6971   6981     1  0.0000000  0.6973333  3
   6982   6963   6983   6984     1  0.0000000  0.6973333  3
   6986   6987   6989   6993     1  0.0000000  0.6508444  3
   6986   6987   7007   7008     1  0.0000000  1.0460000  1
   6986   6987   7007   7008     1  0.0000000  0.6694400  3
   6986   6997   7002   7003     1  0.0000000  1.0460000  1
   6986   6997   7002   7003     1  0.0000000  0.6694400  3
   6986   7004   6991   6994     1  0.0000000  1.6038667  3
   6987   6986   6997   7000     1  0.0000000  0.6508444  3
   6987   6986   6997   7001     1  0.0000000  0.6508444  3
   6987   6989   6990   6992     1  0.0000000  0.6508444  3
   6987   6989   6996   6998     1  0.0000000  1.0460000  1
   6987   6989   6996   6998     1  0.0000000  0.6694400  3
   6988   6986   6987   6989     1  0.0000000  0.6508444  3
   6988   6986   6987   7007     1  0.0000000  1.0460000  1
   6988   6986   6987   7007     1  0.0000000  0.0000000  3
   6988   6986   6987   7006     1  0.0000000  0.6508444  3
   6988   6986   6997   7002     1  0.0000000  1.0460000  1
   6988   6986   6997   7002     1  0.0000000  0.0000000  3
   6988   6986   6997   7000     1  0.0000000  0.6508444  3
   6988   6986   6997   7001     1  0.0000000  0.6508444  3
   6988   6986   7004   6991     1  0.0000000  1.6038667  3
   6989   6987   7007   7008     1  0.0000000  1.0460000  1
   6989   6987   7007   7008     1  0.0000000  0.6694400  3
   6989   6990   6991   6994     1  0.0000000  0.6508444  3
   6989   6990   7009   6999     1  0.0000000  1.2552000  3
   6990   6989   6987   7006     1  0.0000000  0.6508444  3
   6990   6989   6996   6998     1  0.0000000  1.0460000  1
   6990   6989   6996   6998     1  0.0000000  0.6694400  3
   6990   6991   6995   7005     1  0.0000000  1.0460000  1
   6990   6991   6995   7005     1  0.0000000  0.6694400  3
   6991   6990   6989   6993     1  0.0000000  0.6508444  3
   6991   6990   7009   6999     1  0.0000000  1.2552000  3
   6992   6990   6989   6996     1  0.0000000  1.0460000  1
   6992   6990   6989   6996     1  0.0000000  0.0000000  3
   6992   6990   6989   6993     1  0.0000000  0.6508444  3
   6992   6990   6991   6995     1  0.0000000  1.0460000  1
   6992   6990   6991   6995     1  0.0000000  0.0000000  3
   6992   6990   6991   7004     1  0.0000000  1.0460000  1
   6992   6990   6991   7004     1  0.0000000  0.0000000  3
   6992   6990   6991   6994     1  0.0000000  0.6508444  3
   6992   6990   7009   6999     1  0.0000000  1.2552000  3
   6993   6989   6987   7007     1  0.0000000  1.0460000  1
   6993   6989   6987   7007     1  0.0000000  0.0000000  3
   6993   6989   6987   7006     1  0.0000000  0.6508444  3
   6993   6989   6990   7009     1  0.0000000  0.6508444  3
   6993   6989   6996   6998     1  0.0000000  0.6973333  3
   6994   6991   6990   7009     1  0.0000000  0.6508444  3
   6994   6991   6995   7005     1  0.0000000  0.6973333  3
   6996   6989   6987   7006     1  0.0000000  1.0460000  1
   6996   6989   6987   7006     1  0.0000000  0.0000000  3
   6997   6986   6987   7006     1  0.0000000  0.6508444  3
   7000   6997   6986   7004     1  0.0000000  1.0460000  1
   7000   6997   6986   7004     1  0.0000000  0.0000000  3
   7000   6997   7002   7003     1  0.0000000  0.6973333  3
   7001   6997   6986   7004     1  0.0000000  1.0460000  1
   7001   6997   6986   7004     1  0.0000000  0.0000000  3
   7001   6997   7002   7003     1  0.0000000  0.6973333  3
   7004   6986   6987   7006     1  0.0000000  1.0460000  1
   7004   6986   6987   7006     1  0.0000000  0.0000000  3
   7004   6991   6995   7005     1  0.0000000  0.6973333  3
   7006   6987   7007   7008     1  0.0000000  0.6973333  3
   7010   7012   7014   7016     1  0.0000000  0.6508444  3
   7010   7012   7014   7017     1  0.0000000  0.6508444  3
   7011   7010   7012   7014     1  0.0000000  0.0000000  2
   7011   7010   7012   7013     1  0.0000000  0.0000000  2
   7011   7010   7012   7015     1  0.0000000  0.0000000  2
   7013   7012   7014   7018     1  0.0000000  0.6508444  3
   7013   7012   7014   7016     1  0.0000000  0.6508444  3
   7013   7012   7014   7017     1  0.0000000  0.6508444  3
   7014   7018   7019   7028     1  0.0000000  1.2552000  3
   7014   7018   7019   7029     1  0.0000000  1.2552000  3
   7014   7018   7020   7021     1  0.0000000  1.2552000  3
   7014   7018   7020   7023     1  0.0000000  1.2552000  3
   7015   7012   7014   7018     1  0.0000000  0.6508444  3
   7015   7012   7014   7016     1  0.0000000  0.6508444  3
   7015   7012   7014   7017     1  0.0000000  0.6508444  3
   7016   7014   7018   7019     1  0.0000000  1.2552000  3
   7016   7014   7018   7020     1  0.0000000  1.2552000  3
   7017   7014   7018   7019     1  0.0000000  1.2552000  3
   7017   7014   7018   7020     1  0.0000000  1.2552000  3
   7018   7019   7030   7031     1  0.0000000  0.6508444  3
   7018   7019   7030   7032     1  0.0000000  0.6508444  3
   7018   7020   7022   7024     1  0.0000000  0.6508444  3
   7018   7020   7022   7025     1  0.0000000  0.6508444  3
   7019   7018   7020   7021     1  0.0000000  1.2552000  3
   7019   7018   7020   7023     1  0.0000000  1.2552000  3
   7020   7018   7019   7028     1  0.0000000  1.2552000  3
   7020   7018   7019   7029     1  0.0000000  1.2552000  3
   7021   7020   7022   7026     1  0.0000000  0.6508444  3
   7021   7020   7022   7024     1  0.0000000  0.6508444  3
   7021   7020   7022   7025     1  0.0000000  0.6508444  3
   7022   7026   7058   7048     1  180.0000771  6.0668000  2
   7022   7026   7058   7048     1  180.0000771  1.4644000  4
   7023   7020   7022   7026     1  0.0000000  0.6508444  3
   7023   7020   7022   7024     1  0.0000000  0.6508444  3
   7023   7020   7022   7025     1  0.0000000  0.6508444  3
   7024   7022   7026   7027     1  0.0000000  3.3472000  1
   7024   7022   7026   7027     1  0.0000000  0.0000000  2
   7024   7022   7026   7027     1  180.0000771  0.3347200  3
   7024   7022   7026   7058     1  180.0000771  0.0000000  2
   7025   7022   7026   7027     1  0.0000000  3.3472000  1
   7025   7022   7026   7027     1  0.0000000  0.0000000  2
   7025   7022   7026   7027     1  180.0000771  0.3347200  3
   7025   7022   7026   7058     1  180.0000771  0.0000000  2
   7026   7058   7039   7041     1  0.0000000  1.2552000  3
   7027   7026   7058   7048     1  180.0000771  6.0668000  2
   7027   7026   7058   7048     1  180.0000771  1.4644000  4
   7028   7019   7030   7033     1  0.0000000  0.6508444  3
   7028   7019   7030   7031     1  0.0000000  0.6508444  3
   7028   7019   7030   7032     1  0.0000000  0.6508444  3
   7029   7019   7030   7033     1  0.0000000  0.6508444  3
   7029   7019   7030   7031     1  0.0000000  0.6508444  3
   7029   7019   7030   7032     1  0.0000000  0.6508444  3
   7030   7033   7082   7072     1  180.0000771  6.0668000  2
   7030   7033   7082   7072     1  180.0000771  1.4644000  4
   7031   7030   7033   7034     1  0.0000000  3.3472000  1
   7031   7030   7033   7034     1  0.0000000  0.0000000  2
   7031   7030   7033   7034     1  180.0000771  0.3347200  3
   7031   7030   7033   7082     1  180.0000771  0.0000000  2
   7032   7030   7033   7034     1  0.0000000  3.3472000  1
   7032   7030   7033   7034     1  0.0000000  0.0000000  2
   7032   7030   7033   7034     1  180.0000771  0.3347200  3
   7032   7030   7033   7082     1  180.0000771  0.0000000  2
   7033   7082   7063   7065     1  0.0000000  1.2552000  3
   7034   7033   7082   7072     1  180.0000771  6.0668000  2
   7034   7033   7082   7072     1  180.0000771  1.4644000  4
   7035   7036   7038   7042     1  0.0000000  0.6508444  3
   7035   7036   7056   7057     1  0.0000000  1.0460000  1
   7035   7036   7056   7057     1  0.0000000  0.6694400  3
   7035   7046   7051   7052     1  0.0000000  1.0460000  1
   7035   7046   7051   7052     1  0.0000000  0.6694400  3
   7035   7053   7040   7043     1  0.0000000  1.6038667  3
   7036   7038   7039   7041     1  0.0000000  0.6508444  3
   7036   7038   7045   7047     1  0.0000000  1.0460000  1
   7036   7038   7045   7047     1  0.0000000  0.6694400  3
   7036   7035   7046   7049     1  0.0000000  0.6508444  3
   7036   7035   7046   7050     1  0.0000000  0.6508444  3
   7037   7035   7036   7038     1  0.0000000  0.6508444  3
   7037   7035   7036   7056     1  0.0000000  1.0460000  1
   7037   7035   7036   7056     1  0.0000000  0.0000000  3
   7037   7035   7036   7055     1  0.0000000  0.6508444  3
   7037   7035   7046   7051     1  0.0000000  1.0460000  1
   7037   7035   7046   7051     1  0.0000000  0.0000000  3
   7037   7035   7046   7049     1  0.0000000  0.6508444  3
   7037   7035   7046   7050     1  0.0000000  0.6508444  3
   7037   7035   7053   7040     1  0.0000000  1.6038667  3
   7038   7039   7040   7043     1  0.0000000  0.6508444  3
   7038   7039   7058   7048     1  0.0000000  1.2552000  3
   7038   7036   7056   7057     1  0.0000000  1.0460000  1
   7038   7036   7056   7057     1  0.0000000  0.6694400  3
   7039   7040   7044   7054     1  0.0000000  1.0460000  1
   7039   7040   7044   7054     1  0.0000000  0.6694400  3
   7039   7038   7045   7047     1  0.0000000  1.0460000  1
   7039   7038   7045   7047     1  0.0000000  0.6694400  3
   7039   7038   7036   7055     1  0.0000000  0.6508444  3
   7040   7039   7058   7048     1  0.0000000  1.2552000  3
   7040   7039   7038   7042     1  0.0000000  0.6508444  3
   7041   7039   7040   7044     1  0.0000000  1.0460000  1
   7041   7039   7040   7044     1  0.0000000  0.0000000  3
   7041   7039   7040   7053     1  0.0000000  1.0460000  1
   7041   7039   7040   7053     1  0.0000000  0.0000000  3
   7041   7039   7040   7043     1  0.0000000  0.6508444  3
   7041   7039   7058   7048     1  0.0000000  1.2552000  3
   7041   7039   7038   7045     1  0.0000000  1.0460000  1
   7041   7039   7038   7045     1  0.0000000  0.0000000  3
   7041   7039   7038   7042     1  0.0000000  0.6508444  3
   7042   7038   7039   7058     1  0.0000000  0.6508444  3
   7042   7038   7045   7047     1  0.0000000  0.6973333  3
   7042   7038   7036   7056     1  0.0000000  1.0460000  1
   7042   7038   7036   7056     1  0.0000000  0.0000000  3
   7042   7038   7036   7055     1  0.0000000  0.6508444  3
   7043   7040   7044   7054     1  0.0000000  0.6973333  3
   7043   7040   7039   7058     1  0.0000000  0.6508444  3
   7045   7038   7036   7055     1  0.0000000  1.0460000  1
   7045   7038   7036   7055     1  0.0000000  0.0000000  3
   7046   7035   7036   7055     1  0.0000000  0.6508444  3
   7049   7046   7051   7052     1  0.0000000  0.6973333  3
   7049   7046   7035   7053     1  0.0000000  1.0460000  1
   7049   7046   7035   7053     1  0.0000000  0.0000000  3
   7050   7046   7051   7052     1  0.0000000  0.6973333  3
   7050   7046   7035   7053     1  0.0000000  1.0460000  1
   7050   7046   7035   7053     1  0.0000000  0.0000000  3
   7053   7040   7044   7054     1  0.0000000  0.6973333  3
   7053   7035   7036   7055     1  0.0000000  1.0460000  1
   7053   7035   7036   7055     1  0.0000000  0.0000000  3
   7055   7036   7056   7057     1  0.0000000  0.6973333  3
   7059   7060   7062   7066     1  0.0000000  0.6508444  3
   7059   7060   7080   7081     1  0.0000000  1.0460000  1
   7059   7060   7080   7081     1  0.0000000  0.6694400  3
   7059   7070   7075   7076     1  0.0000000  1.0460000  1
   7059   7070   7075   7076     1  0.0000000  0.6694400  3
   7059   7077   7064   7067     1  0.0000000  1.6038667  3
   7060   7062   7063   7065     1  0.0000000  0.6508444  3
   7060   7062   7069   7071     1  0.0000000  1.0460000  1
   7060   7062   7069   7071     1  0.0000000  0.6694400  3
   7060   7059   7070   7073     1  0.0000000  0.6508444  3
   7060   7059   7070   7074     1  0.0000000  0.6508444  3
   7061   7059   7060   7062     1  0.0000000  0.6508444  3
   7061   7059   7060   7080     1  0.0000000  1.0460000  1
   7061   7059   7060   7080     1  0.0000000  0.0000000  3
   7061   7059   7060   7079     1  0.0000000  0.6508444  3
   7061   7059   7070   7075     1  0.0000000  1.0460000  1
   7061   7059   7070   7075     1  0.0000000  0.0000000  3
   7061   7059   7070   7073     1  0.0000000  0.6508444  3
   7061   7059   7070   7074     1  0.0000000  0.6508444  3
   7061   7059   7077   7064     1  0.0000000  1.6038667  3
   7062   7063   7064   7067     1  0.0000000  0.6508444  3
   7062   7063   7082   7072     1  0.0000000  1.2552000  3
   7062   7060   7080   7081     1  0.0000000  1.0460000  1
   7062   7060   7080   7081     1  0.0000000  0.6694400  3
   7063   7064   7068   7078     1  0.0000000  1.0460000  1
   7063   7064   7068   7078     1  0.0000000  0.6694400  3
   7063   7062   7069   7071     1  0.0000000  1.0460000  1
   7063   7062   7069   7071     1  0.0000000  0.6694400  3
   7063   7062   7060   7079     1  0.0000000  0.6508444  3
   7064   7063   7082   7072     1  0.0000000  1.2552000  3
   7064   7063   7062   7066     1  0.0000000  0.6508444  3
   7065   7063   7064   7068     1  0.0000000  1.0460000  1
   7065   7063   7064   7068     1  0.0000000  0.0000000  3
   7065   7063   7064   7077     1  0.0000000  1.0460000  1
   7065   7063   7064   7077     1  0.0000000  0.0000000  3
   7065   7063   7064   7067     1  0.0000000  0.6508444  3
   7065   7063   7082   7072     1  0.0000000  1.2552000  3
   7065   7063   7062   7069     1  0.0000000  1.0460000  1
   7065   7063   7062   7069     1  0.0000000  0.0000000  3
   7065   7063   7062   7066     1  0.0000000  0.6508444  3
   7066   7062   7063   7082     1  0.0000000  0.6508444  3
   7066   7062   7069   7071     1  0.0000000  0.6973333  3
   7066   7062   7060   7080     1  0.0000000  1.0460000  1
   7066   7062   7060   7080     1  0.0000000  0.0000000  3
   7066   7062   7060   7079     1  0.0000000  0.6508444  3
   7067   7064   7068   7078     1  0.0000000  0.6973333  3
   7067   7064   7063   7082     1  0.0000000  0.6508444  3
   7069   7062   7060   7079     1  0.0000000  1.0460000  1
   7069   7062   7060   7079     1  0.0000000  0.0000000  3
   7070   7059   7060   7079     1  0.0000000  0.6508444  3
   7073   7070   7075   7076     1  0.0000000  0.6973333  3
   7073   7070   7059   7077     1  0.0000000  1.0460000  1
   7073   7070   7059   7077     1  0.0000000  0.0000000  3
   7074   7070   7075   7076     1  0.0000000  0.6973333  3
   7074   7070   7059   7077     1  0.0000000  1.0460000  1
   7074   7070   7059   7077     1  0.0000000  0.0000000  3
   7077   7064   7068   7078     1  0.0000000  0.6973333  3
   7077   7059   7060   7079     1  0.0000000  1.0460000  1
   7077   7059   7060   7079     1  0.0000000  0.0000000  3
   7079   7060   7080   7081     1  0.0000000  0.6973333  3
   7083   7085   7087   7089     1  0.0000000  0.6508444  3
   7083   7085   7087   7090     1  0.0000000  0.6508444  3
   7084   7083   7085   7087     1  0.0000000  0.0000000  2
   7084   7083   7085   7086     1  0.0000000  0.0000000  2
   7084   7083   7085   7088     1  0.0000000  0.0000000  2
   7086   7085   7087   7091     1  0.0000000  0.6508444  3
   7086   7085   7087   7089     1  0.0000000  0.6508444  3
   7086   7085   7087   7090     1  0.0000000  0.6508444  3
   7087   7091   7092   7101     1  0.0000000  1.2552000  3
   7087   7091   7092   7102     1  0.0000000  1.2552000  3
   7087   7091   7093   7094     1  0.0000000  1.2552000  3
   7087   7091   7093   7096     1  0.0000000  1.2552000  3
   7088   7085   7087   7091     1  0.0000000  0.6508444  3
   7088   7085   7087   7089     1  0.0000000  0.6508444  3
   7088   7085   7087   7090     1  0.0000000  0.6508444  3
   7089   7087   7091   7092     1  0.0000000  1.2552000  3
   7089   7087   7091   7093     1  0.0000000  1.2552000  3
   7090   7087   7091   7092     1  0.0000000  1.2552000  3
   7090   7087   7091   7093     1  0.0000000  1.2552000  3
   7091   7092   7103   7104     1  0.0000000  0.6508444  3
   7091   7092   7103   7105     1  0.0000000  0.6508444  3
   7091   7093   7095   7097     1  0.0000000  0.6508444  3
   7091   7093   7095   7098     1  0.0000000  0.6508444  3
   7092   7091   7093   7094     1  0.0000000  1.2552000  3
   7092   7091   7093   7096     1  0.0000000  1.2552000  3
   7093   7091   7092   7101     1  0.0000000  1.2552000  3
   7093   7091   7092   7102     1  0.0000000  1.2552000  3
   7094   7093   7095   7099     1  0.0000000  0.6508444  3
   7094   7093   7095   7097     1  0.0000000  0.6508444  3
   7094   7093   7095   7098     1  0.0000000  0.6508444  3
   7095   7099   7131   7121     1  180.0000771  6.0668000  2
   7095   7099   7131   7121     1  180.0000771  1.4644000  4
   7096   7093   7095   7099     1  0.0000000  0.6508444  3
   7096   7093   7095   7097     1  0.0000000  0.6508444  3
   7096   7093   7095   7098     1  0.0000000  0.6508444  3
   7097   7095   7099   7100     1  0.0000000  3.3472000  1
   7097   7095   7099   7100     1  0.0000000  0.0000000  2
   7097   7095   7099   7100     1  180.0000771  0.3347200  3
   7097   7095   7099   7131     1  180.0000771  0.0000000  2
   7098   7095   7099   7100     1  0.0000000  3.3472000  1
   7098   7095   7099   7100     1  0.0000000  0.0000000  2
   7098   7095   7099   7100     1  180.0000771  0.3347200  3
   7098   7095   7099   7131     1  180.0000771  0.0000000  2
   7099   7131   7112   7114     1  0.0000000  1.2552000  3
   7100   7099   7131   7121     1  180.0000771  6.0668000  2
   7100   7099   7131   7121     1  180.0000771  1.4644000  4
   7101   7092   7103   7106     1  0.0000000  0.6508444  3
   7101   7092   7103   7104     1  0.0000000  0.6508444  3
   7101   7092   7103   7105     1  0.0000000  0.6508444  3
   7102   7092   7103   7106     1  0.0000000  0.6508444  3
   7102   7092   7103   7104     1  0.0000000  0.6508444  3
   7102   7092   7103   7105     1  0.0000000  0.6508444  3
   7103   7106   7155   7145     1  180.0000771  6.0668000  2
   7103   7106   7155   7145     1  180.0000771  1.4644000  4
   7104   7103   7106   7107     1  0.0000000  3.3472000  1
   7104   7103   7106   7107     1  0.0000000  0.0000000  2
   7104   7103   7106   7107     1  180.0000771  0.3347200  3
   7104   7103   7106   7155     1  180.0000771  0.0000000  2
   7105   7103   7106   7107     1  0.0000000  3.3472000  1
   7105   7103   7106   7107     1  0.0000000  0.0000000  2
   7105   7103   7106   7107     1  180.0000771  0.3347200  3
   7105   7103   7106   7155     1  180.0000771  0.0000000  2
   7106   7155   7136   7138     1  0.0000000  1.2552000  3
   7107   7106   7155   7145     1  180.0000771  6.0668000  2
   7107   7106   7155   7145     1  180.0000771  1.4644000  4
   7108   7109   7111   7115     1  0.0000000  0.6508444  3
   7108   7109   7129   7130     1  0.0000000  1.0460000  1
   7108   7109   7129   7130     1  0.0000000  0.6694400  3
   7108   7119   7124   7125     1  0.0000000  1.0460000  1
   7108   7119   7124   7125     1  0.0000000  0.6694400  3
   7108   7126   7113   7116     1  0.0000000  1.6038667  3
   7109   7108   7119   7122     1  0.0000000  0.6508444  3
   7109   7108   7119   7123     1  0.0000000  0.6508444  3
   7109   7111   7112   7114     1  0.0000000  0.6508444  3
   7109   7111   7118   7120     1  0.0000000  1.0460000  1
   7109   7111   7118   7120     1  0.0000000  0.6694400  3
   7110   7108   7109   7111     1  0.0000000  0.6508444  3
   7110   7108   7109   7129     1  0.0000000  1.0460000  1
   7110   7108   7109   7129     1  0.0000000  0.0000000  3
   7110   7108   7109   7128     1  0.0000000  0.6508444  3
   7110   7108   7119   7124     1  0.0000000  1.0460000  1
   7110   7108   7119   7124     1  0.0000000  0.0000000  3
   7110   7108   7119   7122     1  0.0000000  0.6508444  3
   7110   7108   7119   7123     1  0.0000000  0.6508444  3
   7110   7108   7126   7113     1  0.0000000  1.6038667  3
   7111   7109   7129   7130     1  0.0000000  1.0460000  1
   7111   7109   7129   7130     1  0.0000000  0.6694400  3
   7111   7112   7113   7116     1  0.0000000  0.6508444  3
   7111   7112   7131   7121     1  0.0000000  1.2552000  3
   7112   7111   7109   7128     1  0.0000000  0.6508444  3
   7112   7111   7118   7120     1  0.0000000  1.0460000  1
   7112   7111   7118   7120     1  0.0000000  0.6694400  3
   7112   7113   7117   7127     1  0.0000000  1.0460000  1
   7112   7113   7117   7127     1  0.0000000  0.6694400  3
   7113   7112   7111   7115     1  0.0000000  0.6508444  3
   7113   7112   7131   7121     1  0.0000000  1.2552000  3
   7114   7112   7111   7118     1  0.0000000  1.0460000  1
   7114   7112   7111   7118     1  0.0000000  0.0000000  3
   7114   7112   7111   7115     1  0.0000000  0.6508444  3
   7114   7112   7113   7117     1  0.0000000  1.0460000  1
   7114   7112   7113   7117     1  0.0000000  0.0000000  3
   7114   7112   7113   7126     1  0.0000000  1.0460000  1
   7114   7112   7113   7126     1  0.0000000  0.0000000  3
   7114   7112   7113   7116     1  0.0000000  0.6508444  3
   7114   7112   7131   7121     1  0.0000000  1.2552000  3
   7115   7111   7109   7129     1  0.0000000  1.0460000  1
   7115   7111   7109   7129     1  0.0000000  0.0000000  3
   7115   7111   7109   7128     1  0.0000000  0.6508444  3
   7115   7111   7112   7131     1  0.0000000  0.6508444  3
   7115   7111   7118   7120     1  0.0000000  0.6973333  3
   7116   7113   7112   7131     1  0.0000000  0.6508444  3
   7116   7113   7117   7127     1  0.0000000  0.6973333  3
   7118   7111   7109   7128     1  0.0000000  1.0460000  1
   7118   7111   7109   7128     1  0.0000000  0.0000000  3
   7119   7108   7109   7128     1  0.0000000  0.6508444  3
   7122   7119   7108   7126     1  0.0000000  1.0460000  1
   7122   7119   7108   7126     1  0.0000000  0.0000000  3
   7122   7119   7124   7125     1  0.0000000  0.6973333  3
   7123   7119   7108   7126     1  0.0000000  1.0460000  1
   7123   7119   7108   7126     1  0.0000000  0.0000000  3
   7123   7119   7124   7125     1  0.0000000  0.6973333  3
   7126   7108   7109   7128     1  0.0000000  1.0460000  1
   7126   7108   7109   7128     1  0.0000000  0.0000000  3
   7126   7113   7117   7127     1  0.0000000  0.6973333  3
   7128   7109   7129   7130     1  0.0000000  0.6973333  3
   7132   7133   7135   7139     1  0.0000000  0.6508444  3
   7132   7133   7153   7154     1  0.0000000  1.0460000  1
   7132   7133   7153   7154     1  0.0000000  0.6694400  3
   7132   7143   7148   7149     1  0.0000000  1.0460000  1
   7132   7143   7148   7149     1  0.0000000  0.6694400  3
   7132   7150   7137   7140     1  0.0000000  1.6038667  3
   7133   7132   7143   7146     1  0.0000000  0.6508444  3
   7133   7132   7143   7147     1  0.0000000  0.6508444  3
   7133   7135   7136   7138     1  0.0000000  0.6508444  3
   7133   7135   7142   7144     1  0.0000000  1.0460000  1
   7133   7135   7142   7144     1  0.0000000  0.6694400  3
   7134   7132   7133   7135     1  0.0000000  0.6508444  3
   7134   7132   7133   7153     1  0.0000000  1.0460000  1
   7134   7132   7133   7153     1  0.0000000  0.0000000  3
   7134   7132   7133   7152     1  0.0000000  0.6508444  3
   7134   7132   7143   7148     1  0.0000000  1.0460000  1
   7134   7132   7143   7148     1  0.0000000  0.0000000  3
   7134   7132   7143   7146     1  0.0000000  0.6508444  3
   7134   7132   7143   7147     1  0.0000000  0.6508444  3
   7134   7132   7150   7137     1  0.0000000  1.6038667  3
   7135   7133   7153   7154     1  0.0000000  1.0460000  1
   7135   7133   7153   7154     1  0.0000000  0.6694400  3
   7135   7136   7137   7140     1  0.0000000  0.6508444  3
   7135   7136   7155   7145     1  0.0000000  1.2552000  3
   7136   7135   7133   7152     1  0.0000000  0.6508444  3
   7136   7135   7142   7144     1  0.0000000  1.0460000  1
   7136   7135   7142   7144     1  0.0000000  0.6694400  3
   7136   7137   7141   7151     1  0.0000000  1.0460000  1
   7136   7137   7141   7151     1  0.0000000  0.6694400  3
   7137   7136   7135   7139     1  0.0000000  0.6508444  3
   7137   7136   7155   7145     1  0.0000000  1.2552000  3
   7138   7136   7135   7142     1  0.0000000  1.0460000  1
   7138   7136   7135   7142     1  0.0000000  0.0000000  3
   7138   7136   7135   7139     1  0.0000000  0.6508444  3
   7138   7136   7137   7141     1  0.0000000  1.0460000  1
   7138   7136   7137   7141     1  0.0000000  0.0000000  3
   7138   7136   7137   7150     1  0.0000000  1.0460000  1
   7138   7136   7137   7150     1  0.0000000  0.0000000  3
   7138   7136   7137   7140     1  0.0000000  0.6508444  3
   7138   7136   7155   7145     1  0.0000000  1.2552000  3
   7139   7135   7133   7153     1  0.0000000  1.0460000  1
   7139   7135   7133   7153     1  0.0000000  0.0000000  3
   7139   7135   7133   7152     1  0.0000000  0.6508444  3
   7139   7135   7136   7155     1  0.0000000  0.6508444  3
   7139   7135   7142   7144     1  0.0000000  0.6973333  3
   7140   7137   7136   7155     1  0.0000000  0.6508444  3
   7140   7137   7141   7151     1  0.0000000  0.6973333  3
   7142   7135   7133   7152     1  0.0000000  1.0460000  1
   7142   7135   7133   7152     1  0.0000000  0.0000000  3
   7143   7132   7133   7152     1  0.0000000  0.6508444  3
   7146   7143   7132   7150     1  0.0000000  1.0460000  1
   7146   7143   7132   7150     1  0.0000000  0.0000000  3
   7146   7143   7148   7149     1  0.0000000  0.6973333  3
   7147   7143   7132   7150     1  0.0000000  1.0460000  1
   7147   7143   7132   7150     1  0.0000000  0.0000000  3
   7147   7143   7148   7149     1  0.0000000  0.6973333  3
   7150   7132   7133   7152     1  0.0000000  1.0460000  1
   7150   7132   7133   7152     1  0.0000000  0.0000000  3
   7150   7137   7141   7151     1  0.0000000  0.6973333  3
   7152   7133   7153   7154     1  0.0000000  0.6973333  3
   7156   7158   7160   7162     1  0.0000000  0.6508444  3
   7156   7158   7160   7163     1  0.0000000  0.6508444  3
   7157   7156   7158   7160     1  0.0000000  0.0000000  2
   7157   7156   7158   7159     1  0.0000000  0.0000000  2
   7157   7156   7158   7161     1  0.0000000  0.0000000  2
   7159   7158   7160   7164     1  0.0000000  0.6508444  3
   7159   7158   7160   7162     1  0.0000000  0.6508444  3
   7159   7158   7160   7163     1  0.0000000  0.6508444  3
   7160   7164   7165   7174     1  0.0000000  1.2552000  3
   7160   7164   7165   7175     1  0.0000000  1.2552000  3
   7160   7164   7166   7167     1  0.0000000  1.2552000  3
   7160   7164   7166   7169     1  0.0000000  1.2552000  3
   7161   7158   7160   7164     1  0.0000000  0.6508444  3
   7161   7158   7160   7162     1  0.0000000  0.6508444  3
   7161   7158   7160   7163     1  0.0000000  0.6508444  3
   7162   7160   7164   7165     1  0.0000000  1.2552000  3
   7162   7160   7164   7166     1  0.0000000  1.2552000  3
   7163   7160   7164   7165     1  0.0000000  1.2552000  3
   7163   7160   7164   7166     1  0.0000000  1.2552000  3
   7164   7165   7176   7177     1  0.0000000  0.6508444  3
   7164   7165   7176   7178     1  0.0000000  0.6508444  3
   7164   7166   7168   7170     1  0.0000000  0.6508444  3
   7164   7166   7168   7171     1  0.0000000  0.6508444  3
   7165   7164   7166   7167     1  0.0000000  1.2552000  3
   7165   7164   7166   7169     1  0.0000000  1.2552000  3
   7166   7164   7165   7174     1  0.0000000  1.2552000  3
   7166   7164   7165   7175     1  0.0000000  1.2552000  3
   7167   7166   7168   7172     1  0.0000000  0.6508444  3
   7167   7166   7168   7170     1  0.0000000  0.6508444  3
   7167   7166   7168   7171     1  0.0000000  0.6508444  3
   7168   7172   7204   7194     1  180.0000771  6.0668000  2
   7168   7172   7204   7194     1  180.0000771  1.4644000  4
   7169   7166   7168   7172     1  0.0000000  0.6508444  3
   7169   7166   7168   7170     1  0.0000000  0.6508444  3
   7169   7166   7168   7171     1  0.0000000  0.6508444  3
   7170   7168   7172   7173     1  0.0000000  3.3472000  1
   7170   7168   7172   7173     1  0.0000000  0.0000000  2
   7170   7168   7172   7173     1  180.0000771  0.3347200  3
   7170   7168   7172   7204     1  180.0000771  0.0000000  2
   7171   7168   7172   7173     1  0.0000000  3.3472000  1
   7171   7168   7172   7173     1  0.0000000  0.0000000  2
   7171   7168   7172   7173     1  180.0000771  0.3347200  3
   7171   7168   7172   7204     1  180.0000771  0.0000000  2
   7172   7204   7185   7187     1  0.0000000  1.2552000  3
   7173   7172   7204   7194     1  180.0000771  6.0668000  2
   7173   7172   7204   7194     1  180.0000771  1.4644000  4
   7174   7165   7176   7179     1  0.0000000  0.6508444  3
   7174   7165   7176   7177     1  0.0000000  0.6508444  3
   7174   7165   7176   7178     1  0.0000000  0.6508444  3
   7175   7165   7176   7179     1  0.0000000  0.6508444  3
   7175   7165   7176   7177     1  0.0000000  0.6508444  3
   7175   7165   7176   7178     1  0.0000000  0.6508444  3
   7176   7179   7228   7218     1  180.0000771  6.0668000  2
   7176   7179   7228   7218     1  180.0000771  1.4644000  4
   7177   7176   7179   7180     1  0.0000000  3.3472000  1
   7177   7176   7179   7180     1  0.0000000  0.0000000  2
   7177   7176   7179   7180     1  180.0000771  0.3347200  3
   7177   7176   7179   7228     1  180.0000771  0.0000000  2
   7178   7176   7179   7180     1  0.0000000  3.3472000  1
   7178   7176   7179   7180     1  0.0000000  0.0000000  2
   7178   7176   7179   7180     1  180.0000771  0.3347200  3
   7178   7176   7179   7228     1  180.0000771  0.0000000  2
   7179   7228   7209   7211     1  0.0000000  1.2552000  3
   7180   7179   7228   7218     1  180.0000771  6.0668000  2
   7180   7179   7228   7218     1  180.0000771  1.4644000  4
   7181   7182   7184   7188     1  0.0000000  0.6508444  3
   7181   7182   7202   7203     1  0.0000000  1.0460000  1
   7181   7182   7202   7203     1  0.0000000  0.6694400  3
   7181   7192   7197   7198     1  0.0000000  1.0460000  1
   7181   7192   7197   7198     1  0.0000000  0.6694400  3
   7181   7199   7186   7189     1  0.0000000  1.6038667  3
   7182   7184   7185   7187     1  0.0000000  0.6508444  3
   7182   7184   7191   7193     1  0.0000000  1.0460000  1
   7182   7184   7191   7193     1  0.0000000  0.6694400  3
   7182   7181   7192   7195     1  0.0000000  0.6508444  3
   7182   7181   7192   7196     1  0.0000000  0.6508444  3
   7183   7181   7182   7184     1  0.0000000  0.6508444  3
   7183   7181   7182   7202     1  0.0000000  1.0460000  1
   7183   7181   7182   7202     1  0.0000000  0.0000000  3
   7183   7181   7182   7201     1  0.0000000  0.6508444  3
   7183   7181   7192   7197     1  0.0000000  1.0460000  1
   7183   7181   7192   7197     1  0.0000000  0.0000000  3
   7183   7181   7192   7195     1  0.0000000  0.6508444  3
   7183   7181   7192   7196     1  0.0000000  0.6508444  3
   7183   7181   7199   7186     1  0.0000000  1.6038667  3
   7184   7185   7186   7189     1  0.0000000  0.6508444  3
   7184   7185   7204   7194     1  0.0000000  1.2552000  3
   7184   7182   7202   7203     1  0.0000000  1.0460000  1
   7184   7182   7202   7203     1  0.0000000  0.6694400  3
   7185   7186   7190   7200     1  0.0000000  1.0460000  1
   7185   7186   7190   7200     1  0.0000000  0.6694400  3
   7185   7184   7191   7193     1  0.0000000  1.0460000  1
   7185   7184   7191   7193     1  0.0000000  0.6694400  3
   7185   7184   7182   7201     1  0.0000000  0.6508444  3
   7186   7185   7204   7194     1  0.0000000  1.2552000  3
   7186   7185   7184   7188     1  0.0000000  0.6508444  3
   7187   7185   7186   7190     1  0.0000000  1.0460000  1
   7187   7185   7186   7190     1  0.0000000  0.0000000  3
   7187   7185   7186   7199     1  0.0000000  1.0460000  1
   7187   7185   7186   7199     1  0.0000000  0.0000000  3
   7187   7185   7186   7189     1  0.0000000  0.6508444  3
   7187   7185   7204   7194     1  0.0000000  1.2552000  3
   7187   7185   7184   7191     1  0.0000000  1.0460000  1
   7187   7185   7184   7191     1  0.0000000  0.0000000  3
   7187   7185   7184   7188     1  0.0000000  0.6508444  3
   7188   7184   7185   7204     1  0.0000000  0.6508444  3
   7188   7184   7191   7193     1  0.0000000  0.6973333  3
   7188   7184   7182   7202     1  0.0000000  1.0460000  1
   7188   7184   7182   7202     1  0.0000000  0.0000000  3
   7188   7184   7182   7201     1  0.0000000  0.6508444  3
   7189   7186   7190   7200     1  0.0000000  0.6973333  3
   7189   7186   7185   7204     1  0.0000000  0.6508444  3
   7191   7184   7182   7201     1  0.0000000  1.0460000  1
   7191   7184   7182   7201     1  0.0000000  0.0000000  3
   7192   7181   7182   7201     1  0.0000000  0.6508444  3
   7195   7192   7197   7198     1  0.0000000  0.6973333  3
   7195   7192   7181   7199     1  0.0000000  1.0460000  1
   7195   7192   7181   7199     1  0.0000000  0.0000000  3
   7196   7192   7197   7198     1  0.0000000  0.6973333  3
   7196   7192   7181   7199     1  0.0000000  1.0460000  1
   7196   7192   7181   7199     1  0.0000000  0.0000000  3
   7199   7186   7190   7200     1  0.0000000  0.6973333  3
   7199   7181   7182   7201     1  0.0000000  1.0460000  1
   7199   7181   7182   7201     1  0.0000000  0.0000000  3
   7201   7182   7202   7203     1  0.0000000  0.6973333  3
   7205   7206   7208   7212     1  0.0000000  0.6508444  3
   7205   7206   7226   7227     1  0.0000000  1.0460000  1
   7205   7206   7226   7227     1  0.0000000  0.6694400  3
   7205   7216   7221   7222     1  0.0000000  1.0460000  1
   7205   7216   7221   7222     1  0.0000000  0.6694400  3
   7205   7223   7210   7213     1  0.0000000  1.6038667  3
   7206   7208   7209   7211     1  0.0000000  0.6508444  3
   7206   7208   7215   7217     1  0.0000000  1.0460000  1
   7206   7208   7215   7217     1  0.0000000  0.6694400  3
   7206   7205   7216   7219     1  0.0000000  0.6508444  3
   7206   7205   7216   7220     1  0.0000000  0.6508444  3
   7207   7205   7206   7208     1  0.0000000  0.6508444  3
   7207   7205   7206   7226     1  0.0000000  1.0460000  1
   7207   7205   7206   7226     1  0.0000000  0.0000000  3
   7207   7205   7206   7225     1  0.0000000  0.6508444  3
   7207   7205   7216   7221     1  0.0000000  1.0460000  1
   7207   7205   7216   7221     1  0.0000000  0.0000000  3
   7207   7205   7216   7219     1  0.0000000  0.6508444  3
   7207   7205   7216   7220     1  0.0000000  0.6508444  3
   7207   7205   7223   7210     1  0.0000000  1.6038667  3
   7208   7209   7210   7213     1  0.0000000  0.6508444  3
   7208   7209   7228   7218     1  0.0000000  1.2552000  3
   7208   7206   7226   7227     1  0.0000000  1.0460000  1
   7208   7206   7226   7227     1  0.0000000  0.6694400  3
   7209   7210   7214   7224     1  0.0000000  1.0460000  1
   7209   7210   7214   7224     1  0.0000000  0.6694400  3
   7209   7208   7215   7217     1  0.0000000  1.0460000  1
   7209   7208   7215   7217     1  0.0000000  0.6694400  3
   7209   7208   7206   7225     1  0.0000000  0.6508444  3
   7210   7209   7228   7218     1  0.0000000  1.2552000  3
   7210   7209   7208   7212     1  0.0000000  0.6508444  3
   7211   7209   7210   7214     1  0.0000000  1.0460000  1
   7211   7209   7210   7214     1  0.0000000  0.0000000  3
   7211   7209   7210   7223     1  0.0000000  1.0460000  1
   7211   7209   7210   7223     1  0.0000000  0.0000000  3
   7211   7209   7210   7213     1  0.0000000  0.6508444  3
   7211   7209   7228   7218     1  0.0000000  1.2552000  3
   7211   7209   7208   7215     1  0.0000000  1.0460000  1
   7211   7209   7208   7215     1  0.0000000  0.0000000  3
   7211   7209   7208   7212     1  0.0000000  0.6508444  3
   7212   7208   7209   7228     1  0.0000000  0.6508444  3
   7212   7208   7215   7217     1  0.0000000  0.6973333  3
   7212   7208   7206   7226     1  0.0000000  1.0460000  1
   7212   7208   7206   7226     1  0.0000000  0.0000000  3
   7212   7208   7206   7225     1  0.0000000  0.6508444  3
   7213   7210   7214   7224     1  0.0000000  0.6973333  3
   7213   7210   7209   7228     1  0.0000000  0.6508444  3
   7215   7208   7206   7225     1  0.0000000  1.0460000  1
   7215   7208   7206   7225     1  0.0000000  0.0000000  3
   7216   7205   7206   7225     1  0.0000000  0.6508444  3
   7219   7216   7221   7222     1  0.0000000  0.6973333  3
   7219   7216   7205   7223     1  0.0000000  1.0460000  1
   7219   7216   7205   7223     1  0.0000000  0.0000000  3
   7220   7216   7221   7222     1  0.0000000  0.6973333  3
   7220   7216   7205   7223     1  0.0000000  1.0460000  1
   7220   7216   7205   7223     1  0.0000000  0.0000000  3
   7223   7210   7214   7224     1  0.0000000  0.6973333  3
   7223   7205   7206   7225     1  0.0000000  1.0460000  1
   7223   7205   7206   7225     1  0.0000000  0.0000000  3
   7225   7206   7226   7227     1  0.0000000  0.6973333  3
   7229   7231   7233   7235     1  0.0000000  0.6508444  3
   7229   7231   7233   7236     1  0.0000000  0.6508444  3
   7230   7229   7231   7233     1  0.0000000  0.0000000  2
   7230   7229   7231   7232     1  0.0000000  0.0000000  2
   7230   7229   7231   7234     1  0.0000000  0.0000000  2
   7232   7231   7233   7237     1  0.0000000  0.6508444  3
   7232   7231   7233   7235     1  0.0000000  0.6508444  3
   7232   7231   7233   7236     1  0.0000000  0.6508444  3
   7233   7237   7238   7247     1  0.0000000  1.2552000  3
   7233   7237   7238   7248     1  0.0000000  1.2552000  3
   7233   7237   7239   7240     1  0.0000000  1.2552000  3
   7233   7237   7239   7242     1  0.0000000  1.2552000  3
   7234   7231   7233   7237     1  0.0000000  0.6508444  3
   7234   7231   7233   7235     1  0.0000000  0.6508444  3
   7234   7231   7233   7236     1  0.0000000  0.6508444  3
   7235   7233   7237   7238     1  0.0000000  1.2552000  3
   7235   7233   7237   7239     1  0.0000000  1.2552000  3
   7236   7233   7237   7238     1  0.0000000  1.2552000  3
   7236   7233   7237   7239     1  0.0000000  1.2552000  3
   7237   7238   7249   7250     1  0.0000000  0.6508444  3
   7237   7238   7249   7251     1  0.0000000  0.6508444  3
   7237   7239   7241   7243     1  0.0000000  0.6508444  3
   7237   7239   7241   7244     1  0.0000000  0.6508444  3
   7238   7237   7239   7240     1  0.0000000  1.2552000  3
   7238   7237   7239   7242     1  0.0000000  1.2552000  3
   7239   7237   7238   7247     1  0.0000000  1.2552000  3
   7239   7237   7238   7248     1  0.0000000  1.2552000  3
   7240   7239   7241   7245     1  0.0000000  0.6508444  3
   7240   7239   7241   7243     1  0.0000000  0.6508444  3
   7240   7239   7241   7244     1  0.0000000  0.6508444  3
   7241   7245   7277   7267     1  180.0000771  6.0668000  2
   7241   7245   7277   7267     1  180.0000771  1.4644000  4
   7242   7239   7241   7245     1  0.0000000  0.6508444  3
   7242   7239   7241   7243     1  0.0000000  0.6508444  3
   7242   7239   7241   7244     1  0.0000000  0.6508444  3
   7243   7241   7245   7246     1  0.0000000  3.3472000  1
   7243   7241   7245   7246     1  0.0000000  0.0000000  2
   7243   7241   7245   7246     1  180.0000771  0.3347200  3
   7243   7241   7245   7277     1  180.0000771  0.0000000  2
   7244   7241   7245   7246     1  0.0000000  3.3472000  1
   7244   7241   7245   7246     1  0.0000000  0.0000000  2
   7244   7241   7245   7246     1  180.0000771  0.3347200  3
   7244   7241   7245   7277     1  180.0000771  0.0000000  2
   7245   7277   7258   7260     1  0.0000000  1.2552000  3
   7246   7245   7277   7267     1  180.0000771  6.0668000  2
   7246   7245   7277   7267     1  180.0000771  1.4644000  4
   7247   7238   7249   7252     1  0.0000000  0.6508444  3
   7247   7238   7249   7250     1  0.0000000  0.6508444  3
   7247   7238   7249   7251     1  0.0000000  0.6508444  3
   7248   7238   7249   7252     1  0.0000000  0.6508444  3
   7248   7238   7249   7250     1  0.0000000  0.6508444  3
   7248   7238   7249   7251     1  0.0000000  0.6508444  3
   7249   7252   7301   7291     1  180.0000771  6.0668000  2
   7249   7252   7301   7291     1  180.0000771  1.4644000  4
   7250   7249   7252   7253     1  0.0000000  3.3472000  1
   7250   7249   7252   7253     1  0.0000000  0.0000000  2
   7250   7249   7252   7253     1  180.0000771  0.3347200  3
   7250   7249   7252   7301     1  180.0000771  0.0000000  2
   7251   7249   7252   7253     1  0.0000000  3.3472000  1
   7251   7249   7252   7253     1  0.0000000  0.0000000  2
   7251   7249   7252   7253     1  180.0000771  0.3347200  3
   7251   7249   7252   7301     1  180.0000771  0.0000000  2
   7252   7301   7282   7284     1  0.0000000  1.2552000  3
   7253   7252   7301   7291     1  180.0000771  6.0668000  2
   7253   7252   7301   7291     1  180.0000771  1.4644000  4
   7254   7255   7257   7261     1  0.0000000  0.6508444  3
   7254   7255   7275   7276     1  0.0000000  1.0460000  1
   7254   7255   7275   7276     1  0.0000000  0.6694400  3
   7254   7265   7270   7271     1  0.0000000  1.0460000  1
   7254   7265   7270   7271     1  0.0000000  0.6694400  3
   7254   7272   7259   7262     1  0.0000000  1.6038667  3
   7255   7254   7265   7268     1  0.0000000  0.6508444  3
   7255   7254   7265   7269     1  0.0000000  0.6508444  3
   7255   7257   7258   7260     1  0.0000000  0.6508444  3
   7255   7257   7264   7266     1  0.0000000  1.0460000  1
   7255   7257   7264   7266     1  0.0000000  0.6694400  3
   7256   7254   7255   7257     1  0.0000000  0.6508444  3
   7256   7254   7255   7275     1  0.0000000  1.0460000  1
   7256   7254   7255   7275     1  0.0000000  0.0000000  3
   7256   7254   7255   7274     1  0.0000000  0.6508444  3
   7256   7254   7265   7270     1  0.0000000  1.0460000  1
   7256   7254   7265   7270     1  0.0000000  0.0000000  3
   7256   7254   7265   7268     1  0.0000000  0.6508444  3
   7256   7254   7265   7269     1  0.0000000  0.6508444  3
   7256   7254   7272   7259     1  0.0000000  1.6038667  3
   7257   7255   7275   7276     1  0.0000000  1.0460000  1
   7257   7255   7275   7276     1  0.0000000  0.6694400  3
   7257   7258   7259   7262     1  0.0000000  0.6508444  3
   7257   7258   7277   7267     1  0.0000000  1.2552000  3
   7258   7257   7255   7274     1  0.0000000  0.6508444  3
   7258   7257   7264   7266     1  0.0000000  1.0460000  1
   7258   7257   7264   7266     1  0.0000000  0.6694400  3
   7258   7259   7263   7273     1  0.0000000  1.0460000  1
   7258   7259   7263   7273     1  0.0000000  0.6694400  3
   7259   7258   7257   7261     1  0.0000000  0.6508444  3
   7259   7258   7277   7267     1  0.0000000  1.2552000  3
   7260   7258   7257   7264     1  0.0000000  1.0460000  1
   7260   7258   7257   7264     1  0.0000000  0.0000000  3
   7260   7258   7257   7261     1  0.0000000  0.6508444  3
   7260   7258   7259   7263     1  0.0000000  1.0460000  1
   7260   7258   7259   7263     1  0.0000000  0.0000000  3
   7260   7258   7259   7272     1  0.0000000  1.0460000  1
   7260   7258   7259   7272     1  0.0000000  0.0000000  3
   7260   7258   7259   7262     1  0.0000000  0.6508444  3
   7260   7258   7277   7267     1  0.0000000  1.2552000  3
   7261   7257   7255   7275     1  0.0000000  1.0460000  1
   7261   7257   7255   7275     1  0.0000000  0.0000000  3
   7261   7257   7255   7274     1  0.0000000  0.6508444  3
   7261   7257   7258   7277     1  0.0000000  0.6508444  3
   7261   7257   7264   7266     1  0.0000000  0.6973333  3
   7262   7259   7258   7277     1  0.0000000  0.6508444  3
   7262   7259   7263   7273     1  0.0000000  0.6973333  3
   7264   7257   7255   7274     1  0.0000000  1.0460000  1
   7264   7257   7255   7274     1  0.0000000  0.0000000  3
   7265   7254   7255   7274     1  0.0000000  0.6508444  3
   7268   7265   7254   7272     1  0.0000000  1.0460000  1
   7268   7265   7254   7272     1  0.0000000  0.0000000  3
   7268   7265   7270   7271     1  0.0000000  0.6973333  3
   7269   7265   7254   7272     1  0.0000000  1.0460000  1
   7269   7265   7254   7272     1  0.0000000  0.0000000  3
   7269   7265   7270   7271     1  0.0000000  0.6973333  3
   7272   7254   7255   7274     1  0.0000000  1.0460000  1
   7272   7254   7255   7274     1  0.0000000  0.0000000  3
   7272   7259   7263   7273     1  0.0000000  0.6973333  3
   7274   7255   7275   7276     1  0.0000000  0.6973333  3
   7278   7279   7281   7285     1  0.0000000  0.6508444  3
   7278   7279   7299   7300     1  0.0000000  1.0460000  1
   7278   7279   7299   7300     1  0.0000000  0.6694400  3
   7278   7289   7294   7295     1  0.0000000  1.0460000  1
   7278   7289   7294   7295     1  0.0000000  0.6694400  3
   7278   7296   7283   7286     1  0.0000000  1.6038667  3
   7279   7278   7289   7292     1  0.0000000  0.6508444  3
   7279   7278   7289   7293     1  0.0000000  0.6508444  3
   7279   7281   7282   7284     1  0.0000000  0.6508444  3
   7279   7281   7288   7290     1  0.0000000  1.0460000  1
   7279   7281   7288   7290     1  0.0000000  0.6694400  3
   7280   7278   7279   7281     1  0.0000000  0.6508444  3
   7280   7278   7279   7299     1  0.0000000  1.0460000  1
   7280   7278   7279   7299     1  0.0000000  0.0000000  3
   7280   7278   7279   7298     1  0.0000000  0.6508444  3
   7280   7278   7289   7294     1  0.0000000  1.0460000  1
   7280   7278   7289   7294     1  0.0000000  0.0000000  3
   7280   7278   7289   7292     1  0.0000000  0.6508444  3
   7280   7278   7289   7293     1  0.0000000  0.6508444  3
   7280   7278   7296   7283     1  0.0000000  1.6038667  3
   7281   7279   7299   7300     1  0.0000000  1.0460000  1
   7281   7279   7299   7300     1  0.0000000  0.6694400  3
   7281   7282   7283   7286     1  0.0000000  0.6508444  3
   7281   7282   7301   7291     1  0.0000000  1.2552000  3
   7282   7281   7279   7298     1  0.0000000  0.6508444  3
   7282   7281   7288   7290     1  0.0000000  1.0460000  1
   7282   7281   7288   7290     1  0.0000000  0.6694400  3
   7282   7283   7287   7297     1  0.0000000  1.0460000  1
   7282   7283   7287   7297     1  0.0000000  0.6694400  3
   7283   7282   7281   7285     1  0.0000000  0.6508444  3
   7283   7282   7301   7291     1  0.0000000  1.2552000  3
   7284   7282   7281   7288     1  0.0000000  1.0460000  1
   7284   7282   7281   7288     1  0.0000000  0.0000000  3
   7284   7282   7281   7285     1  0.0000000  0.6508444  3
   7284   7282   7283   7287     1  0.0000000  1.0460000  1
   7284   7282   7283   7287     1  0.0000000  0.0000000  3
   7284   7282   7283   7296     1  0.0000000  1.0460000  1
   7284   7282   7283   7296     1  0.0000000  0.0000000  3
   7284   7282   7283   7286     1  0.0000000  0.6508444  3
   7284   7282   7301   7291     1  0.0000000  1.2552000  3
   7285   7281   7279   7299     1  0.0000000  1.0460000  1
   7285   7281   7279   7299     1  0.0000000  0.0000000  3
   7285   7281   7279   7298     1  0.0000000  0.6508444  3
   7285   7281   7282   7301     1  0.0000000  0.6508444  3
   7285   7281   7288   7290     1  0.0000000  0.6973333  3
   7286   7283   7282   7301     1  0.0000000  0.6508444  3
   7286   7283   7287   7297     1  0.0000000  0.6973333  3
   7288   7281   7279   7298     1  0.0000000  1.0460000  1
   7288   7281   7279   7298     1  0.0000000  0.0000000  3
   7289   7278   7279   7298     1  0.0000000  0.6508444  3
   7292   7289   7278   7296     1  0.0000000  1.0460000  1
   7292   7289   7278   7296     1  0.0000000  0.0000000  3
   7292   7289   7294   7295     1  0.0000000  0.6973333  3
   7293   7289   7278   7296     1  0.0000000  1.0460000  1
   7293   7289   7278   7296     1  0.0000000  0.0000000  3
   7293   7289   7294   7295     1  0.0000000  0.6973333  3
   7296   7278   7279   7298     1  0.0000000  1.0460000  1
   7296   7278   7279   7298     1  0.0000000  0.0000000  3
   7296   7283   7287   7297     1  0.0000000  0.6973333  3
   7298   7279   7299   7300     1  0.0000000  0.6973333  3
   7302   7304   7306   7308     1  0.0000000  0.6508444  3
   7302   7304   7306   7309     1  0.0000000  0.6508444  3
   7303   7302   7304   7306     1  0.0000000  0.0000000  2
   7303   7302   7304   7305     1  0.0000000  0.0000000  2
   7303   7302   7304   7307     1  0.0000000  0.0000000  2
   7305   7304   7306   7310     1  0.0000000  0.6508444  3
   7305   7304   7306   7308     1  0.0000000  0.6508444  3
   7305   7304   7306   7309     1  0.0000000  0.6508444  3
   7306   7310   7311   7320     1  0.0000000  1.2552000  3
   7306   7310   7311   7321     1  0.0000000  1.2552000  3
   7306   7310   7312   7313     1  0.0000000  1.2552000  3
   7306   7310   7312   7315     1  0.0000000  1.2552000  3
   7307   7304   7306   7310     1  0.0000000  0.6508444  3
   7307   7304   7306   7308     1  0.0000000  0.6508444  3
   7307   7304   7306   7309     1  0.0000000  0.6508444  3
   7308   7306   7310   7311     1  0.0000000  1.2552000  3
   7308   7306   7310   7312     1  0.0000000  1.2552000  3
   7309   7306   7310   7311     1  0.0000000  1.2552000  3
   7309   7306   7310   7312     1  0.0000000  1.2552000  3
   7310   7311   7322   7323     1  0.0000000  0.6508444  3
   7310   7311   7322   7324     1  0.0000000  0.6508444  3
   7310   7312   7314   7316     1  0.0000000  0.6508444  3
   7310   7312   7314   7317     1  0.0000000  0.6508444  3
   7311   7310   7312   7313     1  0.0000000  1.2552000  3
   7311   7310   7312   7315     1  0.0000000  1.2552000  3
   7312   7310   7311   7320     1  0.0000000  1.2552000  3
   7312   7310   7311   7321     1  0.0000000  1.2552000  3
   7313   7312   7314   7318     1  0.0000000  0.6508444  3
   7313   7312   7314   7316     1  0.0000000  0.6508444  3
   7313   7312   7314   7317     1  0.0000000  0.6508444  3
   7314   7318   7350   7340     1  180.0000771  6.0668000  2
   7314   7318   7350   7340     1  180.0000771  1.4644000  4
   7315   7312   7314   7318     1  0.0000000  0.6508444  3
   7315   7312   7314   7316     1  0.0000000  0.6508444  3
   7315   7312   7314   7317     1  0.0000000  0.6508444  3
   7316   7314   7318   7319     1  0.0000000  3.3472000  1
   7316   7314   7318   7319     1  0.0000000  0.0000000  2
   7316   7314   7318   7319     1  180.0000771  0.3347200  3
   7316   7314   7318   7350     1  180.0000771  0.0000000  2
   7317   7314   7318   7319     1  0.0000000  3.3472000  1
   7317   7314   7318   7319     1  0.0000000  0.0000000  2
   7317   7314   7318   7319     1  180.0000771  0.3347200  3
   7317   7314   7318   7350     1  180.0000771  0.0000000  2
   7318   7350   7331   7333     1  0.0000000  1.2552000  3
   7319   7318   7350   7340     1  180.0000771  6.0668000  2
   7319   7318   7350   7340     1  180.0000771  1.4644000  4
   7320   7311   7322   7325     1  0.0000000  0.6508444  3
   7320   7311   7322   7323     1  0.0000000  0.6508444  3
   7320   7311   7322   7324     1  0.0000000  0.6508444  3
   7321   7311   7322   7325     1  0.0000000  0.6508444  3
   7321   7311   7322   7323     1  0.0000000  0.6508444  3
   7321   7311   7322   7324     1  0.0000000  0.6508444  3
   7322   7325   7374   7364     1  180.0000771  6.0668000  2
   7322   7325   7374   7364     1  180.0000771  1.4644000  4
   7323   7322   7325   7326     1  0.0000000  3.3472000  1
   7323   7322   7325   7326     1  0.0000000  0.0000000  2
   7323   7322   7325   7326     1  180.0000771  0.3347200  3
   7323   7322   7325   7374     1  180.0000771  0.0000000  2
   7324   7322   7325   7326     1  0.0000000  3.3472000  1
   7324   7322   7325   7326     1  0.0000000  0.0000000  2
   7324   7322   7325   7326     1  180.0000771  0.3347200  3
   7324   7322   7325   7374     1  180.0000771  0.0000000  2
   7325   7374   7355   7357     1  0.0000000  1.2552000  3
   7326   7325   7374   7364     1  180.0000771  6.0668000  2
   7326   7325   7374   7364     1  180.0000771  1.4644000  4
   7327   7328   7330   7334     1  0.0000000  0.6508444  3
   7327   7328   7348   7349     1  0.0000000  1.0460000  1
   7327   7328   7348   7349     1  0.0000000  0.6694400  3
   7327   7338   7343   7344     1  0.0000000  1.0460000  1
   7327   7338   7343   7344     1  0.0000000  0.6694400  3
   7327   7345   7332   7335     1  0.0000000  1.6038667  3
   7328   7330   7331   7333     1  0.0000000  0.6508444  3
   7328   7330   7337   7339     1  0.0000000  1.0460000  1
   7328   7330   7337   7339     1  0.0000000  0.6694400  3
   7328   7327   7338   7341     1  0.0000000  0.6508444  3
   7328   7327   7338   7342     1  0.0000000  0.6508444  3
   7329   7327   7328   7330     1  0.0000000  0.6508444  3
   7329   7327   7328   7348     1  0.0000000  1.0460000  1
   7329   7327   7328   7348     1  0.0000000  0.0000000  3
   7329   7327   7328   7347     1  0.0000000  0.6508444  3
   7329   7327   7338   7343     1  0.0000000  1.0460000  1
   7329   7327   7338   7343     1  0.0000000  0.0000000  3
   7329   7327   7338   7341     1  0.0000000  0.6508444  3
   7329   7327   7338   7342     1  0.0000000  0.6508444  3
   7329   7327   7345   7332     1  0.0000000  1.6038667  3
   7330   7331   7332   7335     1  0.0000000  0.6508444  3
   7330   7331   7350   7340     1  0.0000000  1.2552000  3
   7330   7328   7348   7349     1  0.0000000  1.0460000  1
   7330   7328   7348   7349     1  0.0000000  0.6694400  3
   7331   7332   7336   7346     1  0.0000000  1.0460000  1
   7331   7332   7336   7346     1  0.0000000  0.6694400  3
   7331   7330   7337   7339     1  0.0000000  1.0460000  1
   7331   7330   7337   7339     1  0.0000000  0.6694400  3
   7331   7330   7328   7347     1  0.0000000  0.6508444  3
   7332   7331   7350   7340     1  0.0000000  1.2552000  3
   7332   7331   7330   7334     1  0.0000000  0.6508444  3
   7333   7331   7332   7336     1  0.0000000  1.0460000  1
   7333   7331   7332   7336     1  0.0000000  0.0000000  3
   7333   7331   7332   7345     1  0.0000000  1.0460000  1
   7333   7331   7332   7345     1  0.0000000  0.0000000  3
   7333   7331   7332   7335     1  0.0000000  0.6508444  3
   7333   7331   7350   7340     1  0.0000000  1.2552000  3
   7333   7331   7330   7337     1  0.0000000  1.0460000  1
   7333   7331   7330   7337     1  0.0000000  0.0000000  3
   7333   7331   7330   7334     1  0.0000000  0.6508444  3
   7334   7330   7331   7350     1  0.0000000  0.6508444  3
   7334   7330   7337   7339     1  0.0000000  0.6973333  3
   7334   7330   7328   7348     1  0.0000000  1.0460000  1
   7334   7330   7328   7348     1  0.0000000  0.0000000  3
   7334   7330   7328   7347     1  0.0000000  0.6508444  3
   7335   7332   7336   7346     1  0.0000000  0.6973333  3
   7335   7332   7331   7350     1  0.0000000  0.6508444  3
   7337   7330   7328   7347     1  0.0000000  1.0460000  1
   7337   7330   7328   7347     1  0.0000000  0.0000000  3
   7338   7327   7328   7347     1  0.0000000  0.6508444  3
   7341   7338   7343   7344     1  0.0000000  0.6973333  3
   7341   7338   7327   7345     1  0.0000000  1.0460000  1
   7341   7338   7327   7345     1  0.0000000  0.0000000  3
   7342   7338   7343   7344     1  0.0000000  0.6973333  3
   7342   7338   7327   7345     1  0.0000000  1.0460000  1
   7342   7338   7327   7345     1  0.0000000  0.0000000  3
   7345   7332   7336   7346     1  0.0000000  0.6973333  3
   7345   7327   7328   7347     1  0.0000000  1.0460000  1
   7345   7327   7328   7347     1  0.0000000  0.0000000  3
   7347   7328   7348   7349     1  0.0000000  0.6973333  3
   7351   7352   7354   7358     1  0.0000000  0.6508444  3
   7351   7352   7372   7373     1  0.0000000  1.0460000  1
   7351   7352   7372   7373     1  0.0000000  0.6694400  3
   7351   7362   7367   7368     1  0.0000000  1.0460000  1
   7351   7362   7367   7368     1  0.0000000  0.6694400  3
   7351   7369   7356   7359     1  0.0000000  1.6038667  3
   7352   7354   7355   7357     1  0.0000000  0.6508444  3
   7352   7354   7361   7363     1  0.0000000  1.0460000  1
   7352   7354   7361   7363     1  0.0000000  0.6694400  3
   7352   7351   7362   7365     1  0.0000000  0.6508444  3
   7352   7351   7362   7366     1  0.0000000  0.6508444  3
   7353   7351   7352   7354     1  0.0000000  0.6508444  3
   7353   7351   7352   7372     1  0.0000000  1.0460000  1
   7353   7351   7352   7372     1  0.0000000  0.0000000  3
   7353   7351   7352   7371     1  0.0000000  0.6508444  3
   7353   7351   7362   7367     1  0.0000000  1.0460000  1
   7353   7351   7362   7367     1  0.0000000  0.0000000  3
   7353   7351   7362   7365     1  0.0000000  0.6508444  3
   7353   7351   7362   7366     1  0.0000000  0.6508444  3
   7353   7351   7369   7356     1  0.0000000  1.6038667  3
   7354   7355   7356   7359     1  0.0000000  0.6508444  3
   7354   7355   7374   7364     1  0.0000000  1.2552000  3
   7354   7352   7372   7373     1  0.0000000  1.0460000  1
   7354   7352   7372   7373     1  0.0000000  0.6694400  3
   7355   7356   7360   7370     1  0.0000000  1.0460000  1
   7355   7356   7360   7370     1  0.0000000  0.6694400  3
   7355   7354   7361   7363     1  0.0000000  1.0460000  1
   7355   7354   7361   7363     1  0.0000000  0.6694400  3
   7355   7354   7352   7371     1  0.0000000  0.6508444  3
   7356   7355   7374   7364     1  0.0000000  1.2552000  3
   7356   7355   7354   7358     1  0.0000000  0.6508444  3
   7357   7355   7356   7360     1  0.0000000  1.0460000  1
   7357   7355   7356   7360     1  0.0000000  0.0000000  3
   7357   7355   7356   7369     1  0.0000000  1.0460000  1
   7357   7355   7356   7369     1  0.0000000  0.0000000  3
   7357   7355   7356   7359     1  0.0000000  0.6508444  3
   7357   7355   7374   7364     1  0.0000000  1.2552000  3
   7357   7355   7354   7361     1  0.0000000  1.0460000  1
   7357   7355   7354   7361     1  0.0000000  0.0000000  3
   7357   7355   7354   7358     1  0.0000000  0.6508444  3
   7358   7354   7355   7374     1  0.0000000  0.6508444  3
   7358   7354   7361   7363     1  0.0000000  0.6973333  3
   7358   7354   7352   7372     1  0.0000000  1.0460000  1
   7358   7354   7352   7372     1  0.0000000  0.0000000  3
   7358   7354   7352   7371     1  0.0000000  0.6508444  3
   7359   7356   7360   7370     1  0.0000000  0.6973333  3
   7359   7356   7355   7374     1  0.0000000  0.6508444  3
   7361   7354   7352   7371     1  0.0000000  1.0460000  1
   7361   7354   7352   7371     1  0.0000000  0.0000000  3
   7362   7351   7352   7371     1  0.0000000  0.6508444  3
   7365   7362   7367   7368     1  0.0000000  0.6973333  3
   7365   7362   7351   7369     1  0.0000000  1.0460000  1
   7365   7362   7351   7369     1  0.0000000  0.0000000  3
   7366   7362   7367   7368     1  0.0000000  0.6973333  3
   7366   7362   7351   7369     1  0.0000000  1.0460000  1
   7366   7362   7351   7369     1  0.0000000  0.0000000  3
   7369   7356   7360   7370     1  0.0000000  0.6973333  3
   7369   7351   7352   7371     1  0.0000000  1.0460000  1
   7369   7351   7352   7371     1  0.0000000  0.0000000  3
   7371   7352   7372   7373     1  0.0000000  0.6973333  3
   7375   7377   7379   7381     1  0.0000000  0.6508444  3
   7375   7377   7379   7382     1  0.0000000  0.6508444  3
   7376   7375   7377   7379     1  0.0000000  0.0000000  2
   7376   7375   7377   7378     1  0.0000000  0.0000000  2
   7376   7375   7377   7380     1  0.0000000  0.0000000  2
   7378   7377   7379   7383     1  0.0000000  0.6508444  3
   7378   7377   7379   7381     1  0.0000000  0.6508444  3
   7378   7377   7379   7382     1  0.0000000  0.6508444  3
   7379   7383   7384   7393     1  0.0000000  1.2552000  3
   7379   7383   7384   7394     1  0.0000000  1.2552000  3
   7379   7383   7385   7386     1  0.0000000  1.2552000  3
   7379   7383   7385   7388     1  0.0000000  1.2552000  3
   7380   7377   7379   7383     1  0.0000000  0.6508444  3
   7380   7377   7379   7381     1  0.0000000  0.6508444  3
   7380   7377   7379   7382     1  0.0000000  0.6508444  3
   7381   7379   7383   7384     1  0.0000000  1.2552000  3
   7381   7379   7383   7385     1  0.0000000  1.2552000  3
   7382   7379   7383   7384     1  0.0000000  1.2552000  3
   7382   7379   7383   7385     1  0.0000000  1.2552000  3
   7383   7384   7395   7396     1  0.0000000  0.6508444  3
   7383   7384   7395   7397     1  0.0000000  0.6508444  3
   7383   7385   7387   7389     1  0.0000000  0.6508444  3
   7383   7385   7387   7390     1  0.0000000  0.6508444  3
   7384   7383   7385   7386     1  0.0000000  1.2552000  3
   7384   7383   7385   7388     1  0.0000000  1.2552000  3
   7385   7383   7384   7393     1  0.0000000  1.2552000  3
   7385   7383   7384   7394     1  0.0000000  1.2552000  3
   7386   7385   7387   7391     1  0.0000000  0.6508444  3
   7386   7385   7387   7389     1  0.0000000  0.6508444  3
   7386   7385   7387   7390     1  0.0000000  0.6508444  3
   7387   7391   7423   7413     1  180.0000771  6.0668000  2
   7387   7391   7423   7413     1  180.0000771  1.4644000  4
   7388   7385   7387   7391     1  0.0000000  0.6508444  3
   7388   7385   7387   7389     1  0.0000000  0.6508444  3
   7388   7385   7387   7390     1  0.0000000  0.6508444  3
   7389   7387   7391   7392     1  0.0000000  3.3472000  1
   7389   7387   7391   7392     1  0.0000000  0.0000000  2
   7389   7387   7391   7392     1  180.0000771  0.3347200  3
   7389   7387   7391   7423     1  180.0000771  0.0000000  2
   7390   7387   7391   7392     1  0.0000000  3.3472000  1
   7390   7387   7391   7392     1  0.0000000  0.0000000  2
   7390   7387   7391   7392     1  180.0000771  0.3347200  3
   7390   7387   7391   7423     1  180.0000771  0.0000000  2
   7391   7423   7404   7406     1  0.0000000  1.2552000  3
   7392   7391   7423   7413     1  180.0000771  6.0668000  2
   7392   7391   7423   7413     1  180.0000771  1.4644000  4
   7393   7384   7395   7398     1  0.0000000  0.6508444  3
   7393   7384   7395   7396     1  0.0000000  0.6508444  3
   7393   7384   7395   7397     1  0.0000000  0.6508444  3
   7394   7384   7395   7398     1  0.0000000  0.6508444  3
   7394   7384   7395   7396     1  0.0000000  0.6508444  3
   7394   7384   7395   7397     1  0.0000000  0.6508444  3
   7395   7398   7447   7437     1  180.0000771  6.0668000  2
   7395   7398   7447   7437     1  180.0000771  1.4644000  4
   7396   7395   7398   7399     1  0.0000000  3.3472000  1
   7396   7395   7398   7399     1  0.0000000  0.0000000  2
   7396   7395   7398   7399     1  180.0000771  0.3347200  3
   7396   7395   7398   7447     1  180.0000771  0.0000000  2
   7397   7395   7398   7399     1  0.0000000  3.3472000  1
   7397   7395   7398   7399     1  0.0000000  0.0000000  2
   7397   7395   7398   7399     1  180.0000771  0.3347200  3
   7397   7395   7398   7447     1  180.0000771  0.0000000  2
   7398   7447   7428   7430     1  0.0000000  1.2552000  3
   7399   7398   7447   7437     1  180.0000771  6.0668000  2
   7399   7398   7447   7437     1  180.0000771  1.4644000  4
   7400   7401   7403   7407     1  0.0000000  0.6508444  3
   7400   7401   7421   7422     1  0.0000000  1.0460000  1
   7400   7401   7421   7422     1  0.0000000  0.6694400  3
   7400   7411   7416   7417     1  0.0000000  1.0460000  1
   7400   7411   7416   7417     1  0.0000000  0.6694400  3
   7400   7418   7405   7408     1  0.0000000  1.6038667  3
   7401   7400   7411   7414     1  0.0000000  0.6508444  3
   7401   7400   7411   7415     1  0.0000000  0.6508444  3
   7401   7403   7404   7406     1  0.0000000  0.6508444  3
   7401   7403   7410   7412     1  0.0000000  1.0460000  1
   7401   7403   7410   7412     1  0.0000000  0.6694400  3
   7402   7400   7401   7403     1  0.0000000  0.6508444  3
   7402   7400   7401   7421     1  0.0000000  1.0460000  1
   7402   7400   7401   7421     1  0.0000000  0.0000000  3
   7402   7400   7401   7420     1  0.0000000  0.6508444  3
   7402   7400   7411   7416     1  0.0000000  1.0460000  1
   7402   7400   7411   7416     1  0.0000000  0.0000000  3
   7402   7400   7411   7414     1  0.0000000  0.6508444  3
   7402   7400   7411   7415     1  0.0000000  0.6508444  3
   7402   7400   7418   7405     1  0.0000000  1.6038667  3
   7403   7401   7421   7422     1  0.0000000  1.0460000  1
   7403   7401   7421   7422     1  0.0000000  0.6694400  3
   7403   7404   7405   7408     1  0.0000000  0.6508444  3
   7403   7404   7423   7413     1  0.0000000  1.2552000  3
   7404   7403   7401   7420     1  0.0000000  0.6508444  3
   7404   7403   7410   7412     1  0.0000000  1.0460000  1
   7404   7403   7410   7412     1  0.0000000  0.6694400  3
   7404   7405   7409   7419     1  0.0000000  1.0460000  1
   7404   7405   7409   7419     1  0.0000000  0.6694400  3
   7405   7404   7403   7407     1  0.0000000  0.6508444  3
   7405   7404   7423   7413     1  0.0000000  1.2552000  3
   7406   7404   7403   7410     1  0.0000000  1.0460000  1
   7406   7404   7403   7410     1  0.0000000  0.0000000  3
   7406   7404   7403   7407     1  0.0000000  0.6508444  3
   7406   7404   7405   7409     1  0.0000000  1.0460000  1
   7406   7404   7405   7409     1  0.0000000  0.0000000  3
   7406   7404   7405   7418     1  0.0000000  1.0460000  1
   7406   7404   7405   7418     1  0.0000000  0.0000000  3
   7406   7404   7405   7408     1  0.0000000  0.6508444  3
   7406   7404   7423   7413     1  0.0000000  1.2552000  3
   7407   7403   7401   7421     1  0.0000000  1.0460000  1
   7407   7403   7401   7421     1  0.0000000  0.0000000  3
   7407   7403   7401   7420     1  0.0000000  0.6508444  3
   7407   7403   7404   7423     1  0.0000000  0.6508444  3
   7407   7403   7410   7412     1  0.0000000  0.6973333  3
   7408   7405   7404   7423     1  0.0000000  0.6508444  3
   7408   7405   7409   7419     1  0.0000000  0.6973333  3
   7410   7403   7401   7420     1  0.0000000  1.0460000  1
   7410   7403   7401   7420     1  0.0000000  0.0000000  3
   7411   7400   7401   7420     1  0.0000000  0.6508444  3
   7414   7411   7400   7418     1  0.0000000  1.0460000  1
   7414   7411   7400   7418     1  0.0000000  0.0000000  3
   7414   7411   7416   7417     1  0.0000000  0.6973333  3
   7415   7411   7400   7418     1  0.0000000  1.0460000  1
   7415   7411   7400   7418     1  0.0000000  0.0000000  3
   7415   7411   7416   7417     1  0.0000000  0.6973333  3
   7418   7400   7401   7420     1  0.0000000  1.0460000  1
   7418   7400   7401   7420     1  0.0000000  0.0000000  3
   7418   7405   7409   7419     1  0.0000000  0.6973333  3
   7420   7401   7421   7422     1  0.0000000  0.6973333  3
   7424   7425   7427   7431     1  0.0000000  0.6508444  3
   7424   7425   7445   7446     1  0.0000000  1.0460000  1
   7424   7425   7445   7446     1  0.0000000  0.6694400  3
   7424   7435   7440   7441     1  0.0000000  1.0460000  1
   7424   7435   7440   7441     1  0.0000000  0.6694400  3
   7424   7442   7429   7432     1  0.0000000  1.6038667  3
   7425   7424   7435   7438     1  0.0000000  0.6508444  3
   7425   7424   7435   7439     1  0.0000000  0.6508444  3
   7425   7427   7428   7430     1  0.0000000  0.6508444  3
   7425   7427   7434   7436     1  0.0000000  1.0460000  1
   7425   7427   7434   7436     1  0.0000000  0.6694400  3
   7426   7424   7425   7427     1  0.0000000  0.6508444  3
   7426   7424   7425   7445     1  0.0000000  1.0460000  1
   7426   7424   7425   7445     1  0.0000000  0.0000000  3
   7426   7424   7425   7444     1  0.0000000  0.6508444  3
   7426   7424   7435   7440     1  0.0000000  1.0460000  1
   7426   7424   7435   7440     1  0.0000000  0.0000000  3
   7426   7424   7435   7438     1  0.0000000  0.6508444  3
   7426   7424   7435   7439     1  0.0000000  0.6508444  3
   7426   7424   7442   7429     1  0.0000000  1.6038667  3
   7427   7425   7445   7446     1  0.0000000  1.0460000  1
   7427   7425   7445   7446     1  0.0000000  0.6694400  3
   7427   7428   7429   7432     1  0.0000000  0.6508444  3
   7427   7428   7447   7437     1  0.0000000  1.2552000  3
   7428   7427   7425   7444     1  0.0000000  0.6508444  3
   7428   7427   7434   7436     1  0.0000000  1.0460000  1
   7428   7427   7434   7436     1  0.0000000  0.6694400  3
   7428   7429   7433   7443     1  0.0000000  1.0460000  1
   7428   7429   7433   7443     1  0.0000000  0.6694400  3
   7429   7428   7427   7431     1  0.0000000  0.6508444  3
   7429   7428   7447   7437     1  0.0000000  1.2552000  3
   7430   7428   7427   7434     1  0.0000000  1.0460000  1
   7430   7428   7427   7434     1  0.0000000  0.0000000  3
   7430   7428   7427   7431     1  0.0000000  0.6508444  3
   7430   7428   7429   7433     1  0.0000000  1.0460000  1
   7430   7428   7429   7433     1  0.0000000  0.0000000  3
   7430   7428   7429   7442     1  0.0000000  1.0460000  1
   7430   7428   7429   7442     1  0.0000000  0.0000000  3
   7430   7428   7429   7432     1  0.0000000  0.6508444  3
   7430   7428   7447   7437     1  0.0000000  1.2552000  3
   7431   7427   7425   7445     1  0.0000000  1.0460000  1
   7431   7427   7425   7445     1  0.0000000  0.0000000  3
   7431   7427   7425   7444     1  0.0000000  0.6508444  3
   7431   7427   7428   7447     1  0.0000000  0.6508444  3
   7431   7427   7434   7436     1  0.0000000  0.6973333  3
   7432   7429   7428   7447     1  0.0000000  0.6508444  3
   7432   7429   7433   7443     1  0.0000000  0.6973333  3
   7434   7427   7425   7444     1  0.0000000  1.0460000  1
   7434   7427   7425   7444     1  0.0000000  0.0000000  3
   7435   7424   7425   7444     1  0.0000000  0.6508444  3
   7438   7435   7424   7442     1  0.0000000  1.0460000  1
   7438   7435   7424   7442     1  0.0000000  0.0000000  3
   7438   7435   7440   7441     1  0.0000000  0.6973333  3
   7439   7435   7424   7442     1  0.0000000  1.0460000  1
   7439   7435   7424   7442     1  0.0000000  0.0000000  3
   7439   7435   7440   7441     1  0.0000000  0.6973333  3
   7442   7424   7425   7444     1  0.0000000  1.0460000  1
   7442   7424   7425   7444     1  0.0000000  0.0000000  3
   7442   7429   7433   7443     1  0.0000000  0.6973333  3
   7444   7425   7445   7446     1  0.0000000  0.6973333  3
   7448   7450   7452   7454     1  0.0000000  0.6508444  3
   7448   7450   7452   7455     1  0.0000000  0.6508444  3
   7449   7448   7450   7452     1  0.0000000  0.0000000  2
   7449   7448   7450   7451     1  0.0000000  0.0000000  2
   7449   7448   7450   7453     1  0.0000000  0.0000000  2
   7451   7450   7452   7456     1  0.0000000  0.6508444  3
   7451   7450   7452   7454     1  0.0000000  0.6508444  3
   7451   7450   7452   7455     1  0.0000000  0.6508444  3
   7452   7456   7457   7466     1  0.0000000  1.2552000  3
   7452   7456   7457   7467     1  0.0000000  1.2552000  3
   7452   7456   7458   7459     1  0.0000000  1.2552000  3
   7452   7456   7458   7461     1  0.0000000  1.2552000  3
   7453   7450   7452   7456     1  0.0000000  0.6508444  3
   7453   7450   7452   7454     1  0.0000000  0.6508444  3
   7453   7450   7452   7455     1  0.0000000  0.6508444  3
   7454   7452   7456   7457     1  0.0000000  1.2552000  3
   7454   7452   7456   7458     1  0.0000000  1.2552000  3
   7455   7452   7456   7457     1  0.0000000  1.2552000  3
   7455   7452   7456   7458     1  0.0000000  1.2552000  3
   7456   7457   7468   7469     1  0.0000000  0.6508444  3
   7456   7457   7468   7470     1  0.0000000  0.6508444  3
   7456   7458   7460   7462     1  0.0000000  0.6508444  3
   7456   7458   7460   7463     1  0.0000000  0.6508444  3
   7457   7456   7458   7459     1  0.0000000  1.2552000  3
   7457   7456   7458   7461     1  0.0000000  1.2552000  3
   7458   7456   7457   7466     1  0.0000000  1.2552000  3
   7458   7456   7457   7467     1  0.0000000  1.2552000  3
   7459   7458   7460   7464     1  0.0000000  0.6508444  3
   7459   7458   7460   7462     1  0.0000000  0.6508444  3
   7459   7458   7460   7463     1  0.0000000  0.6508444  3
   7460   7464   7496   7486     1  180.0000771  6.0668000  2
   7460   7464   7496   7486     1  180.0000771  1.4644000  4
   7461   7458   7460   7464     1  0.0000000  0.6508444  3
   7461   7458   7460   7462     1  0.0000000  0.6508444  3
   7461   7458   7460   7463     1  0.0000000  0.6508444  3
   7462   7460   7464   7465     1  0.0000000  3.3472000  1
   7462   7460   7464   7465     1  0.0000000  0.0000000  2
   7462   7460   7464   7465     1  180.0000771  0.3347200  3
   7462   7460   7464   7496     1  180.0000771  0.0000000  2
   7463   7460   7464   7465     1  0.0000000  3.3472000  1
   7463   7460   7464   7465     1  0.0000000  0.0000000  2
   7463   7460   7464   7465     1  180.0000771  0.3347200  3
   7463   7460   7464   7496     1  180.0000771  0.0000000  2
   7464   7496   7477   7479     1  0.0000000  1.2552000  3
   7465   7464   7496   7486     1  180.0000771  6.0668000  2
   7465   7464   7496   7486     1  180.0000771  1.4644000  4
   7466   7457   7468   7471     1  0.0000000  0.6508444  3
   7466   7457   7468   7469     1  0.0000000  0.6508444  3
   7466   7457   7468   7470     1  0.0000000  0.6508444  3
   7467   7457   7468   7471     1  0.0000000  0.6508444  3
   7467   7457   7468   7469     1  0.0000000  0.6508444  3
   7467   7457   7468   7470     1  0.0000000  0.6508444  3
   7468   7471   7520   7510     1  180.0000771  6.0668000  2
   7468   7471   7520   7510     1  180.0000771  1.4644000  4
   7469   7468   7471   7472     1  0.0000000  3.3472000  1
   7469   7468   7471   7472     1  0.0000000  0.0000000  2
   7469   7468   7471   7472     1  180.0000771  0.3347200  3
   7469   7468   7471   7520     1  180.0000771  0.0000000  2
   7470   7468   7471   7472     1  0.0000000  3.3472000  1
   7470   7468   7471   7472     1  0.0000000  0.0000000  2
   7470   7468   7471   7472     1  180.0000771  0.3347200  3
   7470   7468   7471   7520     1  180.0000771  0.0000000  2
   7471   7520   7501   7503     1  0.0000000  1.2552000  3
   7472   7471   7520   7510     1  180.0000771  6.0668000  2
   7472   7471   7520   7510     1  180.0000771  1.4644000  4
   7473   7474   7476   7480     1  0.0000000  0.6508444  3
   7473   7474   7494   7495     1  0.0000000  1.0460000  1
   7473   7474   7494   7495     1  0.0000000  0.6694400  3
   7473   7484   7489   7490     1  0.0000000  1.0460000  1
   7473   7484   7489   7490     1  0.0000000  0.6694400  3
   7473   7491   7478   7481     1  0.0000000  1.6038667  3
   7474   7476   7477   7479     1  0.0000000  0.6508444  3
   7474   7476   7483   7485     1  0.0000000  1.0460000  1
   7474   7476   7483   7485     1  0.0000000  0.6694400  3
   7474   7473   7484   7487     1  0.0000000  0.6508444  3
   7474   7473   7484   7488     1  0.0000000  0.6508444  3
   7475   7473   7474   7476     1  0.0000000  0.6508444  3
   7475   7473   7474   7494     1  0.0000000  1.0460000  1
   7475   7473   7474   7494     1  0.0000000  0.0000000  3
   7475   7473   7474   7493     1  0.0000000  0.6508444  3
   7475   7473   7484   7489     1  0.0000000  1.0460000  1
   7475   7473   7484   7489     1  0.0000000  0.0000000  3
   7475   7473   7484   7487     1  0.0000000  0.6508444  3
   7475   7473   7484   7488     1  0.0000000  0.6508444  3
   7475   7473   7491   7478     1  0.0000000  1.6038667  3
   7476   7477   7478   7481     1  0.0000000  0.6508444  3
   7476   7477   7496   7486     1  0.0000000  1.2552000  3
   7476   7474   7494   7495     1  0.0000000  1.0460000  1
   7476   7474   7494   7495     1  0.0000000  0.6694400  3
   7477   7478   7482   7492     1  0.0000000  1.0460000  1
   7477   7478   7482   7492     1  0.0000000  0.6694400  3
   7477   7476   7483   7485     1  0.0000000  1.0460000  1
   7477   7476   7483   7485     1  0.0000000  0.6694400  3
   7477   7476   7474   7493     1  0.0000000  0.6508444  3
   7478   7477   7496   7486     1  0.0000000  1.2552000  3
   7478   7477   7476   7480     1  0.0000000  0.6508444  3
   7479   7477   7478   7482     1  0.0000000  1.0460000  1
   7479   7477   7478   7482     1  0.0000000  0.0000000  3
   7479   7477   7478   7491     1  0.0000000  1.0460000  1
   7479   7477   7478   7491     1  0.0000000  0.0000000  3
   7479   7477   7478   7481     1  0.0000000  0.6508444  3
   7479   7477   7496   7486     1  0.0000000  1.2552000  3
   7479   7477   7476   7483     1  0.0000000  1.0460000  1
   7479   7477   7476   7483     1  0.0000000  0.0000000  3
   7479   7477   7476   7480     1  0.0000000  0.6508444  3
   7480   7476   7477   7496     1  0.0000000  0.6508444  3
   7480   7476   7483   7485     1  0.0000000  0.6973333  3
   7480   7476   7474   7494     1  0.0000000  1.0460000  1
   7480   7476   7474   7494     1  0.0000000  0.0000000  3
   7480   7476   7474   7493     1  0.0000000  0.6508444  3
   7481   7478   7482   7492     1  0.0000000  0.6973333  3
   7481   7478   7477   7496     1  0.0000000  0.6508444  3
   7483   7476   7474   7493     1  0.0000000  1.0460000  1
   7483   7476   7474   7493     1  0.0000000  0.0000000  3
   7484   7473   7474   7493     1  0.0000000  0.6508444  3
   7487   7484   7489   7490     1  0.0000000  0.6973333  3
   7487   7484   7473   7491     1  0.0000000  1.0460000  1
   7487   7484   7473   7491     1  0.0000000  0.0000000  3
   7488   7484   7489   7490     1  0.0000000  0.6973333  3
   7488   7484   7473   7491     1  0.0000000  1.0460000  1
   7488   7484   7473   7491     1  0.0000000  0.0000000  3
   7491   7478   7482   7492     1  0.0000000  0.6973333  3
   7491   7473   7474   7493     1  0.0000000  1.0460000  1
   7491   7473   7474   7493     1  0.0000000  0.0000000  3
   7493   7474   7494   7495     1  0.0000000  0.6973333  3
   7497   7498   7500   7504     1  0.0000000  0.6508444  3
   7497   7498   7518   7519     1  0.0000000  1.0460000  1
   7497   7498   7518   7519     1  0.0000000  0.6694400  3
   7497   7508   7513   7514     1  0.0000000  1.0460000  1
   7497   7508   7513   7514     1  0.0000000  0.6694400  3
   7497   7515   7502   7505     1  0.0000000  1.6038667  3
   7498   7500   7501   7503     1  0.0000000  0.6508444  3
   7498   7500   7507   7509     1  0.0000000  1.0460000  1
   7498   7500   7507   7509     1  0.0000000  0.6694400  3
   7498   7497   7508   7511     1  0.0000000  0.6508444  3
   7498   7497   7508   7512     1  0.0000000  0.6508444  3
   7499   7497   7498   7500     1  0.0000000  0.6508444  3
   7499   7497   7498   7518     1  0.0000000  1.0460000  1
   7499   7497   7498   7518     1  0.0000000  0.0000000  3
   7499   7497   7498   7517     1  0.0000000  0.6508444  3
   7499   7497   7508   7513     1  0.0000000  1.0460000  1
   7499   7497   7508   7513     1  0.0000000  0.0000000  3
   7499   7497   7508   7511     1  0.0000000  0.6508444  3
   7499   7497   7508   7512     1  0.0000000  0.6508444  3
   7499   7497   7515   7502     1  0.0000000  1.6038667  3
   7500   7501   7502   7505     1  0.0000000  0.6508444  3
   7500   7501   7520   7510     1  0.0000000  1.2552000  3
   7500   7498   7518   7519     1  0.0000000  1.0460000  1
   7500   7498   7518   7519     1  0.0000000  0.6694400  3
   7501   7502   7506   7516     1  0.0000000  1.0460000  1
   7501   7502   7506   7516     1  0.0000000  0.6694400  3
   7501   7500   7507   7509     1  0.0000000  1.0460000  1
   7501   7500   7507   7509     1  0.0000000  0.6694400  3
   7501   7500   7498   7517     1  0.0000000  0.6508444  3
   7502   7501   7520   7510     1  0.0000000  1.2552000  3
   7502   7501   7500   7504     1  0.0000000  0.6508444  3
   7503   7501   7502   7506     1  0.0000000  1.0460000  1
   7503   7501   7502   7506     1  0.0000000  0.0000000  3
   7503   7501   7502   7515     1  0.0000000  1.0460000  1
   7503   7501   7502   7515     1  0.0000000  0.0000000  3
   7503   7501   7502   7505     1  0.0000000  0.6508444  3
   7503   7501   7520   7510     1  0.0000000  1.2552000  3
   7503   7501   7500   7507     1  0.0000000  1.0460000  1
   7503   7501   7500   7507     1  0.0000000  0.0000000  3
   7503   7501   7500   7504     1  0.0000000  0.6508444  3
   7504   7500   7501   7520     1  0.0000000  0.6508444  3
   7504   7500   7507   7509     1  0.0000000  0.6973333  3
   7504   7500   7498   7518     1  0.0000000  1.0460000  1
   7504   7500   7498   7518     1  0.0000000  0.0000000  3
   7504   7500   7498   7517     1  0.0000000  0.6508444  3
   7505   7502   7506   7516     1  0.0000000  0.6973333  3
   7505   7502   7501   7520     1  0.0000000  0.6508444  3
   7507   7500   7498   7517     1  0.0000000  1.0460000  1
   7507   7500   7498   7517     1  0.0000000  0.0000000  3
   7508   7497   7498   7517     1  0.0000000  0.6508444  3
   7511   7508   7513   7514     1  0.0000000  0.6973333  3
   7511   7508   7497   7515     1  0.0000000  1.0460000  1
   7511   7508   7497   7515     1  0.0000000  0.0000000  3
   7512   7508   7513   7514     1  0.0000000  0.6973333  3
   7512   7508   7497   7515     1  0.0000000  1.0460000  1
   7512   7508   7497   7515     1  0.0000000  0.0000000  3
   7515   7502   7506   7516     1  0.0000000  0.6973333  3
   7515   7497   7498   7517     1  0.0000000  1.0460000  1
   7515   7497   7498   7517     1  0.0000000  0.0000000  3
   7517   7498   7518   7519     1  0.0000000  0.6973333  3
   7521   7523   7525   7527     1  0.0000000  0.6508444  3
   7521   7523   7525   7528     1  0.0000000  0.6508444  3
   7522   7521   7523   7525     1  0.0000000  0.0000000  2
   7522   7521   7523   7524     1  0.0000000  0.0000000  2
   7522   7521   7523   7526     1  0.0000000  0.0000000  2
   7524   7523   7525   7529     1  0.0000000  0.6508444  3
   7524   7523   7525   7527     1  0.0000000  0.6508444  3
   7524   7523   7525   7528     1  0.0000000  0.6508444  3
   7525   7529   7530   7539     1  0.0000000  1.2552000  3
   7525   7529   7530   7540     1  0.0000000  1.2552000  3
   7525   7529   7531   7532     1  0.0000000  1.2552000  3
   7525   7529   7531   7534     1  0.0000000  1.2552000  3
   7526   7523   7525   7529     1  0.0000000  0.6508444  3
   7526   7523   7525   7527     1  0.0000000  0.6508444  3
   7526   7523   7525   7528     1  0.0000000  0.6508444  3
   7527   7525   7529   7530     1  0.0000000  1.2552000  3
   7527   7525   7529   7531     1  0.0000000  1.2552000  3
   7528   7525   7529   7530     1  0.0000000  1.2552000  3
   7528   7525   7529   7531     1  0.0000000  1.2552000  3
   7529   7530   7541   7542     1  0.0000000  0.6508444  3
   7529   7530   7541   7543     1  0.0000000  0.6508444  3
   7529   7531   7533   7535     1  0.0000000  0.6508444  3
   7529   7531   7533   7536     1  0.0000000  0.6508444  3
   7530   7529   7531   7532     1  0.0000000  1.2552000  3
   7530   7529   7531   7534     1  0.0000000  1.2552000  3
   7531   7529   7530   7539     1  0.0000000  1.2552000  3
   7531   7529   7530   7540     1  0.0000000  1.2552000  3
   7532   7531   7533   7537     1  0.0000000  0.6508444  3
   7532   7531   7533   7535     1  0.0000000  0.6508444  3
   7532   7531   7533   7536     1  0.0000000  0.6508444  3
   7533   7537   7569   7559     1  180.0000771  6.0668000  2
   7533   7537   7569   7559     1  180.0000771  1.4644000  4
   7534   7531   7533   7537     1  0.0000000  0.6508444  3
   7534   7531   7533   7535     1  0.0000000  0.6508444  3
   7534   7531   7533   7536     1  0.0000000  0.6508444  3
   7535   7533   7537   7538     1  0.0000000  3.3472000  1
   7535   7533   7537   7538     1  0.0000000  0.0000000  2
   7535   7533   7537   7538     1  180.0000771  0.3347200  3
   7535   7533   7537   7569     1  180.0000771  0.0000000  2
   7536   7533   7537   7538     1  0.0000000  3.3472000  1
   7536   7533   7537   7538     1  0.0000000  0.0000000  2
   7536   7533   7537   7538     1  180.0000771  0.3347200  3
   7536   7533   7537   7569     1  180.0000771  0.0000000  2
   7537   7569   7550   7552     1  0.0000000  1.2552000  3
   7538   7537   7569   7559     1  180.0000771  6.0668000  2
   7538   7537   7569   7559     1  180.0000771  1.4644000  4
   7539   7530   7541   7544     1  0.0000000  0.6508444  3
   7539   7530   7541   7542     1  0.0000000  0.6508444  3
   7539   7530   7541   7543     1  0.0000000  0.6508444  3
   7540   7530   7541   7544     1  0.0000000  0.6508444  3
   7540   7530   7541   7542     1  0.0000000  0.6508444  3
   7540   7530   7541   7543     1  0.0000000  0.6508444  3
   7541   7544   7593   7583     1  180.0000771  6.0668000  2
   7541   7544   7593   7583     1  180.0000771  1.4644000  4
   7542   7541   7544   7545     1  0.0000000  3.3472000  1
   7542   7541   7544   7545     1  0.0000000  0.0000000  2
   7542   7541   7544   7545     1  180.0000771  0.3347200  3
   7542   7541   7544   7593     1  180.0000771  0.0000000  2
   7543   7541   7544   7545     1  0.0000000  3.3472000  1
   7543   7541   7544   7545     1  0.0000000  0.0000000  2
   7543   7541   7544   7545     1  180.0000771  0.3347200  3
   7543   7541   7544   7593     1  180.0000771  0.0000000  2
   7544   7593   7574   7576     1  0.0000000  1.2552000  3
   7545   7544   7593   7583     1  180.0000771  6.0668000  2
   7545   7544   7593   7583     1  180.0000771  1.4644000  4
   7546   7547   7549   7553     1  0.0000000  0.6508444  3
   7546   7547   7567   7568     1  0.0000000  1.0460000  1
   7546   7547   7567   7568     1  0.0000000  0.6694400  3
   7546   7557   7562   7563     1  0.0000000  1.0460000  1
   7546   7557   7562   7563     1  0.0000000  0.6694400  3
   7546   7564   7551   7554     1  0.0000000  1.6038667  3
   7547   7546   7557   7560     1  0.0000000  0.6508444  3
   7547   7546   7557   7561     1  0.0000000  0.6508444  3
   7547   7549   7550   7552     1  0.0000000  0.6508444  3
   7547   7549   7556   7558     1  0.0000000  1.0460000  1
   7547   7549   7556   7558     1  0.0000000  0.6694400  3
   7548   7546   7547   7549     1  0.0000000  0.6508444  3
   7548   7546   7547   7567     1  0.0000000  1.0460000  1
   7548   7546   7547   7567     1  0.0000000  0.0000000  3
   7548   7546   7547   7566     1  0.0000000  0.6508444  3
   7548   7546   7557   7562     1  0.0000000  1.0460000  1
   7548   7546   7557   7562     1  0.0000000  0.0000000  3
   7548   7546   7557   7560     1  0.0000000  0.6508444  3
   7548   7546   7557   7561     1  0.0000000  0.6508444  3
   7548   7546   7564   7551     1  0.0000000  1.6038667  3
   7549   7547   7567   7568     1  0.0000000  1.0460000  1
   7549   7547   7567   7568     1  0.0000000  0.6694400  3
   7549   7550   7551   7554     1  0.0000000  0.6508444  3
   7549   7550   7569   7559     1  0.0000000  1.2552000  3
   7550   7549   7547   7566     1  0.0000000  0.6508444  3
   7550   7549   7556   7558     1  0.0000000  1.0460000  1
   7550   7549   7556   7558     1  0.0000000  0.6694400  3
   7550   7551   7555   7565     1  0.0000000  1.0460000  1
   7550   7551   7555   7565     1  0.0000000  0.6694400  3
   7551   7550   7549   7553     1  0.0000000  0.6508444  3
   7551   7550   7569   7559     1  0.0000000  1.2552000  3
   7552   7550   7549   7556     1  0.0000000  1.0460000  1
   7552   7550   7549   7556     1  0.0000000  0.0000000  3
   7552   7550   7549   7553     1  0.0000000  0.6508444  3
   7552   7550   7551   7555     1  0.0000000  1.0460000  1
   7552   7550   7551   7555     1  0.0000000  0.0000000  3
   7552   7550   7551   7564     1  0.0000000  1.0460000  1
   7552   7550   7551   7564     1  0.0000000  0.0000000  3
   7552   7550   7551   7554     1  0.0000000  0.6508444  3
   7552   7550   7569   7559     1  0.0000000  1.2552000  3
   7553   7549   7547   7567     1  0.0000000  1.0460000  1
   7553   7549   7547   7567     1  0.0000000  0.0000000  3
   7553   7549   7547   7566     1  0.0000000  0.6508444  3
   7553   7549   7550   7569     1  0.0000000  0.6508444  3
   7553   7549   7556   7558     1  0.0000000  0.6973333  3
   7554   7551   7550   7569     1  0.0000000  0.6508444  3
   7554   7551   7555   7565     1  0.0000000  0.6973333  3
   7556   7549   7547   7566     1  0.0000000  1.0460000  1
   7556   7549   7547   7566     1  0.0000000  0.0000000  3
   7557   7546   7547   7566     1  0.0000000  0.6508444  3
   7560   7557   7546   7564     1  0.0000000  1.0460000  1
   7560   7557   7546   7564     1  0.0000000  0.0000000  3
   7560   7557   7562   7563     1  0.0000000  0.6973333  3
   7561   7557   7546   7564     1  0.0000000  1.0460000  1
   7561   7557   7546   7564     1  0.0000000  0.0000000  3
   7561   7557   7562   7563     1  0.0000000  0.6973333  3
   7564   7546   7547   7566     1  0.0000000  1.0460000  1
   7564   7546   7547   7566     1  0.0000000  0.0000000  3
   7564   7551   7555   7565     1  0.0000000  0.6973333  3
   7566   7547   7567   7568     1  0.0000000  0.6973333  3
   7570   7571   7573   7577     1  0.0000000  0.6508444  3
   7570   7571   7591   7592     1  0.0000000  1.0460000  1
   7570   7571   7591   7592     1  0.0000000  0.6694400  3
   7570   7581   7586   7587     1  0.0000000  1.0460000  1
   7570   7581   7586   7587     1  0.0000000  0.6694400  3
   7570   7588   7575   7578     1  0.0000000  1.6038667  3
   7571   7570   7581   7584     1  0.0000000  0.6508444  3
   7571   7570   7581   7585     1  0.0000000  0.6508444  3
   7571   7573   7574   7576     1  0.0000000  0.6508444  3
   7571   7573   7580   7582     1  0.0000000  1.0460000  1
   7571   7573   7580   7582     1  0.0000000  0.6694400  3
   7572   7570   7571   7573     1  0.0000000  0.6508444  3
   7572   7570   7571   7591     1  0.0000000  1.0460000  1
   7572   7570   7571   7591     1  0.0000000  0.0000000  3
   7572   7570   7571   7590     1  0.0000000  0.6508444  3
   7572   7570   7581   7586     1  0.0000000  1.0460000  1
   7572   7570   7581   7586     1  0.0000000  0.0000000  3
   7572   7570   7581   7584     1  0.0000000  0.6508444  3
   7572   7570   7581   7585     1  0.0000000  0.6508444  3
   7572   7570   7588   7575     1  0.0000000  1.6038667  3
   7573   7571   7591   7592     1  0.0000000  1.0460000  1
   7573   7571   7591   7592     1  0.0000000  0.6694400  3
   7573   7574   7575   7578     1  0.0000000  0.6508444  3
   7573   7574   7593   7583     1  0.0000000  1.2552000  3
   7574   7573   7571   7590     1  0.0000000  0.6508444  3
   7574   7573   7580   7582     1  0.0000000  1.0460000  1
   7574   7573   7580   7582     1  0.0000000  0.6694400  3
   7574   7575   7579   7589     1  0.0000000  1.0460000  1
   7574   7575   7579   7589     1  0.0000000  0.6694400  3
   7575   7574   7573   7577     1  0.0000000  0.6508444  3
   7575   7574   7593   7583     1  0.0000000  1.2552000  3
   7576   7574   7573   7580     1  0.0000000  1.0460000  1
   7576   7574   7573   7580     1  0.0000000  0.0000000  3
   7576   7574   7573   7577     1  0.0000000  0.6508444  3
   7576   7574   7575   7579     1  0.0000000  1.0460000  1
   7576   7574   7575   7579     1  0.0000000  0.0000000  3
   7576   7574   7575   7588     1  0.0000000  1.0460000  1
   7576   7574   7575   7588     1  0.0000000  0.0000000  3
   7576   7574   7575   7578     1  0.0000000  0.6508444  3
   7576   7574   7593   7583     1  0.0000000  1.2552000  3
   7577   7573   7571   7591     1  0.0000000  1.0460000  1
   7577   7573   7571   7591     1  0.0000000  0.0000000  3
   7577   7573   7571   7590     1  0.0000000  0.6508444  3
   7577   7573   7574   7593     1  0.0000000  0.6508444  3
   7577   7573   7580   7582     1  0.0000000  0.6973333  3
   7578   7575   7574   7593     1  0.0000000  0.6508444  3
   7578   7575   7579   7589     1  0.0000000  0.6973333  3
   7580   7573   7571   7590     1  0.0000000  1.0460000  1
   7580   7573   7571   7590     1  0.0000000  0.0000000  3
   7581   7570   7571   7590     1  0.0000000  0.6508444  3
   7584   7581   7570   7588     1  0.0000000  1.0460000  1
   7584   7581   7570   7588     1  0.0000000  0.0000000  3
   7584   7581   7586   7587     1  0.0000000  0.6973333  3
   7585   7581   7570   7588     1  0.0000000  1.0460000  1
   7585   7581   7570   7588     1  0.0000000  0.0000000  3
   7585   7581   7586   7587     1  0.0000000  0.6973333  3
   7588   7570   7571   7590     1  0.0000000  1.0460000  1
   7588   7570   7571   7590     1  0.0000000  0.0000000  3
   7588   7575   7579   7589     1  0.0000000  0.6973333  3
   7590   7571   7591   7592     1  0.0000000  0.6973333  3
   7594   7596   7598   7600     1  0.0000000  0.6508444  3
   7594   7596   7598   7601     1  0.0000000  0.6508444  3
   7595   7594   7596   7598     1  0.0000000  0.0000000  2
   7595   7594   7596   7597     1  0.0000000  0.0000000  2
   7595   7594   7596   7599     1  0.0000000  0.0000000  2
   7597   7596   7598   7602     1  0.0000000  0.6508444  3
   7597   7596   7598   7600     1  0.0000000  0.6508444  3
   7597   7596   7598   7601     1  0.0000000  0.6508444  3
   7598   7602   7603   7612     1  0.0000000  1.2552000  3
   7598   7602   7603   7613     1  0.0000000  1.2552000  3
   7598   7602   7604   7605     1  0.0000000  1.2552000  3
   7598   7602   7604   7607     1  0.0000000  1.2552000  3
   7599   7596   7598   7602     1  0.0000000  0.6508444  3
   7599   7596   7598   7600     1  0.0000000  0.6508444  3
   7599   7596   7598   7601     1  0.0000000  0.6508444  3
   7600   7598   7602   7603     1  0.0000000  1.2552000  3
   7600   7598   7602   7604     1  0.0000000  1.2552000  3
   7601   7598   7602   7603     1  0.0000000  1.2552000  3
   7601   7598   7602   7604     1  0.0000000  1.2552000  3
   7602   7603   7614   7615     1  0.0000000  0.6508444  3
   7602   7603   7614   7616     1  0.0000000  0.6508444  3
   7602   7604   7606   7608     1  0.0000000  0.6508444  3
   7602   7604   7606   7609     1  0.0000000  0.6508444  3
   7603   7602   7604   7605     1  0.0000000  1.2552000  3
   7603   7602   7604   7607     1  0.0000000  1.2552000  3
   7604   7602   7603   7612     1  0.0000000  1.2552000  3
   7604   7602   7603   7613     1  0.0000000  1.2552000  3
   7605   7604   7606   7610     1  0.0000000  0.6508444  3
   7605   7604   7606   7608     1  0.0000000  0.6508444  3
   7605   7604   7606   7609     1  0.0000000  0.6508444  3
   7606   7610   7642   7632     1  180.0000771  6.0668000  2
   7606   7610   7642   7632     1  180.0000771  1.4644000  4
   7607   7604   7606   7610     1  0.0000000  0.6508444  3
   7607   7604   7606   7608     1  0.0000000  0.6508444  3
   7607   7604   7606   7609     1  0.0000000  0.6508444  3
   7608   7606   7610   7611     1  0.0000000  3.3472000  1
   7608   7606   7610   7611     1  0.0000000  0.0000000  2
   7608   7606   7610   7611     1  180.0000771  0.3347200  3
   7608   7606   7610   7642     1  180.0000771  0.0000000  2
   7609   7606   7610   7611     1  0.0000000  3.3472000  1
   7609   7606   7610   7611     1  0.0000000  0.0000000  2
   7609   7606   7610   7611     1  180.0000771  0.3347200  3
   7609   7606   7610   7642     1  180.0000771  0.0000000  2
   7610   7642   7623   7625     1  0.0000000  1.2552000  3
   7611   7610   7642   7632     1  180.0000771  6.0668000  2
   7611   7610   7642   7632     1  180.0000771  1.4644000  4
   7612   7603   7614   7617     1  0.0000000  0.6508444  3
   7612   7603   7614   7615     1  0.0000000  0.6508444  3
   7612   7603   7614   7616     1  0.0000000  0.6508444  3
   7613   7603   7614   7617     1  0.0000000  0.6508444  3
   7613   7603   7614   7615     1  0.0000000  0.6508444  3
   7613   7603   7614   7616     1  0.0000000  0.6508444  3
   7614   7617   7666   7656     1  180.0000771  6.0668000  2
   7614   7617   7666   7656     1  180.0000771  1.4644000  4
   7615   7614   7617   7618     1  0.0000000  3.3472000  1
   7615   7614   7617   7618     1  0.0000000  0.0000000  2
   7615   7614   7617   7618     1  180.0000771  0.3347200  3
   7615   7614   7617   7666     1  180.0000771  0.0000000  2
   7616   7614   7617   7618     1  0.0000000  3.3472000  1
   7616   7614   7617   7618     1  0.0000000  0.0000000  2
   7616   7614   7617   7618     1  180.0000771  0.3347200  3
   7616   7614   7617   7666     1  180.0000771  0.0000000  2
   7617   7666   7647   7649     1  0.0000000  1.2552000  3
   7618   7617   7666   7656     1  180.0000771  6.0668000  2
   7618   7617   7666   7656     1  180.0000771  1.4644000  4
   7619   7620   7622   7626     1  0.0000000  0.6508444  3
   7619   7620   7640   7641     1  0.0000000  1.0460000  1
   7619   7620   7640   7641     1  0.0000000  0.6694400  3
   7619   7630   7635   7636     1  0.0000000  1.0460000  1
   7619   7630   7635   7636     1  0.0000000  0.6694400  3
   7619   7637   7624   7627     1  0.0000000  1.6038667  3
   7620   7622   7623   7625     1  0.0000000  0.6508444  3
   7620   7622   7629   7631     1  0.0000000  1.0460000  1
   7620   7622   7629   7631     1  0.0000000  0.6694400  3
   7620   7619   7630   7633     1  0.0000000  0.6508444  3
   7620   7619   7630   7634     1  0.0000000  0.6508444  3
   7621   7619   7620   7622     1  0.0000000  0.6508444  3
   7621   7619   7620   7640     1  0.0000000  1.0460000  1
   7621   7619   7620   7640     1  0.0000000  0.0000000  3
   7621   7619   7620   7639     1  0.0000000  0.6508444  3
   7621   7619   7630   7635     1  0.0000000  1.0460000  1
   7621   7619   7630   7635     1  0.0000000  0.0000000  3
   7621   7619   7630   7633     1  0.0000000  0.6508444  3
   7621   7619   7630   7634     1  0.0000000  0.6508444  3
   7621   7619   7637   7624     1  0.0000000  1.6038667  3
   7622   7623   7624   7627     1  0.0000000  0.6508444  3
   7622   7623   7642   7632     1  0.0000000  1.2552000  3
   7622   7620   7640   7641     1  0.0000000  1.0460000  1
   7622   7620   7640   7641     1  0.0000000  0.6694400  3
   7623   7624   7628   7638     1  0.0000000  1.0460000  1
   7623   7624   7628   7638     1  0.0000000  0.6694400  3
   7623   7622   7629   7631     1  0.0000000  1.0460000  1
   7623   7622   7629   7631     1  0.0000000  0.6694400  3
   7623   7622   7620   7639     1  0.0000000  0.6508444  3
   7624   7623   7642   7632     1  0.0000000  1.2552000  3
   7624   7623   7622   7626     1  0.0000000  0.6508444  3
   7625   7623   7624   7628     1  0.0000000  1.0460000  1
   7625   7623   7624   7628     1  0.0000000  0.0000000  3
   7625   7623   7624   7637     1  0.0000000  1.0460000  1
   7625   7623   7624   7637     1  0.0000000  0.0000000  3
   7625   7623   7624   7627     1  0.0000000  0.6508444  3
   7625   7623   7642   7632     1  0.0000000  1.2552000  3
   7625   7623   7622   7629     1  0.0000000  1.0460000  1
   7625   7623   7622   7629     1  0.0000000  0.0000000  3
   7625   7623   7622   7626     1  0.0000000  0.6508444  3
   7626   7622   7623   7642     1  0.0000000  0.6508444  3
   7626   7622   7629   7631     1  0.0000000  0.6973333  3
   7626   7622   7620   7640     1  0.0000000  1.0460000  1
   7626   7622   7620   7640     1  0.0000000  0.0000000  3
   7626   7622   7620   7639     1  0.0000000  0.6508444  3
   7627   7624   7628   7638     1  0.0000000  0.6973333  3
   7627   7624   7623   7642     1  0.0000000  0.6508444  3
   7629   7622   7620   7639     1  0.0000000  1.0460000  1
   7629   7622   7620   7639     1  0.0000000  0.0000000  3
   7630   7619   7620   7639     1  0.0000000  0.6508444  3
   7633   7630   7635   7636     1  0.0000000  0.6973333  3
   7633   7630   7619   7637     1  0.0000000  1.0460000  1
   7633   7630   7619   7637     1  0.0000000  0.0000000  3
   7634   7630   7635   7636     1  0.0000000  0.6973333  3
   7634   7630   7619   7637     1  0.0000000  1.0460000  1
   7634   7630   7619   7637     1  0.0000000  0.0000000  3
   7637   7624   7628   7638     1  0.0000000  0.6973333  3
   7637   7619   7620   7639     1  0.0000000  1.0460000  1
   7637   7619   7620   7639     1  0.0000000  0.0000000  3
   7639   7620   7640   7641     1  0.0000000  0.6973333  3
   7643   7644   7646   7650     1  0.0000000  0.6508444  3
   7643   7644   7664   7665     1  0.0000000  1.0460000  1
   7643   7644   7664   7665     1  0.0000000  0.6694400  3
   7643   7654   7659   7660     1  0.0000000  1.0460000  1
   7643   7654   7659   7660     1  0.0000000  0.6694400  3
   7643   7661   7648   7651     1  0.0000000  1.6038667  3
   7644   7646   7647   7649     1  0.0000000  0.6508444  3
   7644   7646   7653   7655     1  0.0000000  1.0460000  1
   7644   7646   7653   7655     1  0.0000000  0.6694400  3
   7644   7643   7654   7657     1  0.0000000  0.6508444  3
   7644   7643   7654   7658     1  0.0000000  0.6508444  3
   7645   7643   7644   7646     1  0.0000000  0.6508444  3
   7645   7643   7644   7664     1  0.0000000  1.0460000  1
   7645   7643   7644   7664     1  0.0000000  0.0000000  3
   7645   7643   7644   7663     1  0.0000000  0.6508444  3
   7645   7643   7654   7659     1  0.0000000  1.0460000  1
   7645   7643   7654   7659     1  0.0000000  0.0000000  3
   7645   7643   7654   7657     1  0.0000000  0.6508444  3
   7645   7643   7654   7658     1  0.0000000  0.6508444  3
   7645   7643   7661   7648     1  0.0000000  1.6038667  3
   7646   7647   7648   7651     1  0.0000000  0.6508444  3
   7646   7647   7666   7656     1  0.0000000  1.2552000  3
   7646   7644   7664   7665     1  0.0000000  1.0460000  1
   7646   7644   7664   7665     1  0.0000000  0.6694400  3
   7647   7648   7652   7662     1  0.0000000  1.0460000  1
   7647   7648   7652   7662     1  0.0000000  0.6694400  3
   7647   7646   7653   7655     1  0.0000000  1.0460000  1
   7647   7646   7653   7655     1  0.0000000  0.6694400  3
   7647   7646   7644   7663     1  0.0000000  0.6508444  3
   7648   7647   7666   7656     1  0.0000000  1.2552000  3
   7648   7647   7646   7650     1  0.0000000  0.6508444  3
   7649   7647   7648   7652     1  0.0000000  1.0460000  1
   7649   7647   7648   7652     1  0.0000000  0.0000000  3
   7649   7647   7648   7661     1  0.0000000  1.0460000  1
   7649   7647   7648   7661     1  0.0000000  0.0000000  3
   7649   7647   7648   7651     1  0.0000000  0.6508444  3
   7649   7647   7666   7656     1  0.0000000  1.2552000  3
   7649   7647   7646   7653     1  0.0000000  1.0460000  1
   7649   7647   7646   7653     1  0.0000000  0.0000000  3
   7649   7647   7646   7650     1  0.0000000  0.6508444  3
   7650   7646   7647   7666     1  0.0000000  0.6508444  3
   7650   7646   7653   7655     1  0.0000000  0.6973333  3
   7650   7646   7644   7664     1  0.0000000  1.0460000  1
   7650   7646   7644   7664     1  0.0000000  0.0000000  3
   7650   7646   7644   7663     1  0.0000000  0.6508444  3
   7651   7648   7652   7662     1  0.0000000  0.6973333  3
   7651   7648   7647   7666     1  0.0000000  0.6508444  3
   7653   7646   7644   7663     1  0.0000000  1.0460000  1
   7653   7646   7644   7663     1  0.0000000  0.0000000  3
   7654   7643   7644   7663     1  0.0000000  0.6508444  3
   7657   7654   7659   7660     1  0.0000000  0.6973333  3
   7657   7654   7643   7661     1  0.0000000  1.0460000  1
   7657   7654   7643   7661     1  0.0000000  0.0000000  3
   7658   7654   7659   7660     1  0.0000000  0.6973333  3
   7658   7654   7643   7661     1  0.0000000  1.0460000  1
   7658   7654   7643   7661     1  0.0000000  0.0000000  3
   7661   7648   7652   7662     1  0.0000000  0.6973333  3
   7661   7643   7644   7663     1  0.0000000  1.0460000  1
   7661   7643   7644   7663     1  0.0000000  0.0000000  3
   7663   7644   7664   7665     1  0.0000000  0.6973333  3
   7667   7669   7671   7673     1  0.0000000  0.6508444  3
   7667   7669   7671   7674     1  0.0000000  0.6508444  3
   7668   7667   7669   7671     1  0.0000000  0.0000000  2
   7668   7667   7669   7670     1  0.0000000  0.0000000  2
   7668   7667   7669   7672     1  0.0000000  0.0000000  2
   7670   7669   7671   7675     1  0.0000000  0.6508444  3
   7670   7669   7671   7673     1  0.0000000  0.6508444  3
   7670   7669   7671   7674     1  0.0000000  0.6508444  3
   7671   7675   7676   7685     1  0.0000000  1.2552000  3
   7671   7675   7676   7686     1  0.0000000  1.2552000  3
   7671   7675   7677   7678     1  0.0000000  1.2552000  3
   7671   7675   7677   7680     1  0.0000000  1.2552000  3
   7672   7669   7671   7675     1  0.0000000  0.6508444  3
   7672   7669   7671   7673     1  0.0000000  0.6508444  3
   7672   7669   7671   7674     1  0.0000000  0.6508444  3
   7673   7671   7675   7676     1  0.0000000  1.2552000  3
   7673   7671   7675   7677     1  0.0000000  1.2552000  3
   7674   7671   7675   7676     1  0.0000000  1.2552000  3
   7674   7671   7675   7677     1  0.0000000  1.2552000  3
   7675   7676   7687   7688     1  0.0000000  0.6508444  3
   7675   7676   7687   7689     1  0.0000000  0.6508444  3
   7675   7677   7679   7681     1  0.0000000  0.6508444  3
   7675   7677   7679   7682     1  0.0000000  0.6508444  3
   7676   7675   7677   7678     1  0.0000000  1.2552000  3
   7676   7675   7677   7680     1  0.0000000  1.2552000  3
   7677   7675   7676   7685     1  0.0000000  1.2552000  3
   7677   7675   7676   7686     1  0.0000000  1.2552000  3
   7678   7677   7679   7683     1  0.0000000  0.6508444  3
   7678   7677   7679   7681     1  0.0000000  0.6508444  3
   7678   7677   7679   7682     1  0.0000000  0.6508444  3
   7679   7683   7715   7705     1  180.0000771  6.0668000  2
   7679   7683   7715   7705     1  180.0000771  1.4644000  4
   7680   7677   7679   7683     1  0.0000000  0.6508444  3
   7680   7677   7679   7681     1  0.0000000  0.6508444  3
   7680   7677   7679   7682     1  0.0000000  0.6508444  3
   7681   7679   7683   7684     1  0.0000000  3.3472000  1
   7681   7679   7683   7684     1  0.0000000  0.0000000  2
   7681   7679   7683   7684     1  180.0000771  0.3347200  3
   7681   7679   7683   7715     1  180.0000771  0.0000000  2
   7682   7679   7683   7684     1  0.0000000  3.3472000  1
   7682   7679   7683   7684     1  0.0000000  0.0000000  2
   7682   7679   7683   7684     1  180.0000771  0.3347200  3
   7682   7679   7683   7715     1  180.0000771  0.0000000  2
   7683   7715   7696   7698     1  0.0000000  1.2552000  3
   7684   7683   7715   7705     1  180.0000771  6.0668000  2
   7684   7683   7715   7705     1  180.0000771  1.4644000  4
   7685   7676   7687   7690     1  0.0000000  0.6508444  3
   7685   7676   7687   7688     1  0.0000000  0.6508444  3
   7685   7676   7687   7689     1  0.0000000  0.6508444  3
   7686   7676   7687   7690     1  0.0000000  0.6508444  3
   7686   7676   7687   7688     1  0.0000000  0.6508444  3
   7686   7676   7687   7689     1  0.0000000  0.6508444  3
   7687   7690   7739   7729     1  180.0000771  6.0668000  2
   7687   7690   7739   7729     1  180.0000771  1.4644000  4
   7688   7687   7690   7691     1  0.0000000  3.3472000  1
   7688   7687   7690   7691     1  0.0000000  0.0000000  2
   7688   7687   7690   7691     1  180.0000771  0.3347200  3
   7688   7687   7690   7739     1  180.0000771  0.0000000  2
   7689   7687   7690   7691     1  0.0000000  3.3472000  1
   7689   7687   7690   7691     1  0.0000000  0.0000000  2
   7689   7687   7690   7691     1  180.0000771  0.3347200  3
   7689   7687   7690   7739     1  180.0000771  0.0000000  2
   7690   7739   7720   7722     1  0.0000000  1.2552000  3
   7691   7690   7739   7729     1  180.0000771  6.0668000  2
   7691   7690   7739   7729     1  180.0000771  1.4644000  4
   7692   7693   7695   7699     1  0.0000000  0.6508444  3
   7692   7693   7713   7714     1  0.0000000  1.0460000  1
   7692   7693   7713   7714     1  0.0000000  0.6694400  3
   7692   7703   7708   7709     1  0.0000000  1.0460000  1
   7692   7703   7708   7709     1  0.0000000  0.6694400  3
   7692   7710   7697   7700     1  0.0000000  1.6038667  3
   7693   7692   7703   7706     1  0.0000000  0.6508444  3
   7693   7692   7703   7707     1  0.0000000  0.6508444  3
   7693   7695   7696   7698     1  0.0000000  0.6508444  3
   7693   7695   7702   7704     1  0.0000000  1.0460000  1
   7693   7695   7702   7704     1  0.0000000  0.6694400  3
   7694   7692   7693   7695     1  0.0000000  0.6508444  3
   7694   7692   7693   7713     1  0.0000000  1.0460000  1
   7694   7692   7693   7713     1  0.0000000  0.0000000  3
   7694   7692   7693   7712     1  0.0000000  0.6508444  3
   7694   7692   7703   7708     1  0.0000000  1.0460000  1
   7694   7692   7703   7708     1  0.0000000  0.0000000  3
   7694   7692   7703   7706     1  0.0000000  0.6508444  3
   7694   7692   7703   7707     1  0.0000000  0.6508444  3
   7694   7692   7710   7697     1  0.0000000  1.6038667  3
   7695   7693   7713   7714     1  0.0000000  1.0460000  1
   7695   7693   7713   7714     1  0.0000000  0.6694400  3
   7695   7696   7697   7700     1  0.0000000  0.6508444  3
   7695   7696   7715   7705     1  0.0000000  1.2552000  3
   7696   7695   7693   7712     1  0.0000000  0.6508444  3
   7696   7695   7702   7704     1  0.0000000  1.0460000  1
   7696   7695   7702   7704     1  0.0000000  0.6694400  3
   7696   7697   7701   7711     1  0.0000000  1.0460000  1
   7696   7697   7701   7711     1  0.0000000  0.6694400  3
   7697   7696   7695   7699     1  0.0000000  0.6508444  3
   7697   7696   7715   7705     1  0.0000000  1.2552000  3
   7698   7696   7695   7702     1  0.0000000  1.0460000  1
   7698   7696   7695   7702     1  0.0000000  0.0000000  3
   7698   7696   7695   7699     1  0.0000000  0.6508444  3
   7698   7696   7697   7701     1  0.0000000  1.0460000  1
   7698   7696   7697   7701     1  0.0000000  0.0000000  3
   7698   7696   7697   7710     1  0.0000000  1.0460000  1
   7698   7696   7697   7710     1  0.0000000  0.0000000  3
   7698   7696   7697   7700     1  0.0000000  0.6508444  3
   7698   7696   7715   7705     1  0.0000000  1.2552000  3
   7699   7695   7693   7713     1  0.0000000  1.0460000  1
   7699   7695   7693   7713     1  0.0000000  0.0000000  3
   7699   7695   7693   7712     1  0.0000000  0.6508444  3
   7699   7695   7696   7715     1  0.0000000  0.6508444  3
   7699   7695   7702   7704     1  0.0000000  0.6973333  3
   7700   7697   7696   7715     1  0.0000000  0.6508444  3
   7700   7697   7701   7711     1  0.0000000  0.6973333  3
   7702   7695   7693   7712     1  0.0000000  1.0460000  1
   7702   7695   7693   7712     1  0.0000000  0.0000000  3
   7703   7692   7693   7712     1  0.0000000  0.6508444  3
   7706   7703   7692   7710     1  0.0000000  1.0460000  1
   7706   7703   7692   7710     1  0.0000000  0.0000000  3
   7706   7703   7708   7709     1  0.0000000  0.6973333  3
   7707   7703   7692   7710     1  0.0000000  1.0460000  1
   7707   7703   7692   7710     1  0.0000000  0.0000000  3
   7707   7703   7708   7709     1  0.0000000  0.6973333  3
   7710   7692   7693   7712     1  0.0000000  1.0460000  1
   7710   7692   7693   7712     1  0.0000000  0.0000000  3
   7710   7697   7701   7711     1  0.0000000  0.6973333  3
   7712   7693   7713   7714     1  0.0000000  0.6973333  3
   7716   7717   7719   7723     1  0.0000000  0.6508444  3
   7716   7717   7737   7738     1  0.0000000  1.0460000  1
   7716   7717   7737   7738     1  0.0000000  0.6694400  3
   7716   7727   7732   7733     1  0.0000000  1.0460000  1
   7716   7727   7732   7733     1  0.0000000  0.6694400  3
   7716   7734   7721   7724     1  0.0000000  1.6038667  3
   7717   7716   7727   7730     1  0.0000000  0.6508444  3
   7717   7716   7727   7731     1  0.0000000  0.6508444  3
   7717   7719   7720   7722     1  0.0000000  0.6508444  3
   7717   7719   7726   7728     1  0.0000000  1.0460000  1
   7717   7719   7726   7728     1  0.0000000  0.6694400  3
   7718   7716   7717   7719     1  0.0000000  0.6508444  3
   7718   7716   7717   7737     1  0.0000000  1.0460000  1
   7718   7716   7717   7737     1  0.0000000  0.0000000  3
   7718   7716   7717   7736     1  0.0000000  0.6508444  3
   7718   7716   7727   7732     1  0.0000000  1.0460000  1
   7718   7716   7727   7732     1  0.0000000  0.0000000  3
   7718   7716   7727   7730     1  0.0000000  0.6508444  3
   7718   7716   7727   7731     1  0.0000000  0.6508444  3
   7718   7716   7734   7721     1  0.0000000  1.6038667  3
   7719   7717   7737   7738     1  0.0000000  1.0460000  1
   7719   7717   7737   7738     1  0.0000000  0.6694400  3
   7719   7720   7721   7724     1  0.0000000  0.6508444  3
   7719   7720   7739   7729     1  0.0000000  1.2552000  3
   7720   7719   7717   7736     1  0.0000000  0.6508444  3
   7720   7719   7726   7728     1  0.0000000  1.0460000  1
   7720   7719   7726   7728     1  0.0000000  0.6694400  3
   7720   7721   7725   7735     1  0.0000000  1.0460000  1
   7720   7721   7725   7735     1  0.0000000  0.6694400  3
   7721   7720   7719   7723     1  0.0000000  0.6508444  3
   7721   7720   7739   7729     1  0.0000000  1.2552000  3
   7722   7720   7719   7726     1  0.0000000  1.0460000  1
   7722   7720   7719   7726     1  0.0000000  0.0000000  3
   7722   7720   7719   7723     1  0.0000000  0.6508444  3
   7722   7720   7721   7725     1  0.0000000  1.0460000  1
   7722   7720   7721   7725     1  0.0000000  0.0000000  3
   7722   7720   7721   7734     1  0.0000000  1.0460000  1
   7722   7720   7721   7734     1  0.0000000  0.0000000  3
   7722   7720   7721   7724     1  0.0000000  0.6508444  3
   7722   7720   7739   7729     1  0.0000000  1.2552000  3
   7723   7719   7717   7737     1  0.0000000  1.0460000  1
   7723   7719   7717   7737     1  0.0000000  0.0000000  3
   7723   7719   7717   7736     1  0.0000000  0.6508444  3
   7723   7719   7720   7739     1  0.0000000  0.6508444  3
   7723   7719   7726   7728     1  0.0000000  0.6973333  3
   7724   7721   7720   7739     1  0.0000000  0.6508444  3
   7724   7721   7725   7735     1  0.0000000  0.6973333  3
   7726   7719   7717   7736     1  0.0000000  1.0460000  1
   7726   7719   7717   7736     1  0.0000000  0.0000000  3
   7727   7716   7717   7736     1  0.0000000  0.6508444  3
   7730   7727   7716   7734     1  0.0000000  1.0460000  1
   7730   7727   7716   7734     1  0.0000000  0.0000000  3
   7730   7727   7732   7733     1  0.0000000  0.6973333  3
   7731   7727   7716   7734     1  0.0000000  1.0460000  1
   7731   7727   7716   7734     1  0.0000000  0.0000000  3
   7731   7727   7732   7733     1  0.0000000  0.6973333  3
   7734   7716   7717   7736     1  0.0000000  1.0460000  1
   7734   7716   7717   7736     1  0.0000000  0.0000000  3
   7734   7721   7725   7735     1  0.0000000  0.6973333  3
   7736   7717   7737   7738     1  0.0000000  0.6973333  3
   7740   7742   7744   7746     1  0.0000000  0.6508444  3
   7740   7742   7744   7747     1  0.0000000  0.6508444  3
   7741   7740   7742   7744     1  0.0000000  0.0000000  2
   7741   7740   7742   7743     1  0.0000000  0.0000000  2
   7741   7740   7742   7745     1  0.0000000  0.0000000  2
   7743   7742   7744   7748     1  0.0000000  0.6508444  3
   7743   7742   7744   7746     1  0.0000000  0.6508444  3
   7743   7742   7744   7747     1  0.0000000  0.6508444  3
   7744   7748   7749   7758     1  0.0000000  1.2552000  3
   7744   7748   7749   7759     1  0.0000000  1.2552000  3
   7744   7748   7750   7751     1  0.0000000  1.2552000  3
   7744   7748   7750   7753     1  0.0000000  1.2552000  3
   7745   7742   7744   7748     1  0.0000000  0.6508444  3
   7745   7742   7744   7746     1  0.0000000  0.6508444  3
   7745   7742   7744   7747     1  0.0000000  0.6508444  3
   7746   7744   7748   7749     1  0.0000000  1.2552000  3
   7746   7744   7748   7750     1  0.0000000  1.2552000  3
   7747   7744   7748   7749     1  0.0000000  1.2552000  3
   7747   7744   7748   7750     1  0.0000000  1.2552000  3
   7748   7749   7760   7761     1  0.0000000  0.6508444  3
   7748   7749   7760   7762     1  0.0000000  0.6508444  3
   7748   7750   7752   7754     1  0.0000000  0.6508444  3
   7748   7750   7752   7755     1  0.0000000  0.6508444  3
   7749   7748   7750   7751     1  0.0000000  1.2552000  3
   7749   7748   7750   7753     1  0.0000000  1.2552000  3
   7750   7748   7749   7758     1  0.0000000  1.2552000  3
   7750   7748   7749   7759     1  0.0000000  1.2552000  3
   7751   7750   7752   7756     1  0.0000000  0.6508444  3
   7751   7750   7752   7754     1  0.0000000  0.6508444  3
   7751   7750   7752   7755     1  0.0000000  0.6508444  3
   7752   7756   7788   7778     1  180.0000771  6.0668000  2
   7752   7756   7788   7778     1  180.0000771  1.4644000  4
   7753   7750   7752   7756     1  0.0000000  0.6508444  3
   7753   7750   7752   7754     1  0.0000000  0.6508444  3
   7753   7750   7752   7755     1  0.0000000  0.6508444  3
   7754   7752   7756   7757     1  0.0000000  3.3472000  1
   7754   7752   7756   7757     1  0.0000000  0.0000000  2
   7754   7752   7756   7757     1  180.0000771  0.3347200  3
   7754   7752   7756   7788     1  180.0000771  0.0000000  2
   7755   7752   7756   7757     1  0.0000000  3.3472000  1
   7755   7752   7756   7757     1  0.0000000  0.0000000  2
   7755   7752   7756   7757     1  180.0000771  0.3347200  3
   7755   7752   7756   7788     1  180.0000771  0.0000000  2
   7756   7788   7769   7771     1  0.0000000  1.2552000  3
   7757   7756   7788   7778     1  180.0000771  6.0668000  2
   7757   7756   7788   7778     1  180.0000771  1.4644000  4
   7758   7749   7760   7763     1  0.0000000  0.6508444  3
   7758   7749   7760   7761     1  0.0000000  0.6508444  3
   7758   7749   7760   7762     1  0.0000000  0.6508444  3
   7759   7749   7760   7763     1  0.0000000  0.6508444  3
   7759   7749   7760   7761     1  0.0000000  0.6508444  3
   7759   7749   7760   7762     1  0.0000000  0.6508444  3
   7760   7763   7812   7802     1  180.0000771  6.0668000  2
   7760   7763   7812   7802     1  180.0000771  1.4644000  4
   7761   7760   7763   7764     1  0.0000000  3.3472000  1
   7761   7760   7763   7764     1  0.0000000  0.0000000  2
   7761   7760   7763   7764     1  180.0000771  0.3347200  3
   7761   7760   7763   7812     1  180.0000771  0.0000000  2
   7762   7760   7763   7764     1  0.0000000  3.3472000  1
   7762   7760   7763   7764     1  0.0000000  0.0000000  2
   7762   7760   7763   7764     1  180.0000771  0.3347200  3
   7762   7760   7763   7812     1  180.0000771  0.0000000  2
   7763   7812   7793   7795     1  0.0000000  1.2552000  3
   7764   7763   7812   7802     1  180.0000771  6.0668000  2
   7764   7763   7812   7802     1  180.0000771  1.4644000  4
   7765   7766   7768   7772     1  0.0000000  0.6508444  3
   7765   7766   7786   7787     1  0.0000000  1.0460000  1
   7765   7766   7786   7787     1  0.0000000  0.6694400  3
   7765   7776   7781   7782     1  0.0000000  1.0460000  1
   7765   7776   7781   7782     1  0.0000000  0.6694400  3
   7765   7783   7770   7773     1  0.0000000  1.6038667  3
   7766   7768   7769   7771     1  0.0000000  0.6508444  3
   7766   7768   7775   7777     1  0.0000000  1.0460000  1
   7766   7768   7775   7777     1  0.0000000  0.6694400  3
   7766   7765   7776   7779     1  0.0000000  0.6508444  3
   7766   7765   7776   7780     1  0.0000000  0.6508444  3
   7767   7765   7766   7768     1  0.0000000  0.6508444  3
   7767   7765   7766   7786     1  0.0000000  1.0460000  1
   7767   7765   7766   7786     1  0.0000000  0.0000000  3
   7767   7765   7766   7785     1  0.0000000  0.6508444  3
   7767   7765   7776   7781     1  0.0000000  1.0460000  1
   7767   7765   7776   7781     1  0.0000000  0.0000000  3
   7767   7765   7776   7779     1  0.0000000  0.6508444  3
   7767   7765   7776   7780     1  0.0000000  0.6508444  3
   7767   7765   7783   7770     1  0.0000000  1.6038667  3
   7768   7769   7770   7773     1  0.0000000  0.6508444  3
   7768   7769   7788   7778     1  0.0000000  1.2552000  3
   7768   7766   7786   7787     1  0.0000000  1.0460000  1
   7768   7766   7786   7787     1  0.0000000  0.6694400  3
   7769   7770   7774   7784     1  0.0000000  1.0460000  1
   7769   7770   7774   7784     1  0.0000000  0.6694400  3
   7769   7768   7775   7777     1  0.0000000  1.0460000  1
   7769   7768   7775   7777     1  0.0000000  0.6694400  3
   7769   7768   7766   7785     1  0.0000000  0.6508444  3
   7770   7769   7788   7778     1  0.0000000  1.2552000  3
   7770   7769   7768   7772     1  0.0000000  0.6508444  3
   7771   7769   7770   7774     1  0.0000000  1.0460000  1
   7771   7769   7770   7774     1  0.0000000  0.0000000  3
   7771   7769   7770   7783     1  0.0000000  1.0460000  1
   7771   7769   7770   7783     1  0.0000000  0.0000000  3
   7771   7769   7770   7773     1  0.0000000  0.6508444  3
   7771   7769   7788   7778     1  0.0000000  1.2552000  3
   7771   7769   7768   7775     1  0.0000000  1.0460000  1
   7771   7769   7768   7775     1  0.0000000  0.0000000  3
   7771   7769   7768   7772     1  0.0000000  0.6508444  3
   7772   7768   7769   7788     1  0.0000000  0.6508444  3
   7772   7768   7775   7777     1  0.0000000  0.6973333  3
   7772   7768   7766   7786     1  0.0000000  1.0460000  1
   7772   7768   7766   7786     1  0.0000000  0.0000000  3
   7772   7768   7766   7785     1  0.0000000  0.6508444  3
   7773   7770   7774   7784     1  0.0000000  0.6973333  3
   7773   7770   7769   7788     1  0.0000000  0.6508444  3
   7775   7768   7766   7785     1  0.0000000  1.0460000  1
   7775   7768   7766   7785     1  0.0000000  0.0000000  3
   7776   7765   7766   7785     1  0.0000000  0.6508444  3
   7779   7776   7781   7782     1  0.0000000  0.6973333  3
   7779   7776   7765   7783     1  0.0000000  1.0460000  1
   7779   7776   7765   7783     1  0.0000000  0.0000000  3
   7780   7776   7781   7782     1  0.0000000  0.6973333  3
   7780   7776   7765   7783     1  0.0000000  1.0460000  1
   7780   7776   7765   7783     1  0.0000000  0.0000000  3
   7783   7770   7774   7784     1  0.0000000  0.6973333  3
   7783   7765   7766   7785     1  0.0000000  1.0460000  1
   7783   7765   7766   7785     1  0.0000000  0.0000000  3
   7785   7766   7786   7787     1  0.0000000  0.6973333  3
   7789   7790   7792   7796     1  0.0000000  0.6508444  3
   7789   7790   7810   7811     1  0.0000000  1.0460000  1
   7789   7790   7810   7811     1  0.0000000  0.6694400  3
   7789   7800   7805   7806     1  0.0000000  1.0460000  1
   7789   7800   7805   7806     1  0.0000000  0.6694400  3
   7789   7807   7794   7797     1  0.0000000  1.6038667  3
   7790   7792   7793   7795     1  0.0000000  0.6508444  3
   7790   7792   7799   7801     1  0.0000000  1.0460000  1
   7790   7792   7799   7801     1  0.0000000  0.6694400  3
   7790   7789   7800   7803     1  0.0000000  0.6508444  3
   7790   7789   7800   7804     1  0.0000000  0.6508444  3
   7791   7789   7790   7792     1  0.0000000  0.6508444  3
   7791   7789   7790   7810     1  0.0000000  1.0460000  1
   7791   7789   7790   7810     1  0.0000000  0.0000000  3
   7791   7789   7790   7809     1  0.0000000  0.6508444  3
   7791   7789   7800   7805     1  0.0000000  1.0460000  1
   7791   7789   7800   7805     1  0.0000000  0.0000000  3
   7791   7789   7800   7803     1  0.0000000  0.6508444  3
   7791   7789   7800   7804     1  0.0000000  0.6508444  3
   7791   7789   7807   7794     1  0.0000000  1.6038667  3
   7792   7793   7794   7797     1  0.0000000  0.6508444  3
   7792   7793   7812   7802     1  0.0000000  1.2552000  3
   7792   7790   7810   7811     1  0.0000000  1.0460000  1
   7792   7790   7810   7811     1  0.0000000  0.6694400  3
   7793   7794   7798   7808     1  0.0000000  1.0460000  1
   7793   7794   7798   7808     1  0.0000000  0.6694400  3
   7793   7792   7799   7801     1  0.0000000  1.0460000  1
   7793   7792   7799   7801     1  0.0000000  0.6694400  3
   7793   7792   7790   7809     1  0.0000000  0.6508444  3
   7794   7793   7812   7802     1  0.0000000  1.2552000  3
   7794   7793   7792   7796     1  0.0000000  0.6508444  3
   7795   7793   7794   7798     1  0.0000000  1.0460000  1
   7795   7793   7794   7798     1  0.0000000  0.0000000  3
   7795   7793   7794   7807     1  0.0000000  1.0460000  1
   7795   7793   7794   7807     1  0.0000000  0.0000000  3
   7795   7793   7794   7797     1  0.0000000  0.6508444  3
   7795   7793   7812   7802     1  0.0000000  1.2552000  3
   7795   7793   7792   7799     1  0.0000000  1.0460000  1
   7795   7793   7792   7799     1  0.0000000  0.0000000  3
   7795   7793   7792   7796     1  0.0000000  0.6508444  3
   7796   7792   7793   7812     1  0.0000000  0.6508444  3
   7796   7792   7799   7801     1  0.0000000  0.6973333  3
   7796   7792   7790   7810     1  0.0000000  1.0460000  1
   7796   7792   7790   7810     1  0.0000000  0.0000000  3
   7796   7792   7790   7809     1  0.0000000  0.6508444  3
   7797   7794   7798   7808     1  0.0000000  0.6973333  3
   7797   7794   7793   7812     1  0.0000000  0.6508444  3
   7799   7792   7790   7809     1  0.0000000  1.0460000  1
   7799   7792   7790   7809     1  0.0000000  0.0000000  3
   7800   7789   7790   7809     1  0.0000000  0.6508444  3
   7803   7800   7805   7806     1  0.0000000  0.6973333  3
   7803   7800   7789   7807     1  0.0000000  1.0460000  1
   7803   7800   7789   7807     1  0.0000000  0.0000000  3
   7804   7800   7805   7806     1  0.0000000  0.6973333  3
   7804   7800   7789   7807     1  0.0000000  1.0460000  1
   7804   7800   7789   7807     1  0.0000000  0.0000000  3
   7807   7794   7798   7808     1  0.0000000  0.6973333  3
   7807   7789   7790   7809     1  0.0000000  1.0460000  1
   7807   7789   7790   7809     1  0.0000000  0.0000000  3
   7809   7790   7810   7811     1  0.0000000  0.6973333  3
   7813   7815   7817   7819     1  0.0000000  0.6508444  3
   7813   7815   7817   7820     1  0.0000000  0.6508444  3
   7814   7813   7815   7817     1  0.0000000  0.0000000  2
   7814   7813   7815   7816     1  0.0000000  0.0000000  2
   7814   7813   7815   7818     1  0.0000000  0.0000000  2
   7816   7815   7817   7821     1  0.0000000  0.6508444  3
   7816   7815   7817   7819     1  0.0000000  0.6508444  3
   7816   7815   7817   7820     1  0.0000000  0.6508444  3
   7817   7821   7822   7831     1  0.0000000  1.2552000  3
   7817   7821   7822   7832     1  0.0000000  1.2552000  3
   7817   7821   7823   7824     1  0.0000000  1.2552000  3
   7817   7821   7823   7826     1  0.0000000  1.2552000  3
   7818   7815   7817   7821     1  0.0000000  0.6508444  3
   7818   7815   7817   7819     1  0.0000000  0.6508444  3
   7818   7815   7817   7820     1  0.0000000  0.6508444  3
   7819   7817   7821   7822     1  0.0000000  1.2552000  3
   7819   7817   7821   7823     1  0.0000000  1.2552000  3
   7820   7817   7821   7822     1  0.0000000  1.2552000  3
   7820   7817   7821   7823     1  0.0000000  1.2552000  3
   7821   7822   7833   7834     1  0.0000000  0.6508444  3
   7821   7822   7833   7835     1  0.0000000  0.6508444  3
   7821   7823   7825   7827     1  0.0000000  0.6508444  3
   7821   7823   7825   7828     1  0.0000000  0.6508444  3
   7822   7821   7823   7824     1  0.0000000  1.2552000  3
   7822   7821   7823   7826     1  0.0000000  1.2552000  3
   7823   7821   7822   7831     1  0.0000000  1.2552000  3
   7823   7821   7822   7832     1  0.0000000  1.2552000  3
   7824   7823   7825   7829     1  0.0000000  0.6508444  3
   7824   7823   7825   7827     1  0.0000000  0.6508444  3
   7824   7823   7825   7828     1  0.0000000  0.6508444  3
   7825   7829   7861   7851     1  180.0000771  6.0668000  2
   7825   7829   7861   7851     1  180.0000771  1.4644000  4
   7826   7823   7825   7829     1  0.0000000  0.6508444  3
   7826   7823   7825   7827     1  0.0000000  0.6508444  3
   7826   7823   7825   7828     1  0.0000000  0.6508444  3
   7827   7825   7829   7830     1  0.0000000  3.3472000  1
   7827   7825   7829   7830     1  0.0000000  0.0000000  2
   7827   7825   7829   7830     1  180.0000771  0.3347200  3
   7827   7825   7829   7861     1  180.0000771  0.0000000  2
   7828   7825   7829   7830     1  0.0000000  3.3472000  1
   7828   7825   7829   7830     1  0.0000000  0.0000000  2
   7828   7825   7829   7830     1  180.0000771  0.3347200  3
   7828   7825   7829   7861     1  180.0000771  0.0000000  2
   7829   7861   7842   7844     1  0.0000000  1.2552000  3
   7830   7829   7861   7851     1  180.0000771  6.0668000  2
   7830   7829   7861   7851     1  180.0000771  1.4644000  4
   7831   7822   7833   7836     1  0.0000000  0.6508444  3
   7831   7822   7833   7834     1  0.0000000  0.6508444  3
   7831   7822   7833   7835     1  0.0000000  0.6508444  3
   7832   7822   7833   7836     1  0.0000000  0.6508444  3
   7832   7822   7833   7834     1  0.0000000  0.6508444  3
   7832   7822   7833   7835     1  0.0000000  0.6508444  3
   7833   7836   7885   7875     1  180.0000771  6.0668000  2
   7833   7836   7885   7875     1  180.0000771  1.4644000  4
   7834   7833   7836   7837     1  0.0000000  3.3472000  1
   7834   7833   7836   7837     1  0.0000000  0.0000000  2
   7834   7833   7836   7837     1  180.0000771  0.3347200  3
   7834   7833   7836   7885     1  180.0000771  0.0000000  2
   7835   7833   7836   7837     1  0.0000000  3.3472000  1
   7835   7833   7836   7837     1  0.0000000  0.0000000  2
   7835   7833   7836   7837     1  180.0000771  0.3347200  3
   7835   7833   7836   7885     1  180.0000771  0.0000000  2
   7836   7885   7866   7868     1  0.0000000  1.2552000  3
   7837   7836   7885   7875     1  180.0000771  6.0668000  2
   7837   7836   7885   7875     1  180.0000771  1.4644000  4
   7838   7839   7841   7845     1  0.0000000  0.6508444  3
   7838   7839   7859   7860     1  0.0000000  1.0460000  1
   7838   7839   7859   7860     1  0.0000000  0.6694400  3
   7838   7849   7854   7855     1  0.0000000  1.0460000  1
   7838   7849   7854   7855     1  0.0000000  0.6694400  3
   7838   7856   7843   7846     1  0.0000000  1.6038667  3
   7839   7838   7849   7852     1  0.0000000  0.6508444  3
   7839   7838   7849   7853     1  0.0000000  0.6508444  3
   7839   7841   7842   7844     1  0.0000000  0.6508444  3
   7839   7841   7848   7850     1  0.0000000  1.0460000  1
   7839   7841   7848   7850     1  0.0000000  0.6694400  3
   7840   7838   7839   7841     1  0.0000000  0.6508444  3
   7840   7838   7839   7859     1  0.0000000  1.0460000  1
   7840   7838   7839   7859     1  0.0000000  0.0000000  3
   7840   7838   7839   7858     1  0.0000000  0.6508444  3
   7840   7838   7849   7854     1  0.0000000  1.0460000  1
   7840   7838   7849   7854     1  0.0000000  0.0000000  3
   7840   7838   7849   7852     1  0.0000000  0.6508444  3
   7840   7838   7849   7853     1  0.0000000  0.6508444  3
   7840   7838   7856   7843     1  0.0000000  1.6038667  3
   7841   7839   7859   7860     1  0.0000000  1.0460000  1
   7841   7839   7859   7860     1  0.0000000  0.6694400  3
   7841   7842   7843   7846     1  0.0000000  0.6508444  3
   7841   7842   7861   7851     1  0.0000000  1.2552000  3
   7842   7841   7839   7858     1  0.0000000  0.6508444  3
   7842   7841   7848   7850     1  0.0000000  1.0460000  1
   7842   7841   7848   7850     1  0.0000000  0.6694400  3
   7842   7843   7847   7857     1  0.0000000  1.0460000  1
   7842   7843   7847   7857     1  0.0000000  0.6694400  3
   7843   7842   7841   7845     1  0.0000000  0.6508444  3
   7843   7842   7861   7851     1  0.0000000  1.2552000  3
   7844   7842   7841   7848     1  0.0000000  1.0460000  1
   7844   7842   7841   7848     1  0.0000000  0.0000000  3
   7844   7842   7841   7845     1  0.0000000  0.6508444  3
   7844   7842   7843   7847     1  0.0000000  1.0460000  1
   7844   7842   7843   7847     1  0.0000000  0.0000000  3
   7844   7842   7843   7856     1  0.0000000  1.0460000  1
   7844   7842   7843   7856     1  0.0000000  0.0000000  3
   7844   7842   7843   7846     1  0.0000000  0.6508444  3
   7844   7842   7861   7851     1  0.0000000  1.2552000  3
   7845   7841   7839   7859     1  0.0000000  1.0460000  1
   7845   7841   7839   7859     1  0.0000000  0.0000000  3
   7845   7841   7839   7858     1  0.0000000  0.6508444  3
   7845   7841   7842   7861     1  0.0000000  0.6508444  3
   7845   7841   7848   7850     1  0.0000000  0.6973333  3
   7846   7843   7842   7861     1  0.0000000  0.6508444  3
   7846   7843   7847   7857     1  0.0000000  0.6973333  3
   7848   7841   7839   7858     1  0.0000000  1.0460000  1
   7848   7841   7839   7858     1  0.0000000  0.0000000  3
   7849   7838   7839   7858     1  0.0000000  0.6508444  3
   7852   7849   7838   7856     1  0.0000000  1.0460000  1
   7852   7849   7838   7856     1  0.0000000  0.0000000  3
   7852   7849   7854   7855     1  0.0000000  0.6973333  3
   7853   7849   7838   7856     1  0.0000000  1.0460000  1
   7853   7849   7838   7856     1  0.0000000  0.0000000  3
   7853   7849   7854   7855     1  0.0000000  0.6973333  3
   7856   7838   7839   7858     1  0.0000000  1.0460000  1
   7856   7838   7839   7858     1  0.0000000  0.0000000  3
   7856   7843   7847   7857     1  0.0000000  0.6973333  3
   7858   7839   7859   7860     1  0.0000000  0.6973333  3
   7862   7863   7865   7869     1  0.0000000  0.6508444  3
   7862   7863   7883   7884     1  0.0000000  1.0460000  1
   7862   7863   7883   7884     1  0.0000000  0.6694400  3
   7862   7873   7878   7879     1  0.0000000  1.0460000  1
   7862   7873   7878   7879     1  0.0000000  0.6694400  3
   7862   7880   7867   7870     1  0.0000000  1.6038667  3
   7863   7862   7873   7876     1  0.0000000  0.6508444  3
   7863   7862   7873   7877     1  0.0000000  0.6508444  3
   7863   7865   7866   7868     1  0.0000000  0.6508444  3
   7863   7865   7872   7874     1  0.0000000  1.0460000  1
   7863   7865   7872   7874     1  0.0000000  0.6694400  3
   7864   7862   7863   7865     1  0.0000000  0.6508444  3
   7864   7862   7863   7883     1  0.0000000  1.0460000  1
   7864   7862   7863   7883     1  0.0000000  0.0000000  3
   7864   7862   7863   7882     1  0.0000000  0.6508444  3
   7864   7862   7873   7878     1  0.0000000  1.0460000  1
   7864   7862   7873   7878     1  0.0000000  0.0000000  3
   7864   7862   7873   7876     1  0.0000000  0.6508444  3
   7864   7862   7873   7877     1  0.0000000  0.6508444  3
   7864   7862   7880   7867     1  0.0000000  1.6038667  3
   7865   7863   7883   7884     1  0.0000000  1.0460000  1
   7865   7863   7883   7884     1  0.0000000  0.6694400  3
   7865   7866   7867   7870     1  0.0000000  0.6508444  3
   7865   7866   7885   7875     1  0.0000000  1.2552000  3
   7866   7865   7863   7882     1  0.0000000  0.6508444  3
   7866   7865   7872   7874     1  0.0000000  1.0460000  1
   7866   7865   7872   7874     1  0.0000000  0.6694400  3
   7866   7867   7871   7881     1  0.0000000  1.0460000  1
   7866   7867   7871   7881     1  0.0000000  0.6694400  3
   7867   7866   7865   7869     1  0.0000000  0.6508444  3
   7867   7866   7885   7875     1  0.0000000  1.2552000  3
   7868   7866   7865   7872     1  0.0000000  1.0460000  1
   7868   7866   7865   7872     1  0.0000000  0.0000000  3
   7868   7866   7865   7869     1  0.0000000  0.6508444  3
   7868   7866   7867   7871     1  0.0000000  1.0460000  1
   7868   7866   7867   7871     1  0.0000000  0.0000000  3
   7868   7866   7867   7880     1  0.0000000  1.0460000  1
   7868   7866   7867   7880     1  0.0000000  0.0000000  3
   7868   7866   7867   7870     1  0.0000000  0.6508444  3
   7868   7866   7885   7875     1  0.0000000  1.2552000  3
   7869   7865   7863   7883     1  0.0000000  1.0460000  1
   7869   7865   7863   7883     1  0.0000000  0.0000000  3
   7869   7865   7863   7882     1  0.0000000  0.6508444  3
   7869   7865   7866   7885     1  0.0000000  0.6508444  3
   7869   7865   7872   7874     1  0.0000000  0.6973333  3
   7870   7867   7866   7885     1  0.0000000  0.6508444  3
   7870   7867   7871   7881     1  0.0000000  0.6973333  3
   7872   7865   7863   7882     1  0.0000000  1.0460000  1
   7872   7865   7863   7882     1  0.0000000  0.0000000  3
   7873   7862   7863   7882     1  0.0000000  0.6508444  3
   7876   7873   7862   7880     1  0.0000000  1.0460000  1
   7876   7873   7862   7880     1  0.0000000  0.0000000  3
   7876   7873   7878   7879     1  0.0000000  0.6973333  3
   7877   7873   7862   7880     1  0.0000000  1.0460000  1
   7877   7873   7862   7880     1  0.0000000  0.0000000  3
   7877   7873   7878   7879     1  0.0000000  0.6973333  3
   7880   7862   7863   7882     1  0.0000000  1.0460000  1
   7880   7862   7863   7882     1  0.0000000  0.0000000  3
   7880   7867   7871   7881     1  0.0000000  0.6973333  3
   7882   7863   7883   7884     1  0.0000000  0.6973333  3
   7886   7888   7890   7892     1  0.0000000  0.6508444  3
   7886   7888   7890   7893     1  0.0000000  0.6508444  3
   7887   7886   7888   7890     1  0.0000000  0.0000000  2
   7887   7886   7888   7889     1  0.0000000  0.0000000  2
   7887   7886   7888   7891     1  0.0000000  0.0000000  2
   7889   7888   7890   7894     1  0.0000000  0.6508444  3
   7889   7888   7890   7892     1  0.0000000  0.6508444  3
   7889   7888   7890   7893     1  0.0000000  0.6508444  3
   7890   7894   7895   7904     1  0.0000000  1.2552000  3
   7890   7894   7895   7905     1  0.0000000  1.2552000  3
   7890   7894   7896   7897     1  0.0000000  1.2552000  3
   7890   7894   7896   7899     1  0.0000000  1.2552000  3
   7891   7888   7890   7894     1  0.0000000  0.6508444  3
   7891   7888   7890   7892     1  0.0000000  0.6508444  3
   7891   7888   7890   7893     1  0.0000000  0.6508444  3
   7892   7890   7894   7895     1  0.0000000  1.2552000  3
   7892   7890   7894   7896     1  0.0000000  1.2552000  3
   7893   7890   7894   7895     1  0.0000000  1.2552000  3
   7893   7890   7894   7896     1  0.0000000  1.2552000  3
   7894   7895   7906   7907     1  0.0000000  0.6508444  3
   7894   7895   7906   7908     1  0.0000000  0.6508444  3
   7894   7896   7898   7900     1  0.0000000  0.6508444  3
   7894   7896   7898   7901     1  0.0000000  0.6508444  3
   7895   7894   7896   7897     1  0.0000000  1.2552000  3
   7895   7894   7896   7899     1  0.0000000  1.2552000  3
   7896   7894   7895   7904     1  0.0000000  1.2552000  3
   7896   7894   7895   7905     1  0.0000000  1.2552000  3
   7897   7896   7898   7902     1  0.0000000  0.6508444  3
   7897   7896   7898   7900     1  0.0000000  0.6508444  3
   7897   7896   7898   7901     1  0.0000000  0.6508444  3
   7898   7902   7934   7924     1  180.0000771  6.0668000  2
   7898   7902   7934   7924     1  180.0000771  1.4644000  4
   7899   7896   7898   7902     1  0.0000000  0.6508444  3
   7899   7896   7898   7900     1  0.0000000  0.6508444  3
   7899   7896   7898   7901     1  0.0000000  0.6508444  3
   7900   7898   7902   7903     1  0.0000000  3.3472000  1
   7900   7898   7902   7903     1  0.0000000  0.0000000  2
   7900   7898   7902   7903     1  180.0000771  0.3347200  3
   7900   7898   7902   7934     1  180.0000771  0.0000000  2
   7901   7898   7902   7903     1  0.0000000  3.3472000  1
   7901   7898   7902   7903     1  0.0000000  0.0000000  2
   7901   7898   7902   7903     1  180.0000771  0.3347200  3
   7901   7898   7902   7934     1  180.0000771  0.0000000  2
   7902   7934   7915   7917     1  0.0000000  1.2552000  3
   7903   7902   7934   7924     1  180.0000771  6.0668000  2
   7903   7902   7934   7924     1  180.0000771  1.4644000  4
   7904   7895   7906   7909     1  0.0000000  0.6508444  3
   7904   7895   7906   7907     1  0.0000000  0.6508444  3
   7904   7895   7906   7908     1  0.0000000  0.6508444  3
   7905   7895   7906   7909     1  0.0000000  0.6508444  3
   7905   7895   7906   7907     1  0.0000000  0.6508444  3
   7905   7895   7906   7908     1  0.0000000  0.6508444  3
   7906   7909   7958   7948     1  180.0000771  6.0668000  2
   7906   7909   7958   7948     1  180.0000771  1.4644000  4
   7907   7906   7909   7910     1  0.0000000  3.3472000  1
   7907   7906   7909   7910     1  0.0000000  0.0000000  2
   7907   7906   7909   7910     1  180.0000771  0.3347200  3
   7907   7906   7909   7958     1  180.0000771  0.0000000  2
   7908   7906   7909   7910     1  0.0000000  3.3472000  1
   7908   7906   7909   7910     1  0.0000000  0.0000000  2
   7908   7906   7909   7910     1  180.0000771  0.3347200  3
   7908   7906   7909   7958     1  180.0000771  0.0000000  2
   7909   7958   7939   7941     1  0.0000000  1.2552000  3
   7910   7909   7958   7948     1  180.0000771  6.0668000  2
   7910   7909   7958   7948     1  180.0000771  1.4644000  4
   7911   7912   7914   7918     1  0.0000000  0.6508444  3
   7911   7912   7932   7933     1  0.0000000  1.0460000  1
   7911   7912   7932   7933     1  0.0000000  0.6694400  3
   7911   7922   7927   7928     1  0.0000000  1.0460000  1
   7911   7922   7927   7928     1  0.0000000  0.6694400  3
   7911   7929   7916   7919     1  0.0000000  1.6038667  3
   7912   7914   7915   7917     1  0.0000000  0.6508444  3
   7912   7914   7921   7923     1  0.0000000  1.0460000  1
   7912   7914   7921   7923     1  0.0000000  0.6694400  3
   7912   7911   7922   7925     1  0.0000000  0.6508444  3
   7912   7911   7922   7926     1  0.0000000  0.6508444  3
   7913   7911   7912   7914     1  0.0000000  0.6508444  3
   7913   7911   7912   7932     1  0.0000000  1.0460000  1
   7913   7911   7912   7932     1  0.0000000  0.0000000  3
   7913   7911   7912   7931     1  0.0000000  0.6508444  3
   7913   7911   7922   7927     1  0.0000000  1.0460000  1
   7913   7911   7922   7927     1  0.0000000  0.0000000  3
   7913   7911   7922   7925     1  0.0000000  0.6508444  3
   7913   7911   7922   7926     1  0.0000000  0.6508444  3
   7913   7911   7929   7916     1  0.0000000  1.6038667  3
   7914   7915   7916   7919     1  0.0000000  0.6508444  3
   7914   7915   7934   7924     1  0.0000000  1.2552000  3
   7914   7912   7932   7933     1  0.0000000  1.0460000  1
   7914   7912   7932   7933     1  0.0000000  0.6694400  3
   7915   7916   7920   7930     1  0.0000000  1.0460000  1
   7915   7916   7920   7930     1  0.0000000  0.6694400  3
   7915   7914   7921   7923     1  0.0000000  1.0460000  1
   7915   7914   7921   7923     1  0.0000000  0.6694400  3
   7915   7914   7912   7931     1  0.0000000  0.6508444  3
   7916   7915   7934   7924     1  0.0000000  1.2552000  3
   7916   7915   7914   7918     1  0.0000000  0.6508444  3
   7917   7915   7916   7920     1  0.0000000  1.0460000  1
   7917   7915   7916   7920     1  0.0000000  0.0000000  3
   7917   7915   7916   7929     1  0.0000000  1.0460000  1
   7917   7915   7916   7929     1  0.0000000  0.0000000  3
   7917   7915   7916   7919     1  0.0000000  0.6508444  3
   7917   7915   7934   7924     1  0.0000000  1.2552000  3
   7917   7915   7914   7921     1  0.0000000  1.0460000  1
   7917   7915   7914   7921     1  0.0000000  0.0000000  3
   7917   7915   7914   7918     1  0.0000000  0.6508444  3
   7918   7914   7915   7934     1  0.0000000  0.6508444  3
   7918   7914   7921   7923     1  0.0000000  0.6973333  3
   7918   7914   7912   7932     1  0.0000000  1.0460000  1
   7918   7914   7912   7932     1  0.0000000  0.0000000  3
   7918   7914   7912   7931     1  0.0000000  0.6508444  3
   7919   7916   7920   7930     1  0.0000000  0.6973333  3
   7919   7916   7915   7934     1  0.0000000  0.6508444  3
   7921   7914   7912   7931     1  0.0000000  1.0460000  1
   7921   7914   7912   7931     1  0.0000000  0.0000000  3
   7922   7911   7912   7931     1  0.0000000  0.6508444  3
   7925   7922   7927   7928     1  0.0000000  0.6973333  3
   7925   7922   7911   7929     1  0.0000000  1.0460000  1
   7925   7922   7911   7929     1  0.0000000  0.0000000  3
   7926   7922   7927   7928     1  0.0000000  0.6973333  3
   7926   7922   7911   7929     1  0.0000000  1.0460000  1
   7926   7922   7911   7929     1  0.0000000  0.0000000  3
   7929   7916   7920   7930     1  0.0000000  0.6973333  3
   7929   7911   7912   7931     1  0.0000000  1.0460000  1
   7929   7911   7912   7931     1  0.0000000  0.0000000  3
   7931   7912   7932   7933     1  0.0000000  0.6973333  3
   7935   7936   7938   7942     1  0.0000000  0.6508444  3
   7935   7936   7956   7957     1  0.0000000  1.0460000  1
   7935   7936   7956   7957     1  0.0000000  0.6694400  3
   7935   7946   7951   7952     1  0.0000000  1.0460000  1
   7935   7946   7951   7952     1  0.0000000  0.6694400  3
   7935   7953   7940   7943     1  0.0000000  1.6038667  3
   7936   7938   7939   7941     1  0.0000000  0.6508444  3
   7936   7938   7945   7947     1  0.0000000  1.0460000  1
   7936   7938   7945   7947     1  0.0000000  0.6694400  3
   7936   7935   7946   7949     1  0.0000000  0.6508444  3
   7936   7935   7946   7950     1  0.0000000  0.6508444  3
   7937   7935   7936   7938     1  0.0000000  0.6508444  3
   7937   7935   7936   7956     1  0.0000000  1.0460000  1
   7937   7935   7936   7956     1  0.0000000  0.0000000  3
   7937   7935   7936   7955     1  0.0000000  0.6508444  3
   7937   7935   7946   7951     1  0.0000000  1.0460000  1
   7937   7935   7946   7951     1  0.0000000  0.0000000  3
   7937   7935   7946   7949     1  0.0000000  0.6508444  3
   7937   7935   7946   7950     1  0.0000000  0.6508444  3
   7937   7935   7953   7940     1  0.0000000  1.6038667  3
   7938   7939   7940   7943     1  0.0000000  0.6508444  3
   7938   7939   7958   7948     1  0.0000000  1.2552000  3
   7938   7936   7956   7957     1  0.0000000  1.0460000  1
   7938   7936   7956   7957     1  0.0000000  0.6694400  3
   7939   7940   7944   7954     1  0.0000000  1.0460000  1
   7939   7940   7944   7954     1  0.0000000  0.6694400  3
   7939   7938   7945   7947     1  0.0000000  1.0460000  1
   7939   7938   7945   7947     1  0.0000000  0.6694400  3
   7939   7938   7936   7955     1  0.0000000  0.6508444  3
   7940   7939   7958   7948     1  0.0000000  1.2552000  3
   7940   7939   7938   7942     1  0.0000000  0.6508444  3
   7941   7939   7940   7944     1  0.0000000  1.0460000  1
   7941   7939   7940   7944     1  0.0000000  0.0000000  3
   7941   7939   7940   7953     1  0.0000000  1.0460000  1
   7941   7939   7940   7953     1  0.0000000  0.0000000  3
   7941   7939   7940   7943     1  0.0000000  0.6508444  3
   7941   7939   7958   7948     1  0.0000000  1.2552000  3
   7941   7939   7938   7945     1  0.0000000  1.0460000  1
   7941   7939   7938   7945     1  0.0000000  0.0000000  3
   7941   7939   7938   7942     1  0.0000000  0.6508444  3
   7942   7938   7939   7958     1  0.0000000  0.6508444  3
   7942   7938   7945   7947     1  0.0000000  0.6973333  3
   7942   7938   7936   7956     1  0.0000000  1.0460000  1
   7942   7938   7936   7956     1  0.0000000  0.0000000  3
   7942   7938   7936   7955     1  0.0000000  0.6508444  3
   7943   7940   7944   7954     1  0.0000000  0.6973333  3
   7943   7940   7939   7958     1  0.0000000  0.6508444  3
   7945   7938   7936   7955     1  0.0000000  1.0460000  1
   7945   7938   7936   7955     1  0.0000000  0.0000000  3
   7946   7935   7936   7955     1  0.0000000  0.6508444  3
   7949   7946   7951   7952     1  0.0000000  0.6973333  3
   7949   7946   7935   7953     1  0.0000000  1.0460000  1
   7949   7946   7935   7953     1  0.0000000  0.0000000  3
   7950   7946   7951   7952     1  0.0000000  0.6973333  3
   7950   7946   7935   7953     1  0.0000000  1.0460000  1
   7950   7946   7935   7953     1  0.0000000  0.0000000  3
   7953   7940   7944   7954     1  0.0000000  0.6973333  3
   7953   7935   7936   7955     1  0.0000000  1.0460000  1
   7953   7935   7936   7955     1  0.0000000  0.0000000  3
   7955   7936   7956   7957     1  0.0000000  0.6973333  3
   7959   7961   7963   7965     1  0.0000000  0.6508444  3
   7959   7961   7963   7966     1  0.0000000  0.6508444  3
   7960   7959   7961   7963     1  0.0000000  0.0000000  2
   7960   7959   7961   7962     1  0.0000000  0.0000000  2
   7960   7959   7961   7964     1  0.0000000  0.0000000  2
   7962   7961   7963   7967     1  0.0000000  0.6508444  3
   7962   7961   7963   7965     1  0.0000000  0.6508444  3
   7962   7961   7963   7966     1  0.0000000  0.6508444  3
   7963   7967   7968   7977     1  0.0000000  1.2552000  3
   7963   7967   7968   7978     1  0.0000000  1.2552000  3
   7963   7967   7969   7970     1  0.0000000  1.2552000  3
   7963   7967   7969   7972     1  0.0000000  1.2552000  3
   7964   7961   7963   7967     1  0.0000000  0.6508444  3
   7964   7961   7963   7965     1  0.0000000  0.6508444  3
   7964   7961   7963   7966     1  0.0000000  0.6508444  3
   7965   7963   7967   7968     1  0.0000000  1.2552000  3
   7965   7963   7967   7969     1  0.0000000  1.2552000  3
   7966   7963   7967   7968     1  0.0000000  1.2552000  3
   7966   7963   7967   7969     1  0.0000000  1.2552000  3
   7967   7968   7979   7980     1  0.0000000  0.6508444  3
   7967   7968   7979   7981     1  0.0000000  0.6508444  3
   7967   7969   7971   7973     1  0.0000000  0.6508444  3
   7967   7969   7971   7974     1  0.0000000  0.6508444  3
   7968   7967   7969   7970     1  0.0000000  1.2552000  3
   7968   7967   7969   7972     1  0.0000000  1.2552000  3
   7969   7967   7968   7977     1  0.0000000  1.2552000  3
   7969   7967   7968   7978     1  0.0000000  1.2552000  3
   7970   7969   7971   7975     1  0.0000000  0.6508444  3
   7970   7969   7971   7973     1  0.0000000  0.6508444  3
   7970   7969   7971   7974     1  0.0000000  0.6508444  3
   7971   7975   8007   7997     1  180.0000771  6.0668000  2
   7971   7975   8007   7997     1  180.0000771  1.4644000  4
   7972   7969   7971   7975     1  0.0000000  0.6508444  3
   7972   7969   7971   7973     1  0.0000000  0.6508444  3
   7972   7969   7971   7974     1  0.0000000  0.6508444  3
   7973   7971   7975   7976     1  0.0000000  3.3472000  1
   7973   7971   7975   7976     1  0.0000000  0.0000000  2
   7973   7971   7975   7976     1  180.0000771  0.3347200  3
   7973   7971   7975   8007     1  180.0000771  0.0000000  2
   7974   7971   7975   7976     1  0.0000000  3.3472000  1
   7974   7971   7975   7976     1  0.0000000  0.0000000  2
   7974   7971   7975   7976     1  180.0000771  0.3347200  3
   7974   7971   7975   8007     1  180.0000771  0.0000000  2
   7975   8007   7988   7990     1  0.0000000  1.2552000  3
   7976   7975   8007   7997     1  180.0000771  6.0668000  2
   7976   7975   8007   7997     1  180.0000771  1.4644000  4
   7977   7968   7979   7982     1  0.0000000  0.6508444  3
   7977   7968   7979   7980     1  0.0000000  0.6508444  3
   7977   7968   7979   7981     1  0.0000000  0.6508444  3
   7978   7968   7979   7982     1  0.0000000  0.6508444  3
   7978   7968   7979   7980     1  0.0000000  0.6508444  3
   7978   7968   7979   7981     1  0.0000000  0.6508444  3
   7979   7982   8031   8021     1  180.0000771  6.0668000  2
   7979   7982   8031   8021     1  180.0000771  1.4644000  4
   7980   7979   7982   7983     1  0.0000000  3.3472000  1
   7980   7979   7982   7983     1  0.0000000  0.0000000  2
   7980   7979   7982   7983     1  180.0000771  0.3347200  3
   7980   7979   7982   8031     1  180.0000771  0.0000000  2
   7981   7979   7982   7983     1  0.0000000  3.3472000  1
   7981   7979   7982   7983     1  0.0000000  0.0000000  2
   7981   7979   7982   7983     1  180.0000771  0.3347200  3
   7981   7979   7982   8031     1  180.0000771  0.0000000  2
   7982   8031   8012   8014     1  0.0000000  1.2552000  3
   7983   7982   8031   8021     1  180.0000771  6.0668000  2
   7983   7982   8031   8021     1  180.0000771  1.4644000  4
   7984   7985   7987   7991     1  0.0000000  0.6508444  3
   7984   7985   8005   8006     1  0.0000000  1.0460000  1
   7984   7985   8005   8006     1  0.0000000  0.6694400  3
   7984   7995   8000   8001     1  0.0000000  1.0460000  1
   7984   7995   8000   8001     1  0.0000000  0.6694400  3
   7984   8002   7989   7992     1  0.0000000  1.6038667  3
   7985   7984   7995   7998     1  0.0000000  0.6508444  3
   7985   7984   7995   7999     1  0.0000000  0.6508444  3
   7985   7987   7988   7990     1  0.0000000  0.6508444  3
   7985   7987   7994   7996     1  0.0000000  1.0460000  1
   7985   7987   7994   7996     1  0.0000000  0.6694400  3
   7986   7984   7985   7987     1  0.0000000  0.6508444  3
   7986   7984   7985   8005     1  0.0000000  1.0460000  1
   7986   7984   7985   8005     1  0.0000000  0.0000000  3
   7986   7984   7985   8004     1  0.0000000  0.6508444  3
   7986   7984   7995   8000     1  0.0000000  1.0460000  1
   7986   7984   7995   8000     1  0.0000000  0.0000000  3
   7986   7984   7995   7998     1  0.0000000  0.6508444  3
   7986   7984   7995   7999     1  0.0000000  0.6508444  3
   7986   7984   8002   7989     1  0.0000000  1.6038667  3
   7987   7985   8005   8006     1  0.0000000  1.0460000  1
   7987   7985   8005   8006     1  0.0000000  0.6694400  3
   7987   7988   7989   7992     1  0.0000000  0.6508444  3
   7987   7988   8007   7997     1  0.0000000  1.2552000  3
   7988   7987   7985   8004     1  0.0000000  0.6508444  3
   7988   7987   7994   7996     1  0.0000000  1.0460000  1
   7988   7987   7994   7996     1  0.0000000  0.6694400  3
   7988   7989   7993   8003     1  0.0000000  1.0460000  1
   7988   7989   7993   8003     1  0.0000000  0.6694400  3
   7989   7988   7987   7991     1  0.0000000  0.6508444  3
   7989   7988   8007   7997     1  0.0000000  1.2552000  3
   7990   7988   7987   7994     1  0.0000000  1.0460000  1
   7990   7988   7987   7994     1  0.0000000  0.0000000  3
   7990   7988   7987   7991     1  0.0000000  0.6508444  3
   7990   7988   7989   7993     1  0.0000000  1.0460000  1
   7990   7988   7989   7993     1  0.0000000  0.0000000  3
   7990   7988   7989   8002     1  0.0000000  1.0460000  1
   7990   7988   7989   8002     1  0.0000000  0.0000000  3
   7990   7988   7989   7992     1  0.0000000  0.6508444  3
   7990   7988   8007   7997     1  0.0000000  1.2552000  3
   7991   7987   7985   8005     1  0.0000000  1.0460000  1
   7991   7987   7985   8005     1  0.0000000  0.0000000  3
   7991   7987   7985   8004     1  0.0000000  0.6508444  3
   7991   7987   7988   8007     1  0.0000000  0.6508444  3
   7991   7987   7994   7996     1  0.0000000  0.6973333  3
   7992   7989   7988   8007     1  0.0000000  0.6508444  3
   7992   7989   7993   8003     1  0.0000000  0.6973333  3
   7994   7987   7985   8004     1  0.0000000  1.0460000  1
   7994   7987   7985   8004     1  0.0000000  0.0000000  3
   7995   7984   7985   8004     1  0.0000000  0.6508444  3
   7998   7995   7984   8002     1  0.0000000  1.0460000  1
   7998   7995   7984   8002     1  0.0000000  0.0000000  3
   7998   7995   8000   8001     1  0.0000000  0.6973333  3
   7999   7995   7984   8002     1  0.0000000  1.0460000  1
   7999   7995   7984   8002     1  0.0000000  0.0000000  3
   7999   7995   8000   8001     1  0.0000000  0.6973333  3
   8002   7984   7985   8004     1  0.0000000  1.0460000  1
   8002   7984   7985   8004     1  0.0000000  0.0000000  3
   8002   7989   7993   8003     1  0.0000000  0.6973333  3
   8004   7985   8005   8006     1  0.0000000  0.6973333  3
   8008   8009   8011   8015     1  0.0000000  0.6508444  3
   8008   8009   8029   8030     1  0.0000000  1.0460000  1
   8008   8009   8029   8030     1  0.0000000  0.6694400  3
   8008   8019   8024   8025     1  0.0000000  1.0460000  1
   8008   8019   8024   8025     1  0.0000000  0.6694400  3
   8008   8026   8013   8016     1  0.0000000  1.6038667  3
   8009   8008   8019   8022     1  0.0000000  0.6508444  3
   8009   8008   8019   8023     1  0.0000000  0.6508444  3
   8009   8011   8012   8014     1  0.0000000  0.6508444  3
   8009   8011   8018   8020     1  0.0000000  1.0460000  1
   8009   8011   8018   8020     1  0.0000000  0.6694400  3
   8010   8008   8009   8011     1  0.0000000  0.6508444  3
   8010   8008   8009   8029     1  0.0000000  1.0460000  1
   8010   8008   8009   8029     1  0.0000000  0.0000000  3
   8010   8008   8009   8028     1  0.0000000  0.6508444  3
   8010   8008   8019   8024     1  0.0000000  1.0460000  1
   8010   8008   8019   8024     1  0.0000000  0.0000000  3
   8010   8008   8019   8022     1  0.0000000  0.6508444  3
   8010   8008   8019   8023     1  0.0000000  0.6508444  3
   8010   8008   8026   8013     1  0.0000000  1.6038667  3
   8011   8009   8029   8030     1  0.0000000  1.0460000  1
   8011   8009   8029   8030     1  0.0000000  0.6694400  3
   8011   8012   8013   8016     1  0.0000000  0.6508444  3
   8011   8012   8031   8021     1  0.0000000  1.2552000  3
   8012   8011   8009   8028     1  0.0000000  0.6508444  3
   8012   8011   8018   8020     1  0.0000000  1.0460000  1
   8012   8011   8018   8020     1  0.0000000  0.6694400  3
   8012   8013   8017   8027     1  0.0000000  1.0460000  1
   8012   8013   8017   8027     1  0.0000000  0.6694400  3
   8013   8012   8011   8015     1  0.0000000  0.6508444  3
   8013   8012   8031   8021     1  0.0000000  1.2552000  3
   8014   8012   8011   8018     1  0.0000000  1.0460000  1
   8014   8012   8011   8018     1  0.0000000  0.0000000  3
   8014   8012   8011   8015     1  0.0000000  0.6508444  3
   8014   8012   8013   8017     1  0.0000000  1.0460000  1
   8014   8012   8013   8017     1  0.0000000  0.0000000  3
   8014   8012   8013   8026     1  0.0000000  1.0460000  1
   8014   8012   8013   8026     1  0.0000000  0.0000000  3
   8014   8012   8013   8016     1  0.0000000  0.6508444  3
   8014   8012   8031   8021     1  0.0000000  1.2552000  3
   8015   8011   8009   8029     1  0.0000000  1.0460000  1
   8015   8011   8009   8029     1  0.0000000  0.0000000  3
   8015   8011   8009   8028     1  0.0000000  0.6508444  3
   8015   8011   8012   8031     1  0.0000000  0.6508444  3
   8015   8011   8018   8020     1  0.0000000  0.6973333  3
   8016   8013   8012   8031     1  0.0000000  0.6508444  3
   8016   8013   8017   8027     1  0.0000000  0.6973333  3
   8018   8011   8009   8028     1  0.0000000  1.0460000  1
   8018   8011   8009   8028     1  0.0000000  0.0000000  3
   8019   8008   8009   8028     1  0.0000000  0.6508444  3
   8022   8019   8008   8026     1  0.0000000  1.0460000  1
   8022   8019   8008   8026     1  0.0000000  0.0000000  3
   8022   8019   8024   8025     1  0.0000000  0.6973333  3
   8023   8019   8008   8026     1  0.0000000  1.0460000  1
   8023   8019   8008   8026     1  0.0000000  0.0000000  3
   8023   8019   8024   8025     1  0.0000000  0.6973333  3
   8026   8008   8009   8028     1  0.0000000  1.0460000  1
   8026   8008   8009   8028     1  0.0000000  0.0000000  3
   8026   8013   8017   8027     1  0.0000000  0.6973333  3
   8028   8009   8029   8030     1  0.0000000  0.6973333  3
   8032   8034   8036   8038     1  0.0000000  0.6508444  3
   8032   8034   8036   8039     1  0.0000000  0.6508444  3
   8033   8032   8034   8036     1  0.0000000  0.0000000  2
   8033   8032   8034   8035     1  0.0000000  0.0000000  2
   8033   8032   8034   8037     1  0.0000000  0.0000000  2
   8035   8034   8036   8040     1  0.0000000  0.6508444  3
   8035   8034   8036   8038     1  0.0000000  0.6508444  3
   8035   8034   8036   8039     1  0.0000000  0.6508444  3
   8036   8040   8041   8050     1  0.0000000  1.2552000  3
   8036   8040   8041   8051     1  0.0000000  1.2552000  3
   8036   8040   8042   8043     1  0.0000000  1.2552000  3
   8036   8040   8042   8045     1  0.0000000  1.2552000  3
   8037   8034   8036   8040     1  0.0000000  0.6508444  3
   8037   8034   8036   8038     1  0.0000000  0.6508444  3
   8037   8034   8036   8039     1  0.0000000  0.6508444  3
   8038   8036   8040   8041     1  0.0000000  1.2552000  3
   8038   8036   8040   8042     1  0.0000000  1.2552000  3
   8039   8036   8040   8041     1  0.0000000  1.2552000  3
   8039   8036   8040   8042     1  0.0000000  1.2552000  3
   8040   8041   8052   8053     1  0.0000000  0.6508444  3
   8040   8041   8052   8054     1  0.0000000  0.6508444  3
   8040   8042   8044   8046     1  0.0000000  0.6508444  3
   8040   8042   8044   8047     1  0.0000000  0.6508444  3
   8041   8040   8042   8043     1  0.0000000  1.2552000  3
   8041   8040   8042   8045     1  0.0000000  1.2552000  3
   8042   8040   8041   8050     1  0.0000000  1.2552000  3
   8042   8040   8041   8051     1  0.0000000  1.2552000  3
   8043   8042   8044   8048     1  0.0000000  0.6508444  3
   8043   8042   8044   8046     1  0.0000000  0.6508444  3
   8043   8042   8044   8047     1  0.0000000  0.6508444  3
   8044   8048   8080   8070     1  180.0000771  6.0668000  2
   8044   8048   8080   8070     1  180.0000771  1.4644000  4
   8045   8042   8044   8048     1  0.0000000  0.6508444  3
   8045   8042   8044   8046     1  0.0000000  0.6508444  3
   8045   8042   8044   8047     1  0.0000000  0.6508444  3
   8046   8044   8048   8049     1  0.0000000  3.3472000  1
   8046   8044   8048   8049     1  0.0000000  0.0000000  2
   8046   8044   8048   8049     1  180.0000771  0.3347200  3
   8046   8044   8048   8080     1  180.0000771  0.0000000  2
   8047   8044   8048   8049     1  0.0000000  3.3472000  1
   8047   8044   8048   8049     1  0.0000000  0.0000000  2
   8047   8044   8048   8049     1  180.0000771  0.3347200  3
   8047   8044   8048   8080     1  180.0000771  0.0000000  2
   8048   8080   8061   8063     1  0.0000000  1.2552000  3
   8049   8048   8080   8070     1  180.0000771  6.0668000  2
   8049   8048   8080   8070     1  180.0000771  1.4644000  4
   8050   8041   8052   8055     1  0.0000000  0.6508444  3
   8050   8041   8052   8053     1  0.0000000  0.6508444  3
   8050   8041   8052   8054     1  0.0000000  0.6508444  3
   8051   8041   8052   8055     1  0.0000000  0.6508444  3
   8051   8041   8052   8053     1  0.0000000  0.6508444  3
   8051   8041   8052   8054     1  0.0000000  0.6508444  3
   8052   8055   8104   8094     1  180.0000771  6.0668000  2
   8052   8055   8104   8094     1  180.0000771  1.4644000  4
   8053   8052   8055   8056     1  0.0000000  3.3472000  1
   8053   8052   8055   8056     1  0.0000000  0.0000000  2
   8053   8052   8055   8056     1  180.0000771  0.3347200  3
   8053   8052   8055   8104     1  180.0000771  0.0000000  2
   8054   8052   8055   8056     1  0.0000000  3.3472000  1
   8054   8052   8055   8056     1  0.0000000  0.0000000  2
   8054   8052   8055   8056     1  180.0000771  0.3347200  3
   8054   8052   8055   8104     1  180.0000771  0.0000000  2
   8055   8104   8085   8087     1  0.0000000  1.2552000  3
   8056   8055   8104   8094     1  180.0000771  6.0668000  2
   8056   8055   8104   8094     1  180.0000771  1.4644000  4
   8057   8058   8060   8064     1  0.0000000  0.6508444  3
   8057   8058   8078   8079     1  0.0000000  1.0460000  1
   8057   8058   8078   8079     1  0.0000000  0.6694400  3
   8057   8068   8073   8074     1  0.0000000  1.0460000  1
   8057   8068   8073   8074     1  0.0000000  0.6694400  3
   8057   8075   8062   8065     1  0.0000000  1.6038667  3
   8058   8060   8061   8063     1  0.0000000  0.6508444  3
   8058   8060   8067   8069     1  0.0000000  1.0460000  1
   8058   8060   8067   8069     1  0.0000000  0.6694400  3
   8058   8057   8068   8071     1  0.0000000  0.6508444  3
   8058   8057   8068   8072     1  0.0000000  0.6508444  3
   8059   8057   8058   8060     1  0.0000000  0.6508444  3
   8059   8057   8058   8078     1  0.0000000  1.0460000  1
   8059   8057   8058   8078     1  0.0000000  0.0000000  3
   8059   8057   8058   8077     1  0.0000000  0.6508444  3
   8059   8057   8068   8073     1  0.0000000  1.0460000  1
   8059   8057   8068   8073     1  0.0000000  0.0000000  3
   8059   8057   8068   8071     1  0.0000000  0.6508444  3
   8059   8057   8068   8072     1  0.0000000  0.6508444  3
   8059   8057   8075   8062     1  0.0000000  1.6038667  3
   8060   8061   8062   8065     1  0.0000000  0.6508444  3
   8060   8061   8080   8070     1  0.0000000  1.2552000  3
   8060   8058   8078   8079     1  0.0000000  1.0460000  1
   8060   8058   8078   8079     1  0.0000000  0.6694400  3
   8061   8062   8066   8076     1  0.0000000  1.0460000  1
   8061   8062   8066   8076     1  0.0000000  0.6694400  3
   8061   8060   8067   8069     1  0.0000000  1.0460000  1
   8061   8060   8067   8069     1  0.0000000  0.6694400  3
   8061   8060   8058   8077     1  0.0000000  0.6508444  3
   8062   8061   8080   8070     1  0.0000000  1.2552000  3
   8062   8061   8060   8064     1  0.0000000  0.6508444  3
   8063   8061   8062   8066     1  0.0000000  1.0460000  1
   8063   8061   8062   8066     1  0.0000000  0.0000000  3
   8063   8061   8062   8075     1  0.0000000  1.0460000  1
   8063   8061   8062   8075     1  0.0000000  0.0000000  3
   8063   8061   8062   8065     1  0.0000000  0.6508444  3
   8063   8061   8080   8070     1  0.0000000  1.2552000  3
   8063   8061   8060   8067     1  0.0000000  1.0460000  1
   8063   8061   8060   8067     1  0.0000000  0.0000000  3
   8063   8061   8060   8064     1  0.0000000  0.6508444  3
   8064   8060   8061   8080     1  0.0000000  0.6508444  3
   8064   8060   8067   8069     1  0.0000000  0.6973333  3
   8064   8060   8058   8078     1  0.0000000  1.0460000  1
   8064   8060   8058   8078     1  0.0000000  0.0000000  3
   8064   8060   8058   8077     1  0.0000000  0.6508444  3
   8065   8062   8066   8076     1  0.0000000  0.6973333  3
   8065   8062   8061   8080     1  0.0000000  0.6508444  3
   8067   8060   8058   8077     1  0.0000000  1.0460000  1
   8067   8060   8058   8077     1  0.0000000  0.0000000  3
   8068   8057   8058   8077     1  0.0000000  0.6508444  3
   8071   8068   8073   8074     1  0.0000000  0.6973333  3
   8071   8068   8057   8075     1  0.0000000  1.0460000  1
   8071   8068   8057   8075     1  0.0000000  0.0000000  3
   8072   8068   8073   8074     1  0.0000000  0.6973333  3
   8072   8068   8057   8075     1  0.0000000  1.0460000  1
   8072   8068   8057   8075     1  0.0000000  0.0000000  3
   8075   8062   8066   8076     1  0.0000000  0.6973333  3
   8075   8057   8058   8077     1  0.0000000  1.0460000  1
   8075   8057   8058   8077     1  0.0000000  0.0000000  3
   8077   8058   8078   8079     1  0.0000000  0.6973333  3
   8081   8082   8084   8088     1  0.0000000  0.6508444  3
   8081   8082   8102   8103     1  0.0000000  1.0460000  1
   8081   8082   8102   8103     1  0.0000000  0.6694400  3
   8081   8092   8097   8098     1  0.0000000  1.0460000  1
   8081   8092   8097   8098     1  0.0000000  0.6694400  3
   8081   8099   8086   8089     1  0.0000000  1.6038667  3
   8082   8084   8085   8087     1  0.0000000  0.6508444  3
   8082   8084   8091   8093     1  0.0000000  1.0460000  1
   8082   8084   8091   8093     1  0.0000000  0.6694400  3
   8082   8081   8092   8095     1  0.0000000  0.6508444  3
   8082   8081   8092   8096     1  0.0000000  0.6508444  3
   8083   8081   8082   8084     1  0.0000000  0.6508444  3
   8083   8081   8082   8102     1  0.0000000  1.0460000  1
   8083   8081   8082   8102     1  0.0000000  0.0000000  3
   8083   8081   8082   8101     1  0.0000000  0.6508444  3
   8083   8081   8092   8097     1  0.0000000  1.0460000  1
   8083   8081   8092   8097     1  0.0000000  0.0000000  3
   8083   8081   8092   8095     1  0.0000000  0.6508444  3
   8083   8081   8092   8096     1  0.0000000  0.6508444  3
   8083   8081   8099   8086     1  0.0000000  1.6038667  3
   8084   8085   8086   8089     1  0.0000000  0.6508444  3
   8084   8085   8104   8094     1  0.0000000  1.2552000  3
   8084   8082   8102   8103     1  0.0000000  1.0460000  1
   8084   8082   8102   8103     1  0.0000000  0.6694400  3
   8085   8086   8090   8100     1  0.0000000  1.0460000  1
   8085   8086   8090   8100     1  0.0000000  0.6694400  3
   8085   8084   8091   8093     1  0.0000000  1.0460000  1
   8085   8084   8091   8093     1  0.0000000  0.6694400  3
   8085   8084   8082   8101     1  0.0000000  0.6508444  3
   8086   8085   8104   8094     1  0.0000000  1.2552000  3
   8086   8085   8084   8088     1  0.0000000  0.6508444  3
   8087   8085   8086   8090     1  0.0000000  1.0460000  1
   8087   8085   8086   8090     1  0.0000000  0.0000000  3
   8087   8085   8086   8099     1  0.0000000  1.0460000  1
   8087   8085   8086   8099     1  0.0000000  0.0000000  3
   8087   8085   8086   8089     1  0.0000000  0.6508444  3
   8087   8085   8104   8094     1  0.0000000  1.2552000  3
   8087   8085   8084   8091     1  0.0000000  1.0460000  1
   8087   8085   8084   8091     1  0.0000000  0.0000000  3
   8087   8085   8084   8088     1  0.0000000  0.6508444  3
   8088   8084   8085   8104     1  0.0000000  0.6508444  3
   8088   8084   8091   8093     1  0.0000000  0.6973333  3
   8088   8084   8082   8102     1  0.0000000  1.0460000  1
   8088   8084   8082   8102     1  0.0000000  0.0000000  3
   8088   8084   8082   8101     1  0.0000000  0.6508444  3
   8089   8086   8090   8100     1  0.0000000  0.6973333  3
   8089   8086   8085   8104     1  0.0000000  0.6508444  3
   8091   8084   8082   8101     1  0.0000000  1.0460000  1
   8091   8084   8082   8101     1  0.0000000  0.0000000  3
   8092   8081   8082   8101     1  0.0000000  0.6508444  3
   8095   8092   8097   8098     1  0.0000000  0.6973333  3
   8095   8092   8081   8099     1  0.0000000  1.0460000  1
   8095   8092   8081   8099     1  0.0000000  0.0000000  3
   8096   8092   8097   8098     1  0.0000000  0.6973333  3
   8096   8092   8081   8099     1  0.0000000  1.0460000  1
   8096   8092   8081   8099     1  0.0000000  0.0000000  3
   8099   8086   8090   8100     1  0.0000000  0.6973333  3
   8099   8081   8082   8101     1  0.0000000  1.0460000  1
   8099   8081   8082   8101     1  0.0000000  0.0000000  3
   8101   8082   8102   8103     1  0.0000000  0.6973333  3
   8105   8107   8109   8111     1  0.0000000  0.6508444  3
   8105   8107   8109   8112     1  0.0000000  0.6508444  3
   8106   8105   8107   8109     1  0.0000000  0.0000000  2
   8106   8105   8107   8108     1  0.0000000  0.0000000  2
   8106   8105   8107   8110     1  0.0000000  0.0000000  2
   8108   8107   8109   8113     1  0.0000000  0.6508444  3
   8108   8107   8109   8111     1  0.0000000  0.6508444  3
   8108   8107   8109   8112     1  0.0000000  0.6508444  3
   8109   8113   8114   8123     1  0.0000000  1.2552000  3
   8109   8113   8114   8124     1  0.0000000  1.2552000  3
   8109   8113   8115   8116     1  0.0000000  1.2552000  3
   8109   8113   8115   8118     1  0.0000000  1.2552000  3
   8110   8107   8109   8113     1  0.0000000  0.6508444  3
   8110   8107   8109   8111     1  0.0000000  0.6508444  3
   8110   8107   8109   8112     1  0.0000000  0.6508444  3
   8111   8109   8113   8114     1  0.0000000  1.2552000  3
   8111   8109   8113   8115     1  0.0000000  1.2552000  3
   8112   8109   8113   8114     1  0.0000000  1.2552000  3
   8112   8109   8113   8115     1  0.0000000  1.2552000  3
   8113   8114   8125   8126     1  0.0000000  0.6508444  3
   8113   8114   8125   8127     1  0.0000000  0.6508444  3
   8113   8115   8117   8119     1  0.0000000  0.6508444  3
   8113   8115   8117   8120     1  0.0000000  0.6508444  3
   8114   8113   8115   8116     1  0.0000000  1.2552000  3
   8114   8113   8115   8118     1  0.0000000  1.2552000  3
   8115   8113   8114   8123     1  0.0000000  1.2552000  3
   8115   8113   8114   8124     1  0.0000000  1.2552000  3
   8116   8115   8117   8121     1  0.0000000  0.6508444  3
   8116   8115   8117   8119     1  0.0000000  0.6508444  3
   8116   8115   8117   8120     1  0.0000000  0.6508444  3
   8117   8121   8153   8143     1  180.0000771  6.0668000  2
   8117   8121   8153   8143     1  180.0000771  1.4644000  4
   8118   8115   8117   8121     1  0.0000000  0.6508444  3
   8118   8115   8117   8119     1  0.0000000  0.6508444  3
   8118   8115   8117   8120     1  0.0000000  0.6508444  3
   8119   8117   8121   8122     1  0.0000000  3.3472000  1
   8119   8117   8121   8122     1  0.0000000  0.0000000  2
   8119   8117   8121   8122     1  180.0000771  0.3347200  3
   8119   8117   8121   8153     1  180.0000771  0.0000000  2
   8120   8117   8121   8122     1  0.0000000  3.3472000  1
   8120   8117   8121   8122     1  0.0000000  0.0000000  2
   8120   8117   8121   8122     1  180.0000771  0.3347200  3
   8120   8117   8121   8153     1  180.0000771  0.0000000  2
   8121   8153   8134   8136     1  0.0000000  1.2552000  3
   8122   8121   8153   8143     1  180.0000771  6.0668000  2
   8122   8121   8153   8143     1  180.0000771  1.4644000  4
   8123   8114   8125   8128     1  0.0000000  0.6508444  3
   8123   8114   8125   8126     1  0.0000000  0.6508444  3
   8123   8114   8125   8127     1  0.0000000  0.6508444  3
   8124   8114   8125   8128     1  0.0000000  0.6508444  3
   8124   8114   8125   8126     1  0.0000000  0.6508444  3
   8124   8114   8125   8127     1  0.0000000  0.6508444  3
   8125   8128   8177   8167     1  180.0000771  6.0668000  2
   8125   8128   8177   8167     1  180.0000771  1.4644000  4
   8126   8125   8128   8129     1  0.0000000  3.3472000  1
   8126   8125   8128   8129     1  0.0000000  0.0000000  2
   8126   8125   8128   8129     1  180.0000771  0.3347200  3
   8126   8125   8128   8177     1  180.0000771  0.0000000  2
   8127   8125   8128   8129     1  0.0000000  3.3472000  1
   8127   8125   8128   8129     1  0.0000000  0.0000000  2
   8127   8125   8128   8129     1  180.0000771  0.3347200  3
   8127   8125   8128   8177     1  180.0000771  0.0000000  2
   8128   8177   8158   8160     1  0.0000000  1.2552000  3
   8129   8128   8177   8167     1  180.0000771  6.0668000  2
   8129   8128   8177   8167     1  180.0000771  1.4644000  4
   8130   8131   8133   8137     1  0.0000000  0.6508444  3
   8130   8131   8151   8152     1  0.0000000  1.0460000  1
   8130   8131   8151   8152     1  0.0000000  0.6694400  3
   8130   8141   8146   8147     1  0.0000000  1.0460000  1
   8130   8141   8146   8147     1  0.0000000  0.6694400  3
   8130   8148   8135   8138     1  0.0000000  1.6038667  3
   8131   8130   8141   8144     1  0.0000000  0.6508444  3
   8131   8130   8141   8145     1  0.0000000  0.6508444  3
   8131   8133   8134   8136     1  0.0000000  0.6508444  3
   8131   8133   8140   8142     1  0.0000000  1.0460000  1
   8131   8133   8140   8142     1  0.0000000  0.6694400  3
   8132   8130   8131   8133     1  0.0000000  0.6508444  3
   8132   8130   8131   8151     1  0.0000000  1.0460000  1
   8132   8130   8131   8151     1  0.0000000  0.0000000  3
   8132   8130   8131   8150     1  0.0000000  0.6508444  3
   8132   8130   8141   8146     1  0.0000000  1.0460000  1
   8132   8130   8141   8146     1  0.0000000  0.0000000  3
   8132   8130   8141   8144     1  0.0000000  0.6508444  3
   8132   8130   8141   8145     1  0.0000000  0.6508444  3
   8132   8130   8148   8135     1  0.0000000  1.6038667  3
   8133   8131   8151   8152     1  0.0000000  1.0460000  1
   8133   8131   8151   8152     1  0.0000000  0.6694400  3
   8133   8134   8135   8138     1  0.0000000  0.6508444  3
   8133   8134   8153   8143     1  0.0000000  1.2552000  3
   8134   8133   8131   8150     1  0.0000000  0.6508444  3
   8134   8133   8140   8142     1  0.0000000  1.0460000  1
   8134   8133   8140   8142     1  0.0000000  0.6694400  3
   8134   8135   8139   8149     1  0.0000000  1.0460000  1
   8134   8135   8139   8149     1  0.0000000  0.6694400  3
   8135   8134   8133   8137     1  0.0000000  0.6508444  3
   8135   8134   8153   8143     1  0.0000000  1.2552000  3
   8136   8134   8133   8140     1  0.0000000  1.0460000  1
   8136   8134   8133   8140     1  0.0000000  0.0000000  3
   8136   8134   8133   8137     1  0.0000000  0.6508444  3
   8136   8134   8135   8139     1  0.0000000  1.0460000  1
   8136   8134   8135   8139     1  0.0000000  0.0000000  3
   8136   8134   8135   8148     1  0.0000000  1.0460000  1
   8136   8134   8135   8148     1  0.0000000  0.0000000  3
   8136   8134   8135   8138     1  0.0000000  0.6508444  3
   8136   8134   8153   8143     1  0.0000000  1.2552000  3
   8137   8133   8131   8151     1  0.0000000  1.0460000  1
   8137   8133   8131   8151     1  0.0000000  0.0000000  3
   8137   8133   8131   8150     1  0.0000000  0.6508444  3
   8137   8133   8134   8153     1  0.0000000  0.6508444  3
   8137   8133   8140   8142     1  0.0000000  0.6973333  3
   8138   8135   8134   8153     1  0.0000000  0.6508444  3
   8138   8135   8139   8149     1  0.0000000  0.6973333  3
   8140   8133   8131   8150     1  0.0000000  1.0460000  1
   8140   8133   8131   8150     1  0.0000000  0.0000000  3
   8141   8130   8131   8150     1  0.0000000  0.6508444  3
   8144   8141   8130   8148     1  0.0000000  1.0460000  1
   8144   8141   8130   8148     1  0.0000000  0.0000000  3
   8144   8141   8146   8147     1  0.0000000  0.6973333  3
   8145   8141   8130   8148     1  0.0000000  1.0460000  1
   8145   8141   8130   8148     1  0.0000000  0.0000000  3
   8145   8141   8146   8147     1  0.0000000  0.6973333  3
   8148   8130   8131   8150     1  0.0000000  1.0460000  1
   8148   8130   8131   8150     1  0.0000000  0.0000000  3
   8148   8135   8139   8149     1  0.0000000  0.6973333  3
   8150   8131   8151   8152     1  0.0000000  0.6973333  3
   8154   8155   8157   8161     1  0.0000000  0.6508444  3
   8154   8155   8175   8176     1  0.0000000  1.0460000  1
   8154   8155   8175   8176     1  0.0000000  0.6694400  3
   8154   8165   8170   8171     1  0.0000000  1.0460000  1
   8154   8165   8170   8171     1  0.0000000  0.6694400  3
   8154   8172   8159   8162     1  0.0000000  1.6038667  3
   8155   8154   8165   8168     1  0.0000000  0.6508444  3
   8155   8154   8165   8169     1  0.0000000  0.6508444  3
   8155   8157   8158   8160     1  0.0000000  0.6508444  3
   8155   8157   8164   8166     1  0.0000000  1.0460000  1
   8155   8157   8164   8166     1  0.0000000  0.6694400  3
   8156   8154   8155   8157     1  0.0000000  0.6508444  3
   8156   8154   8155   8175     1  0.0000000  1.0460000  1
   8156   8154   8155   8175     1  0.0000000  0.0000000  3
   8156   8154   8155   8174     1  0.0000000  0.6508444  3
   8156   8154   8165   8170     1  0.0000000  1.0460000  1
   8156   8154   8165   8170     1  0.0000000  0.0000000  3
   8156   8154   8165   8168     1  0.0000000  0.6508444  3
   8156   8154   8165   8169     1  0.0000000  0.6508444  3
   8156   8154   8172   8159     1  0.0000000  1.6038667  3
   8157   8155   8175   8176     1  0.0000000  1.0460000  1
   8157   8155   8175   8176     1  0.0000000  0.6694400  3
   8157   8158   8159   8162     1  0.0000000  0.6508444  3
   8157   8158   8177   8167     1  0.0000000  1.2552000  3
   8158   8157   8155   8174     1  0.0000000  0.6508444  3
   8158   8157   8164   8166     1  0.0000000  1.0460000  1
   8158   8157   8164   8166     1  0.0000000  0.6694400  3
   8158   8159   8163   8173     1  0.0000000  1.0460000  1
   8158   8159   8163   8173     1  0.0000000  0.6694400  3
   8159   8158   8157   8161     1  0.0000000  0.6508444  3
   8159   8158   8177   8167     1  0.0000000  1.2552000  3
   8160   8158   8157   8164     1  0.0000000  1.0460000  1
   8160   8158   8157   8164     1  0.0000000  0.0000000  3
   8160   8158   8157   8161     1  0.0000000  0.6508444  3
   8160   8158   8159   8163     1  0.0000000  1.0460000  1
   8160   8158   8159   8163     1  0.0000000  0.0000000  3
   8160   8158   8159   8172     1  0.0000000  1.0460000  1
   8160   8158   8159   8172     1  0.0000000  0.0000000  3
   8160   8158   8159   8162     1  0.0000000  0.6508444  3
   8160   8158   8177   8167     1  0.0000000  1.2552000  3
   8161   8157   8155   8175     1  0.0000000  1.0460000  1
   8161   8157   8155   8175     1  0.0000000  0.0000000  3
   8161   8157   8155   8174     1  0.0000000  0.6508444  3
   8161   8157   8158   8177     1  0.0000000  0.6508444  3
   8161   8157   8164   8166     1  0.0000000  0.6973333  3
   8162   8159   8158   8177     1  0.0000000  0.6508444  3
   8162   8159   8163   8173     1  0.0000000  0.6973333  3
   8164   8157   8155   8174     1  0.0000000  1.0460000  1
   8164   8157   8155   8174     1  0.0000000  0.0000000  3
   8165   8154   8155   8174     1  0.0000000  0.6508444  3
   8168   8165   8154   8172     1  0.0000000  1.0460000  1
   8168   8165   8154   8172     1  0.0000000  0.0000000  3
   8168   8165   8170   8171     1  0.0000000  0.6973333  3
   8169   8165   8154   8172     1  0.0000000  1.0460000  1
   8169   8165   8154   8172     1  0.0000000  0.0000000  3
   8169   8165   8170   8171     1  0.0000000  0.6973333  3
   8172   8154   8155   8174     1  0.0000000  1.0460000  1
   8172   8154   8155   8174     1  0.0000000  0.0000000  3
   8172   8159   8163   8173     1  0.0000000  0.6973333  3
   8174   8155   8175   8176     1  0.0000000  0.6973333  3
   8178   8180   8182   8184     1  0.0000000  0.6508444  3
   8178   8180   8182   8185     1  0.0000000  0.6508444  3
   8179   8178   8180   8182     1  0.0000000  0.0000000  2
   8179   8178   8180   8181     1  0.0000000  0.0000000  2
   8179   8178   8180   8183     1  0.0000000  0.0000000  2
   8181   8180   8182   8186     1  0.0000000  0.6508444  3
   8181   8180   8182   8184     1  0.0000000  0.6508444  3
   8181   8180   8182   8185     1  0.0000000  0.6508444  3
   8182   8186   8187   8196     1  0.0000000  1.2552000  3
   8182   8186   8187   8197     1  0.0000000  1.2552000  3
   8182   8186   8188   8189     1  0.0000000  1.2552000  3
   8182   8186   8188   8191     1  0.0000000  1.2552000  3
   8183   8180   8182   8186     1  0.0000000  0.6508444  3
   8183   8180   8182   8184     1  0.0000000  0.6508444  3
   8183   8180   8182   8185     1  0.0000000  0.6508444  3
   8184   8182   8186   8187     1  0.0000000  1.2552000  3
   8184   8182   8186   8188     1  0.0000000  1.2552000  3
   8185   8182   8186   8187     1  0.0000000  1.2552000  3
   8185   8182   8186   8188     1  0.0000000  1.2552000  3
   8186   8187   8198   8199     1  0.0000000  0.6508444  3
   8186   8187   8198   8200     1  0.0000000  0.6508444  3
   8186   8188   8190   8192     1  0.0000000  0.6508444  3
   8186   8188   8190   8193     1  0.0000000  0.6508444  3
   8187   8186   8188   8189     1  0.0000000  1.2552000  3
   8187   8186   8188   8191     1  0.0000000  1.2552000  3
   8188   8186   8187   8196     1  0.0000000  1.2552000  3
   8188   8186   8187   8197     1  0.0000000  1.2552000  3
   8189   8188   8190   8194     1  0.0000000  0.6508444  3
   8189   8188   8190   8192     1  0.0000000  0.6508444  3
   8189   8188   8190   8193     1  0.0000000  0.6508444  3
   8190   8194   8226   8216     1  180.0000771  6.0668000  2
   8190   8194   8226   8216     1  180.0000771  1.4644000  4
   8191   8188   8190   8194     1  0.0000000  0.6508444  3
   8191   8188   8190   8192     1  0.0000000  0.6508444  3
   8191   8188   8190   8193     1  0.0000000  0.6508444  3
   8192   8190   8194   8195     1  0.0000000  3.3472000  1
   8192   8190   8194   8195     1  0.0000000  0.0000000  2
   8192   8190   8194   8195     1  180.0000771  0.3347200  3
   8192   8190   8194   8226     1  180.0000771  0.0000000  2
   8193   8190   8194   8195     1  0.0000000  3.3472000  1
   8193   8190   8194   8195     1  0.0000000  0.0000000  2
   8193   8190   8194   8195     1  180.0000771  0.3347200  3
   8193   8190   8194   8226     1  180.0000771  0.0000000  2
   8194   8226   8207   8209     1  0.0000000  1.2552000  3
   8195   8194   8226   8216     1  180.0000771  6.0668000  2
   8195   8194   8226   8216     1  180.0000771  1.4644000  4
   8196   8187   8198   8201     1  0.0000000  0.6508444  3
   8196   8187   8198   8199     1  0.0000000  0.6508444  3
   8196   8187   8198   8200     1  0.0000000  0.6508444  3
   8197   8187   8198   8201     1  0.0000000  0.6508444  3
   8197   8187   8198   8199     1  0.0000000  0.6508444  3
   8197   8187   8198   8200     1  0.0000000  0.6508444  3
   8198   8201   8250   8240     1  180.0000771  6.0668000  2
   8198   8201   8250   8240     1  180.0000771  1.4644000  4
   8199   8198   8201   8202     1  0.0000000  3.3472000  1
   8199   8198   8201   8202     1  0.0000000  0.0000000  2
   8199   8198   8201   8202     1  180.0000771  0.3347200  3
   8199   8198   8201   8250     1  180.0000771  0.0000000  2
   8200   8198   8201   8202     1  0.0000000  3.3472000  1
   8200   8198   8201   8202     1  0.0000000  0.0000000  2
   8200   8198   8201   8202     1  180.0000771  0.3347200  3
   8200   8198   8201   8250     1  180.0000771  0.0000000  2
   8201   8250   8231   8233     1  0.0000000  1.2552000  3
   8202   8201   8250   8240     1  180.0000771  6.0668000  2
   8202   8201   8250   8240     1  180.0000771  1.4644000  4
   8203   8204   8206   8210     1  0.0000000  0.6508444  3
   8203   8204   8224   8225     1  0.0000000  1.0460000  1
   8203   8204   8224   8225     1  0.0000000  0.6694400  3
   8203   8214   8219   8220     1  0.0000000  1.0460000  1
   8203   8214   8219   8220     1  0.0000000  0.6694400  3
   8203   8221   8208   8211     1  0.0000000  1.6038667  3
   8204   8206   8207   8209     1  0.0000000  0.6508444  3
   8204   8206   8213   8215     1  0.0000000  1.0460000  1
   8204   8206   8213   8215     1  0.0000000  0.6694400  3
   8204   8203   8214   8217     1  0.0000000  0.6508444  3
   8204   8203   8214   8218     1  0.0000000  0.6508444  3
   8205   8203   8204   8206     1  0.0000000  0.6508444  3
   8205   8203   8204   8224     1  0.0000000  1.0460000  1
   8205   8203   8204   8224     1  0.0000000  0.0000000  3
   8205   8203   8204   8223     1  0.0000000  0.6508444  3
   8205   8203   8214   8219     1  0.0000000  1.0460000  1
   8205   8203   8214   8219     1  0.0000000  0.0000000  3
   8205   8203   8214   8217     1  0.0000000  0.6508444  3
   8205   8203   8214   8218     1  0.0000000  0.6508444  3
   8205   8203   8221   8208     1  0.0000000  1.6038667  3
   8206   8207   8208   8211     1  0.0000000  0.6508444  3
   8206   8207   8226   8216     1  0.0000000  1.2552000  3
   8206   8204   8224   8225     1  0.0000000  1.0460000  1
   8206   8204   8224   8225     1  0.0000000  0.6694400  3
   8207   8208   8212   8222     1  0.0000000  1.0460000  1
   8207   8208   8212   8222     1  0.0000000  0.6694400  3
   8207   8206   8213   8215     1  0.0000000  1.0460000  1
   8207   8206   8213   8215     1  0.0000000  0.6694400  3
   8207   8206   8204   8223     1  0.0000000  0.6508444  3
   8208   8207   8226   8216     1  0.0000000  1.2552000  3
   8208   8207   8206   8210     1  0.0000000  0.6508444  3
   8209   8207   8208   8212     1  0.0000000  1.0460000  1
   8209   8207   8208   8212     1  0.0000000  0.0000000  3
   8209   8207   8208   8221     1  0.0000000  1.0460000  1
   8209   8207   8208   8221     1  0.0000000  0.0000000  3
   8209   8207   8208   8211     1  0.0000000  0.6508444  3
   8209   8207   8226   8216     1  0.0000000  1.2552000  3
   8209   8207   8206   8213     1  0.0000000  1.0460000  1
   8209   8207   8206   8213     1  0.0000000  0.0000000  3
   8209   8207   8206   8210     1  0.0000000  0.6508444  3
   8210   8206   8207   8226     1  0.0000000  0.6508444  3
   8210   8206   8213   8215     1  0.0000000  0.6973333  3
   8210   8206   8204   8224     1  0.0000000  1.0460000  1
   8210   8206   8204   8224     1  0.0000000  0.0000000  3
   8210   8206   8204   8223     1  0.0000000  0.6508444  3
   8211   8208   8212   8222     1  0.0000000  0.6973333  3
   8211   8208   8207   8226     1  0.0000000  0.6508444  3
   8213   8206   8204   8223     1  0.0000000  1.0460000  1
   8213   8206   8204   8223     1  0.0000000  0.0000000  3
   8214   8203   8204   8223     1  0.0000000  0.6508444  3
   8217   8214   8219   8220     1  0.0000000  0.6973333  3
   8217   8214   8203   8221     1  0.0000000  1.0460000  1
   8217   8214   8203   8221     1  0.0000000  0.0000000  3
   8218   8214   8219   8220     1  0.0000000  0.6973333  3
   8218   8214   8203   8221     1  0.0000000  1.0460000  1
   8218   8214   8203   8221     1  0.0000000  0.0000000  3
   8221   8208   8212   8222     1  0.0000000  0.6973333  3
   8221   8203   8204   8223     1  0.0000000  1.0460000  1
   8221   8203   8204   8223     1  0.0000000  0.0000000  3
   8223   8204   8224   8225     1  0.0000000  0.6973333  3
   8227   8228   8230   8234     1  0.0000000  0.6508444  3
   8227   8228   8248   8249     1  0.0000000  1.0460000  1
   8227   8228   8248   8249     1  0.0000000  0.6694400  3
   8227   8238   8243   8244     1  0.0000000  1.0460000  1
   8227   8238   8243   8244     1  0.0000000  0.6694400  3
   8227   8245   8232   8235     1  0.0000000  1.6038667  3
   8228   8230   8231   8233     1  0.0000000  0.6508444  3
   8228   8230   8237   8239     1  0.0000000  1.0460000  1
   8228   8230   8237   8239     1  0.0000000  0.6694400  3
   8228   8227   8238   8241     1  0.0000000  0.6508444  3
   8228   8227   8238   8242     1  0.0000000  0.6508444  3
   8229   8227   8228   8230     1  0.0000000  0.6508444  3
   8229   8227   8228   8248     1  0.0000000  1.0460000  1
   8229   8227   8228   8248     1  0.0000000  0.0000000  3
   8229   8227   8228   8247     1  0.0000000  0.6508444  3
   8229   8227   8238   8243     1  0.0000000  1.0460000  1
   8229   8227   8238   8243     1  0.0000000  0.0000000  3
   8229   8227   8238   8241     1  0.0000000  0.6508444  3
   8229   8227   8238   8242     1  0.0000000  0.6508444  3
   8229   8227   8245   8232     1  0.0000000  1.6038667  3
   8230   8231   8232   8235     1  0.0000000  0.6508444  3
   8230   8231   8250   8240     1  0.0000000  1.2552000  3
   8230   8228   8248   8249     1  0.0000000  1.0460000  1
   8230   8228   8248   8249     1  0.0000000  0.6694400  3
   8231   8232   8236   8246     1  0.0000000  1.0460000  1
   8231   8232   8236   8246     1  0.0000000  0.6694400  3
   8231   8230   8237   8239     1  0.0000000  1.0460000  1
   8231   8230   8237   8239     1  0.0000000  0.6694400  3
   8231   8230   8228   8247     1  0.0000000  0.6508444  3
   8232   8231   8250   8240     1  0.0000000  1.2552000  3
   8232   8231   8230   8234     1  0.0000000  0.6508444  3
   8233   8231   8232   8236     1  0.0000000  1.0460000  1
   8233   8231   8232   8236     1  0.0000000  0.0000000  3
   8233   8231   8232   8245     1  0.0000000  1.0460000  1
   8233   8231   8232   8245     1  0.0000000  0.0000000  3
   8233   8231   8232   8235     1  0.0000000  0.6508444  3
   8233   8231   8250   8240     1  0.0000000  1.2552000  3
   8233   8231   8230   8237     1  0.0000000  1.0460000  1
   8233   8231   8230   8237     1  0.0000000  0.0000000  3
   8233   8231   8230   8234     1  0.0000000  0.6508444  3
   8234   8230   8231   8250     1  0.0000000  0.6508444  3
   8234   8230   8237   8239     1  0.0000000  0.6973333  3
   8234   8230   8228   8248     1  0.0000000  1.0460000  1
   8234   8230   8228   8248     1  0.0000000  0.0000000  3
   8234   8230   8228   8247     1  0.0000000  0.6508444  3
   8235   8232   8236   8246     1  0.0000000  0.6973333  3
   8235   8232   8231   8250     1  0.0000000  0.6508444  3
   8237   8230   8228   8247     1  0.0000000  1.0460000  1
   8237   8230   8228   8247     1  0.0000000  0.0000000  3
   8238   8227   8228   8247     1  0.0000000  0.6508444  3
   8241   8238   8243   8244     1  0.0000000  0.6973333  3
   8241   8238   8227   8245     1  0.0000000  1.0460000  1
   8241   8238   8227   8245     1  0.0000000  0.0000000  3
   8242   8238   8243   8244     1  0.0000000  0.6973333  3
   8242   8238   8227   8245     1  0.0000000  1.0460000  1
   8242   8238   8227   8245     1  0.0000000  0.0000000  3
   8245   8232   8236   8246     1  0.0000000  0.6973333  3
   8245   8227   8228   8247     1  0.0000000  1.0460000  1
   8245   8227   8228   8247     1  0.0000000  0.0000000  3
   8247   8228   8248   8249     1  0.0000000  0.6973333  3
   8251   8253   8255   8257     1  0.0000000  0.6508444  3
   8251   8253   8255   8258     1  0.0000000  0.6508444  3
   8252   8251   8253   8255     1  0.0000000  0.0000000  2
   8252   8251   8253   8254     1  0.0000000  0.0000000  2
   8252   8251   8253   8256     1  0.0000000  0.0000000  2
   8254   8253   8255   8259     1  0.0000000  0.6508444  3
   8254   8253   8255   8257     1  0.0000000  0.6508444  3
   8254   8253   8255   8258     1  0.0000000  0.6508444  3
   8255   8259   8260   8269     1  0.0000000  1.2552000  3
   8255   8259   8260   8270     1  0.0000000  1.2552000  3
   8255   8259   8261   8262     1  0.0000000  1.2552000  3
   8255   8259   8261   8264     1  0.0000000  1.2552000  3
   8256   8253   8255   8259     1  0.0000000  0.6508444  3
   8256   8253   8255   8257     1  0.0000000  0.6508444  3
   8256   8253   8255   8258     1  0.0000000  0.6508444  3
   8257   8255   8259   8260     1  0.0000000  1.2552000  3
   8257   8255   8259   8261     1  0.0000000  1.2552000  3
   8258   8255   8259   8260     1  0.0000000  1.2552000  3
   8258   8255   8259   8261     1  0.0000000  1.2552000  3
   8259   8260   8271   8272     1  0.0000000  0.6508444  3
   8259   8260   8271   8273     1  0.0000000  0.6508444  3
   8259   8261   8263   8265     1  0.0000000  0.6508444  3
   8259   8261   8263   8266     1  0.0000000  0.6508444  3
   8260   8259   8261   8262     1  0.0000000  1.2552000  3
   8260   8259   8261   8264     1  0.0000000  1.2552000  3
   8261   8259   8260   8269     1  0.0000000  1.2552000  3
   8261   8259   8260   8270     1  0.0000000  1.2552000  3
   8262   8261   8263   8267     1  0.0000000  0.6508444  3
   8262   8261   8263   8265     1  0.0000000  0.6508444  3
   8262   8261   8263   8266     1  0.0000000  0.6508444  3
   8263   8267   8299   8289     1  180.0000771  6.0668000  2
   8263   8267   8299   8289     1  180.0000771  1.4644000  4
   8264   8261   8263   8267     1  0.0000000  0.6508444  3
   8264   8261   8263   8265     1  0.0000000  0.6508444  3
   8264   8261   8263   8266     1  0.0000000  0.6508444  3
   8265   8263   8267   8268     1  0.0000000  3.3472000  1
   8265   8263   8267   8268     1  0.0000000  0.0000000  2
   8265   8263   8267   8268     1  180.0000771  0.3347200  3
   8265   8263   8267   8299     1  180.0000771  0.0000000  2
   8266   8263   8267   8268     1  0.0000000  3.3472000  1
   8266   8263   8267   8268     1  0.0000000  0.0000000  2
   8266   8263   8267   8268     1  180.0000771  0.3347200  3
   8266   8263   8267   8299     1  180.0000771  0.0000000  2
   8267   8299   8280   8282     1  0.0000000  1.2552000  3
   8268   8267   8299   8289     1  180.0000771  6.0668000  2
   8268   8267   8299   8289     1  180.0000771  1.4644000  4
   8269   8260   8271   8274     1  0.0000000  0.6508444  3
   8269   8260   8271   8272     1  0.0000000  0.6508444  3
   8269   8260   8271   8273     1  0.0000000  0.6508444  3
   8270   8260   8271   8274     1  0.0000000  0.6508444  3
   8270   8260   8271   8272     1  0.0000000  0.6508444  3
   8270   8260   8271   8273     1  0.0000000  0.6508444  3
   8271   8274   8323   8313     1  180.0000771  6.0668000  2
   8271   8274   8323   8313     1  180.0000771  1.4644000  4
   8272   8271   8274   8275     1  0.0000000  3.3472000  1
   8272   8271   8274   8275     1  0.0000000  0.0000000  2
   8272   8271   8274   8275     1  180.0000771  0.3347200  3
   8272   8271   8274   8323     1  180.0000771  0.0000000  2
   8273   8271   8274   8275     1  0.0000000  3.3472000  1
   8273   8271   8274   8275     1  0.0000000  0.0000000  2
   8273   8271   8274   8275     1  180.0000771  0.3347200  3
   8273   8271   8274   8323     1  180.0000771  0.0000000  2
   8274   8323   8304   8306     1  0.0000000  1.2552000  3
   8275   8274   8323   8313     1  180.0000771  6.0668000  2
   8275   8274   8323   8313     1  180.0000771  1.4644000  4
   8276   8277   8279   8283     1  0.0000000  0.6508444  3
   8276   8277   8297   8298     1  0.0000000  1.0460000  1
   8276   8277   8297   8298     1  0.0000000  0.6694400  3
   8276   8287   8292   8293     1  0.0000000  1.0460000  1
   8276   8287   8292   8293     1  0.0000000  0.6694400  3
   8276   8294   8281   8284     1  0.0000000  1.6038667  3
   8277   8276   8287   8290     1  0.0000000  0.6508444  3
   8277   8276   8287   8291     1  0.0000000  0.6508444  3
   8277   8279   8280   8282     1  0.0000000  0.6508444  3
   8277   8279   8286   8288     1  0.0000000  1.0460000  1
   8277   8279   8286   8288     1  0.0000000  0.6694400  3
   8278   8276   8277   8279     1  0.0000000  0.6508444  3
   8278   8276   8277   8297     1  0.0000000  1.0460000  1
   8278   8276   8277   8297     1  0.0000000  0.0000000  3
   8278   8276   8277   8296     1  0.0000000  0.6508444  3
   8278   8276   8287   8292     1  0.0000000  1.0460000  1
   8278   8276   8287   8292     1  0.0000000  0.0000000  3
   8278   8276   8287   8290     1  0.0000000  0.6508444  3
   8278   8276   8287   8291     1  0.0000000  0.6508444  3
   8278   8276   8294   8281     1  0.0000000  1.6038667  3
   8279   8277   8297   8298     1  0.0000000  1.0460000  1
   8279   8277   8297   8298     1  0.0000000  0.6694400  3
   8279   8280   8281   8284     1  0.0000000  0.6508444  3
   8279   8280   8299   8289     1  0.0000000  1.2552000  3
   8280   8279   8277   8296     1  0.0000000  0.6508444  3
   8280   8279   8286   8288     1  0.0000000  1.0460000  1
   8280   8279   8286   8288     1  0.0000000  0.6694400  3
   8280   8281   8285   8295     1  0.0000000  1.0460000  1
   8280   8281   8285   8295     1  0.0000000  0.6694400  3
   8281   8280   8279   8283     1  0.0000000  0.6508444  3
   8281   8280   8299   8289     1  0.0000000  1.2552000  3
   8282   8280   8279   8286     1  0.0000000  1.0460000  1
   8282   8280   8279   8286     1  0.0000000  0.0000000  3
   8282   8280   8279   8283     1  0.0000000  0.6508444  3
   8282   8280   8281   8285     1  0.0000000  1.0460000  1
   8282   8280   8281   8285     1  0.0000000  0.0000000  3
   8282   8280   8281   8294     1  0.0000000  1.0460000  1
   8282   8280   8281   8294     1  0.0000000  0.0000000  3
   8282   8280   8281   8284     1  0.0000000  0.6508444  3
   8282   8280   8299   8289     1  0.0000000  1.2552000  3
   8283   8279   8277   8297     1  0.0000000  1.0460000  1
   8283   8279   8277   8297     1  0.0000000  0.0000000  3
   8283   8279   8277   8296     1  0.0000000  0.6508444  3
   8283   8279   8280   8299     1  0.0000000  0.6508444  3
   8283   8279   8286   8288     1  0.0000000  0.6973333  3
   8284   8281   8280   8299     1  0.0000000  0.6508444  3
   8284   8281   8285   8295     1  0.0000000  0.6973333  3
   8286   8279   8277   8296     1  0.0000000  1.0460000  1
   8286   8279   8277   8296     1  0.0000000  0.0000000  3
   8287   8276   8277   8296     1  0.0000000  0.6508444  3
   8290   8287   8276   8294     1  0.0000000  1.0460000  1
   8290   8287   8276   8294     1  0.0000000  0.0000000  3
   8290   8287   8292   8293     1  0.0000000  0.6973333  3
   8291   8287   8276   8294     1  0.0000000  1.0460000  1
   8291   8287   8276   8294     1  0.0000000  0.0000000  3
   8291   8287   8292   8293     1  0.0000000  0.6973333  3
   8294   8276   8277   8296     1  0.0000000  1.0460000  1
   8294   8276   8277   8296     1  0.0000000  0.0000000  3
   8294   8281   8285   8295     1  0.0000000  0.6973333  3
   8296   8277   8297   8298     1  0.0000000  0.6973333  3
   8300   8301   8303   8307     1  0.0000000  0.6508444  3
   8300   8301   8321   8322     1  0.0000000  1.0460000  1
   8300   8301   8321   8322     1  0.0000000  0.6694400  3
   8300   8311   8316   8317     1  0.0000000  1.0460000  1
   8300   8311   8316   8317     1  0.0000000  0.6694400  3
   8300   8318   8305   8308     1  0.0000000  1.6038667  3
   8301   8300   8311   8314     1  0.0000000  0.6508444  3
   8301   8300   8311   8315     1  0.0000000  0.6508444  3
   8301   8303   8304   8306     1  0.0000000  0.6508444  3
   8301   8303   8310   8312     1  0.0000000  1.0460000  1
   8301   8303   8310   8312     1  0.0000000  0.6694400  3
   8302   8300   8301   8303     1  0.0000000  0.6508444  3
   8302   8300   8301   8321     1  0.0000000  1.0460000  1
   8302   8300   8301   8321     1  0.0000000  0.0000000  3
   8302   8300   8301   8320     1  0.0000000  0.6508444  3
   8302   8300   8311   8316     1  0.0000000  1.0460000  1
   8302   8300   8311   8316     1  0.0000000  0.0000000  3
   8302   8300   8311   8314     1  0.0000000  0.6508444  3
   8302   8300   8311   8315     1  0.0000000  0.6508444  3
   8302   8300   8318   8305     1  0.0000000  1.6038667  3
   8303   8301   8321   8322     1  0.0000000  1.0460000  1
   8303   8301   8321   8322     1  0.0000000  0.6694400  3
   8303   8304   8305   8308     1  0.0000000  0.6508444  3
   8303   8304   8323   8313     1  0.0000000  1.2552000  3
   8304   8303   8301   8320     1  0.0000000  0.6508444  3
   8304   8303   8310   8312     1  0.0000000  1.0460000  1
   8304   8303   8310   8312     1  0.0000000  0.6694400  3
   8304   8305   8309   8319     1  0.0000000  1.0460000  1
   8304   8305   8309   8319     1  0.0000000  0.6694400  3
   8305   8304   8303   8307     1  0.0000000  0.6508444  3
   8305   8304   8323   8313     1  0.0000000  1.2552000  3
   8306   8304   8303   8310     1  0.0000000  1.0460000  1
   8306   8304   8303   8310     1  0.0000000  0.0000000  3
   8306   8304   8303   8307     1  0.0000000  0.6508444  3
   8306   8304   8305   8309     1  0.0000000  1.0460000  1
   8306   8304   8305   8309     1  0.0000000  0.0000000  3
   8306   8304   8305   8318     1  0.0000000  1.0460000  1
   8306   8304   8305   8318     1  0.0000000  0.0000000  3
   8306   8304   8305   8308     1  0.0000000  0.6508444  3
   8306   8304   8323   8313     1  0.0000000  1.2552000  3
   8307   8303   8301   8321     1  0.0000000  1.0460000  1
   8307   8303   8301   8321     1  0.0000000  0.0000000  3
   8307   8303   8301   8320     1  0.0000000  0.6508444  3
   8307   8303   8304   8323     1  0.0000000  0.6508444  3
   8307   8303   8310   8312     1  0.0000000  0.6973333  3
   8308   8305   8304   8323     1  0.0000000  0.6508444  3
   8308   8305   8309   8319     1  0.0000000  0.6973333  3
   8310   8303   8301   8320     1  0.0000000  1.0460000  1
   8310   8303   8301   8320     1  0.0000000  0.0000000  3
   8311   8300   8301   8320     1  0.0000000  0.6508444  3
   8314   8311   8300   8318     1  0.0000000  1.0460000  1
   8314   8311   8300   8318     1  0.0000000  0.0000000  3
   8314   8311   8316   8317     1  0.0000000  0.6973333  3
   8315   8311   8300   8318     1  0.0000000  1.0460000  1
   8315   8311   8300   8318     1  0.0000000  0.0000000  3
   8315   8311   8316   8317     1  0.0000000  0.6973333  3
   8318   8300   8301   8320     1  0.0000000  1.0460000  1
   8318   8300   8301   8320     1  0.0000000  0.0000000  3
   8318   8305   8309   8319     1  0.0000000  0.6973333  3
   8320   8301   8321   8322     1  0.0000000  0.6973333  3
   8324   8326   8328   8330     1  0.0000000  0.6508444  3
   8324   8326   8328   8331     1  0.0000000  0.6508444  3
   8325   8324   8326   8328     1  0.0000000  0.0000000  2
   8325   8324   8326   8327     1  0.0000000  0.0000000  2
   8325   8324   8326   8329     1  0.0000000  0.0000000  2
   8327   8326   8328   8332     1  0.0000000  0.6508444  3
   8327   8326   8328   8330     1  0.0000000  0.6508444  3
   8327   8326   8328   8331     1  0.0000000  0.6508444  3
   8328   8332   8333   8342     1  0.0000000  1.2552000  3
   8328   8332   8333   8343     1  0.0000000  1.2552000  3
   8328   8332   8334   8335     1  0.0000000  1.2552000  3
   8328   8332   8334   8337     1  0.0000000  1.2552000  3
   8329   8326   8328   8332     1  0.0000000  0.6508444  3
   8329   8326   8328   8330     1  0.0000000  0.6508444  3
   8329   8326   8328   8331     1  0.0000000  0.6508444  3
   8330   8328   8332   8333     1  0.0000000  1.2552000  3
   8330   8328   8332   8334     1  0.0000000  1.2552000  3
   8331   8328   8332   8333     1  0.0000000  1.2552000  3
   8331   8328   8332   8334     1  0.0000000  1.2552000  3
   8332   8333   8344   8345     1  0.0000000  0.6508444  3
   8332   8333   8344   8346     1  0.0000000  0.6508444  3
   8332   8334   8336   8338     1  0.0000000  0.6508444  3
   8332   8334   8336   8339     1  0.0000000  0.6508444  3
   8333   8332   8334   8335     1  0.0000000  1.2552000  3
   8333   8332   8334   8337     1  0.0000000  1.2552000  3
   8334   8332   8333   8342     1  0.0000000  1.2552000  3
   8334   8332   8333   8343     1  0.0000000  1.2552000  3
   8335   8334   8336   8340     1  0.0000000  0.6508444  3
   8335   8334   8336   8338     1  0.0000000  0.6508444  3
   8335   8334   8336   8339     1  0.0000000  0.6508444  3
   8336   8340   8372   8362     1  180.0000771  6.0668000  2
   8336   8340   8372   8362     1  180.0000771  1.4644000  4
   8337   8334   8336   8340     1  0.0000000  0.6508444  3
   8337   8334   8336   8338     1  0.0000000  0.6508444  3
   8337   8334   8336   8339     1  0.0000000  0.6508444  3
   8338   8336   8340   8341     1  0.0000000  3.3472000  1
   8338   8336   8340   8341     1  0.0000000  0.0000000  2
   8338   8336   8340   8341     1  180.0000771  0.3347200  3
   8338   8336   8340   8372     1  180.0000771  0.0000000  2
   8339   8336   8340   8341     1  0.0000000  3.3472000  1
   8339   8336   8340   8341     1  0.0000000  0.0000000  2
   8339   8336   8340   8341     1  180.0000771  0.3347200  3
   8339   8336   8340   8372     1  180.0000771  0.0000000  2
   8340   8372   8353   8355     1  0.0000000  1.2552000  3
   8341   8340   8372   8362     1  180.0000771  6.0668000  2
   8341   8340   8372   8362     1  180.0000771  1.4644000  4
   8342   8333   8344   8347     1  0.0000000  0.6508444  3
   8342   8333   8344   8345     1  0.0000000  0.6508444  3
   8342   8333   8344   8346     1  0.0000000  0.6508444  3
   8343   8333   8344   8347     1  0.0000000  0.6508444  3
   8343   8333   8344   8345     1  0.0000000  0.6508444  3
   8343   8333   8344   8346     1  0.0000000  0.6508444  3
   8344   8347   8396   8386     1  180.0000771  6.0668000  2
   8344   8347   8396   8386     1  180.0000771  1.4644000  4
   8345   8344   8347   8348     1  0.0000000  3.3472000  1
   8345   8344   8347   8348     1  0.0000000  0.0000000  2
   8345   8344   8347   8348     1  180.0000771  0.3347200  3
   8345   8344   8347   8396     1  180.0000771  0.0000000  2
   8346   8344   8347   8348     1  0.0000000  3.3472000  1
   8346   8344   8347   8348     1  0.0000000  0.0000000  2
   8346   8344   8347   8348     1  180.0000771  0.3347200  3
   8346   8344   8347   8396     1  180.0000771  0.0000000  2
   8347   8396   8377   8379     1  0.0000000  1.2552000  3
   8348   8347   8396   8386     1  180.0000771  6.0668000  2
   8348   8347   8396   8386     1  180.0000771  1.4644000  4
   8349   8350   8352   8356     1  0.0000000  0.6508444  3
   8349   8350   8370   8371     1  0.0000000  1.0460000  1
   8349   8350   8370   8371     1  0.0000000  0.6694400  3
   8349   8360   8365   8366     1  0.0000000  1.0460000  1
   8349   8360   8365   8366     1  0.0000000  0.6694400  3
   8349   8367   8354   8357     1  0.0000000  1.6038667  3
   8350   8352   8353   8355     1  0.0000000  0.6508444  3
   8350   8352   8359   8361     1  0.0000000  1.0460000  1
   8350   8352   8359   8361     1  0.0000000  0.6694400  3
   8350   8349   8360   8363     1  0.0000000  0.6508444  3
   8350   8349   8360   8364     1  0.0000000  0.6508444  3
   8351   8349   8350   8352     1  0.0000000  0.6508444  3
   8351   8349   8350   8370     1  0.0000000  1.0460000  1
   8351   8349   8350   8370     1  0.0000000  0.0000000  3
   8351   8349   8350   8369     1  0.0000000  0.6508444  3
   8351   8349   8360   8365     1  0.0000000  1.0460000  1
   8351   8349   8360   8365     1  0.0000000  0.0000000  3
   8351   8349   8360   8363     1  0.0000000  0.6508444  3
   8351   8349   8360   8364     1  0.0000000  0.6508444  3
   8351   8349   8367   8354     1  0.0000000  1.6038667  3
   8352   8353   8354   8357     1  0.0000000  0.6508444  3
   8352   8353   8372   8362     1  0.0000000  1.2552000  3
   8352   8350   8370   8371     1  0.0000000  1.0460000  1
   8352   8350   8370   8371     1  0.0000000  0.6694400  3
   8353   8354   8358   8368     1  0.0000000  1.0460000  1
   8353   8354   8358   8368     1  0.0000000  0.6694400  3
   8353   8352   8359   8361     1  0.0000000  1.0460000  1
   8353   8352   8359   8361     1  0.0000000  0.6694400  3
   8353   8352   8350   8369     1  0.0000000  0.6508444  3
   8354   8353   8372   8362     1  0.0000000  1.2552000  3
   8354   8353   8352   8356     1  0.0000000  0.6508444  3
   8355   8353   8354   8358     1  0.0000000  1.0460000  1
   8355   8353   8354   8358     1  0.0000000  0.0000000  3
   8355   8353   8354   8367     1  0.0000000  1.0460000  1
   8355   8353   8354   8367     1  0.0000000  0.0000000  3
   8355   8353   8354   8357     1  0.0000000  0.6508444  3
   8355   8353   8372   8362     1  0.0000000  1.2552000  3
   8355   8353   8352   8359     1  0.0000000  1.0460000  1
   8355   8353   8352   8359     1  0.0000000  0.0000000  3
   8355   8353   8352   8356     1  0.0000000  0.6508444  3
   8356   8352   8353   8372     1  0.0000000  0.6508444  3
   8356   8352   8359   8361     1  0.0000000  0.6973333  3
   8356   8352   8350   8370     1  0.0000000  1.0460000  1
   8356   8352   8350   8370     1  0.0000000  0.0000000  3
   8356   8352   8350   8369     1  0.0000000  0.6508444  3
   8357   8354   8358   8368     1  0.0000000  0.6973333  3
   8357   8354   8353   8372     1  0.0000000  0.6508444  3
   8359   8352   8350   8369     1  0.0000000  1.0460000  1
   8359   8352   8350   8369     1  0.0000000  0.0000000  3
   8360   8349   8350   8369     1  0.0000000  0.6508444  3
   8363   8360   8365   8366     1  0.0000000  0.6973333  3
   8363   8360   8349   8367     1  0.0000000  1.0460000  1
   8363   8360   8349   8367     1  0.0000000  0.0000000  3
   8364   8360   8365   8366     1  0.0000000  0.6973333  3
   8364   8360   8349   8367     1  0.0000000  1.0460000  1
   8364   8360   8349   8367     1  0.0000000  0.0000000  3
   8367   8354   8358   8368     1  0.0000000  0.6973333  3
   8367   8349   8350   8369     1  0.0000000  1.0460000  1
   8367   8349   8350   8369     1  0.0000000  0.0000000  3
   8369   8350   8370   8371     1  0.0000000  0.6973333  3
   8373   8374   8376   8380     1  0.0000000  0.6508444  3
   8373   8374   8394   8395     1  0.0000000  1.0460000  1
   8373   8374   8394   8395     1  0.0000000  0.6694400  3
   8373   8384   8389   8390     1  0.0000000  1.0460000  1
   8373   8384   8389   8390     1  0.0000000  0.6694400  3
   8373   8391   8378   8381     1  0.0000000  1.6038667  3
   8374   8376   8377   8379     1  0.0000000  0.6508444  3
   8374   8376   8383   8385     1  0.0000000  1.0460000  1
   8374   8376   8383   8385     1  0.0000000  0.6694400  3
   8374   8373   8384   8387     1  0.0000000  0.6508444  3
   8374   8373   8384   8388     1  0.0000000  0.6508444  3
   8375   8373   8374   8376     1  0.0000000  0.6508444  3
   8375   8373   8374   8394     1  0.0000000  1.0460000  1
   8375   8373   8374   8394     1  0.0000000  0.0000000  3
   8375   8373   8374   8393     1  0.0000000  0.6508444  3
   8375   8373   8384   8389     1  0.0000000  1.0460000  1
   8375   8373   8384   8389     1  0.0000000  0.0000000  3
   8375   8373   8384   8387     1  0.0000000  0.6508444  3
   8375   8373   8384   8388     1  0.0000000  0.6508444  3
   8375   8373   8391   8378     1  0.0000000  1.6038667  3
   8376   8377   8378   8381     1  0.0000000  0.6508444  3
   8376   8377   8396   8386     1  0.0000000  1.2552000  3
   8376   8374   8394   8395     1  0.0000000  1.0460000  1
   8376   8374   8394   8395     1  0.0000000  0.6694400  3
   8377   8378   8382   8392     1  0.0000000  1.0460000  1
   8377   8378   8382   8392     1  0.0000000  0.6694400  3
   8377   8376   8383   8385     1  0.0000000  1.0460000  1
   8377   8376   8383   8385     1  0.0000000  0.6694400  3
   8377   8376   8374   8393     1  0.0000000  0.6508444  3
   8378   8377   8396   8386     1  0.0000000  1.2552000  3
   8378   8377   8376   8380     1  0.0000000  0.6508444  3
   8379   8377   8378   8382     1  0.0000000  1.0460000  1
   8379   8377   8378   8382     1  0.0000000  0.0000000  3
   8379   8377   8378   8391     1  0.0000000  1.0460000  1
   8379   8377   8378   8391     1  0.0000000  0.0000000  3
   8379   8377   8378   8381     1  0.0000000  0.6508444  3
   8379   8377   8396   8386     1  0.0000000  1.2552000  3
   8379   8377   8376   8383     1  0.0000000  1.0460000  1
   8379   8377   8376   8383     1  0.0000000  0.0000000  3
   8379   8377   8376   8380     1  0.0000000  0.6508444  3
   8380   8376   8377   8396     1  0.0000000  0.6508444  3
   8380   8376   8383   8385     1  0.0000000  0.6973333  3
   8380   8376   8374   8394     1  0.0000000  1.0460000  1
   8380   8376   8374   8394     1  0.0000000  0.0000000  3
   8380   8376   8374   8393     1  0.0000000  0.6508444  3
   8381   8378   8382   8392     1  0.0000000  0.6973333  3
   8381   8378   8377   8396     1  0.0000000  0.6508444  3
   8383   8376   8374   8393     1  0.0000000  1.0460000  1
   8383   8376   8374   8393     1  0.0000000  0.0000000  3
   8384   8373   8374   8393     1  0.0000000  0.6508444  3
   8387   8384   8389   8390     1  0.0000000  0.6973333  3
   8387   8384   8373   8391     1  0.0000000  1.0460000  1
   8387   8384   8373   8391     1  0.0000000  0.0000000  3
   8388   8384   8389   8390     1  0.0000000  0.6973333  3
   8388   8384   8373   8391     1  0.0000000  1.0460000  1
   8388   8384   8373   8391     1  0.0000000  0.0000000  3
   8391   8378   8382   8392     1  0.0000000  0.6973333  3
   8391   8373   8374   8393     1  0.0000000  1.0460000  1
   8391   8373   8374   8393     1  0.0000000  0.0000000  3
   8393   8374   8394   8395     1  0.0000000  0.6973333  3
   8397   8399   8401   8403     1  0.0000000  0.6508444  3
   8397   8399   8401   8404     1  0.0000000  0.6508444  3
   8398   8397   8399   8401     1  0.0000000  0.0000000  2
   8398   8397   8399   8400     1  0.0000000  0.0000000  2
   8398   8397   8399   8402     1  0.0000000  0.0000000  2
   8400   8399   8401   8405     1  0.0000000  0.6508444  3
   8400   8399   8401   8403     1  0.0000000  0.6508444  3
   8400   8399   8401   8404     1  0.0000000  0.6508444  3
   8401   8405   8406   8415     1  0.0000000  1.2552000  3
   8401   8405   8406   8416     1  0.0000000  1.2552000  3
   8401   8405   8407   8408     1  0.0000000  1.2552000  3
   8401   8405   8407   8410     1  0.0000000  1.2552000  3
   8402   8399   8401   8405     1  0.0000000  0.6508444  3
   8402   8399   8401   8403     1  0.0000000  0.6508444  3
   8402   8399   8401   8404     1  0.0000000  0.6508444  3
   8403   8401   8405   8406     1  0.0000000  1.2552000  3
   8403   8401   8405   8407     1  0.0000000  1.2552000  3
   8404   8401   8405   8406     1  0.0000000  1.2552000  3
   8404   8401   8405   8407     1  0.0000000  1.2552000  3
   8405   8406   8417   8418     1  0.0000000  0.6508444  3
   8405   8406   8417   8419     1  0.0000000  0.6508444  3
   8405   8407   8409   8411     1  0.0000000  0.6508444  3
   8405   8407   8409   8412     1  0.0000000  0.6508444  3
   8406   8405   8407   8408     1  0.0000000  1.2552000  3
   8406   8405   8407   8410     1  0.0000000  1.2552000  3
   8407   8405   8406   8415     1  0.0000000  1.2552000  3
   8407   8405   8406   8416     1  0.0000000  1.2552000  3
   8408   8407   8409   8413     1  0.0000000  0.6508444  3
   8408   8407   8409   8411     1  0.0000000  0.6508444  3
   8408   8407   8409   8412     1  0.0000000  0.6508444  3
   8409   8413   8445   8435     1  180.0000771  6.0668000  2
   8409   8413   8445   8435     1  180.0000771  1.4644000  4
   8410   8407   8409   8413     1  0.0000000  0.6508444  3
   8410   8407   8409   8411     1  0.0000000  0.6508444  3
   8410   8407   8409   8412     1  0.0000000  0.6508444  3
   8411   8409   8413   8414     1  0.0000000  3.3472000  1
   8411   8409   8413   8414     1  0.0000000  0.0000000  2
   8411   8409   8413   8414     1  180.0000771  0.3347200  3
   8411   8409   8413   8445     1  180.0000771  0.0000000  2
   8412   8409   8413   8414     1  0.0000000  3.3472000  1
   8412   8409   8413   8414     1  0.0000000  0.0000000  2
   8412   8409   8413   8414     1  180.0000771  0.3347200  3
   8412   8409   8413   8445     1  180.0000771  0.0000000  2
   8413   8445   8426   8428     1  0.0000000  1.2552000  3
   8414   8413   8445   8435     1  180.0000771  6.0668000  2
   8414   8413   8445   8435     1  180.0000771  1.4644000  4
   8415   8406   8417   8420     1  0.0000000  0.6508444  3
   8415   8406   8417   8418     1  0.0000000  0.6508444  3
   8415   8406   8417   8419     1  0.0000000  0.6508444  3
   8416   8406   8417   8420     1  0.0000000  0.6508444  3
   8416   8406   8417   8418     1  0.0000000  0.6508444  3
   8416   8406   8417   8419     1  0.0000000  0.6508444  3
   8417   8420   8469   8459     1  180.0000771  6.0668000  2
   8417   8420   8469   8459     1  180.0000771  1.4644000  4
   8418   8417   8420   8421     1  0.0000000  3.3472000  1
   8418   8417   8420   8421     1  0.0000000  0.0000000  2
   8418   8417   8420   8421     1  180.0000771  0.3347200  3
   8418   8417   8420   8469     1  180.0000771  0.0000000  2
   8419   8417   8420   8421     1  0.0000000  3.3472000  1
   8419   8417   8420   8421     1  0.0000000  0.0000000  2
   8419   8417   8420   8421     1  180.0000771  0.3347200  3
   8419   8417   8420   8469     1  180.0000771  0.0000000  2
   8420   8469   8450   8452     1  0.0000000  1.2552000  3
   8421   8420   8469   8459     1  180.0000771  6.0668000  2
   8421   8420   8469   8459     1  180.0000771  1.4644000  4
   8422   8423   8425   8429     1  0.0000000  0.6508444  3
   8422   8423   8443   8444     1  0.0000000  1.0460000  1
   8422   8423   8443   8444     1  0.0000000  0.6694400  3
   8422   8433   8438   8439     1  0.0000000  1.0460000  1
   8422   8433   8438   8439     1  0.0000000  0.6694400  3
   8422   8440   8427   8430     1  0.0000000  1.6038667  3
   8423   8422   8433   8436     1  0.0000000  0.6508444  3
   8423   8422   8433   8437     1  0.0000000  0.6508444  3
   8423   8425   8426   8428     1  0.0000000  0.6508444  3
   8423   8425   8432   8434     1  0.0000000  1.0460000  1
   8423   8425   8432   8434     1  0.0000000  0.6694400  3
   8424   8422   8423   8425     1  0.0000000  0.6508444  3
   8424   8422   8423   8443     1  0.0000000  1.0460000  1
   8424   8422   8423   8443     1  0.0000000  0.0000000  3
   8424   8422   8423   8442     1  0.0000000  0.6508444  3
   8424   8422   8433   8438     1  0.0000000  1.0460000  1
   8424   8422   8433   8438     1  0.0000000  0.0000000  3
   8424   8422   8433   8436     1  0.0000000  0.6508444  3
   8424   8422   8433   8437     1  0.0000000  0.6508444  3
   8424   8422   8440   8427     1  0.0000000  1.6038667  3
   8425   8423   8443   8444     1  0.0000000  1.0460000  1
   8425   8423   8443   8444     1  0.0000000  0.6694400  3
   8425   8426   8427   8430     1  0.0000000  0.6508444  3
   8425   8426   8445   8435     1  0.0000000  1.2552000  3
   8426   8425   8423   8442     1  0.0000000  0.6508444  3
   8426   8425   8432   8434     1  0.0000000  1.0460000  1
   8426   8425   8432   8434     1  0.0000000  0.6694400  3
   8426   8427   8431   8441     1  0.0000000  1.0460000  1
   8426   8427   8431   8441     1  0.0000000  0.6694400  3
   8427   8426   8425   8429     1  0.0000000  0.6508444  3
   8427   8426   8445   8435     1  0.0000000  1.2552000  3
   8428   8426   8425   8432     1  0.0000000  1.0460000  1
   8428   8426   8425   8432     1  0.0000000  0.0000000  3
   8428   8426   8425   8429     1  0.0000000  0.6508444  3
   8428   8426   8427   8431     1  0.0000000  1.0460000  1
   8428   8426   8427   8431     1  0.0000000  0.0000000  3
   8428   8426   8427   8440     1  0.0000000  1.0460000  1
   8428   8426   8427   8440     1  0.0000000  0.0000000  3
   8428   8426   8427   8430     1  0.0000000  0.6508444  3
   8428   8426   8445   8435     1  0.0000000  1.2552000  3
   8429   8425   8423   8443     1  0.0000000  1.0460000  1
   8429   8425   8423   8443     1  0.0000000  0.0000000  3
   8429   8425   8423   8442     1  0.0000000  0.6508444  3
   8429   8425   8426   8445     1  0.0000000  0.6508444  3
   8429   8425   8432   8434     1  0.0000000  0.6973333  3
   8430   8427   8426   8445     1  0.0000000  0.6508444  3
   8430   8427   8431   8441     1  0.0000000  0.6973333  3
   8432   8425   8423   8442     1  0.0000000  1.0460000  1
   8432   8425   8423   8442     1  0.0000000  0.0000000  3
   8433   8422   8423   8442     1  0.0000000  0.6508444  3
   8436   8433   8422   8440     1  0.0000000  1.0460000  1
   8436   8433   8422   8440     1  0.0000000  0.0000000  3
   8436   8433   8438   8439     1  0.0000000  0.6973333  3
   8437   8433   8422   8440     1  0.0000000  1.0460000  1
   8437   8433   8422   8440     1  0.0000000  0.0000000  3
   8437   8433   8438   8439     1  0.0000000  0.6973333  3
   8440   8422   8423   8442     1  0.0000000  1.0460000  1
   8440   8422   8423   8442     1  0.0000000  0.0000000  3
   8440   8427   8431   8441     1  0.0000000  0.6973333  3
   8442   8423   8443   8444     1  0.0000000  0.6973333  3
   8446   8447   8449   8453     1  0.0000000  0.6508444  3
   8446   8447   8467   8468     1  0.0000000  1.0460000  1
   8446   8447   8467   8468     1  0.0000000  0.6694400  3
   8446   8457   8462   8463     1  0.0000000  1.0460000  1
   8446   8457   8462   8463     1  0.0000000  0.6694400  3
   8446   8464   8451   8454     1  0.0000000  1.6038667  3
   8447   8446   8457   8460     1  0.0000000  0.6508444  3
   8447   8446   8457   8461     1  0.0000000  0.6508444  3
   8447   8449   8450   8452     1  0.0000000  0.6508444  3
   8447   8449   8456   8458     1  0.0000000  1.0460000  1
   8447   8449   8456   8458     1  0.0000000  0.6694400  3
   8448   8446   8447   8449     1  0.0000000  0.6508444  3
   8448   8446   8447   8467     1  0.0000000  1.0460000  1
   8448   8446   8447   8467     1  0.0000000  0.0000000  3
   8448   8446   8447   8466     1  0.0000000  0.6508444  3
   8448   8446   8457   8462     1  0.0000000  1.0460000  1
   8448   8446   8457   8462     1  0.0000000  0.0000000  3
   8448   8446   8457   8460     1  0.0000000  0.6508444  3
   8448   8446   8457   8461     1  0.0000000  0.6508444  3
   8448   8446   8464   8451     1  0.0000000  1.6038667  3
   8449   8447   8467   8468     1  0.0000000  1.0460000  1
   8449   8447   8467   8468     1  0.0000000  0.6694400  3
   8449   8450   8451   8454     1  0.0000000  0.6508444  3
   8449   8450   8469   8459     1  0.0000000  1.2552000  3
   8450   8449   8447   8466     1  0.0000000  0.6508444  3
   8450   8449   8456   8458     1  0.0000000  1.0460000  1
   8450   8449   8456   8458     1  0.0000000  0.6694400  3
   8450   8451   8455   8465     1  0.0000000  1.0460000  1
   8450   8451   8455   8465     1  0.0000000  0.6694400  3
   8451   8450   8449   8453     1  0.0000000  0.6508444  3
   8451   8450   8469   8459     1  0.0000000  1.2552000  3
   8452   8450   8449   8456     1  0.0000000  1.0460000  1
   8452   8450   8449   8456     1  0.0000000  0.0000000  3
   8452   8450   8449   8453     1  0.0000000  0.6508444  3
   8452   8450   8451   8455     1  0.0000000  1.0460000  1
   8452   8450   8451   8455     1  0.0000000  0.0000000  3
   8452   8450   8451   8464     1  0.0000000  1.0460000  1
   8452   8450   8451   8464     1  0.0000000  0.0000000  3
   8452   8450   8451   8454     1  0.0000000  0.6508444  3
   8452   8450   8469   8459     1  0.0000000  1.2552000  3
   8453   8449   8447   8467     1  0.0000000  1.0460000  1
   8453   8449   8447   8467     1  0.0000000  0.0000000  3
   8453   8449   8447   8466     1  0.0000000  0.6508444  3
   8453   8449   8450   8469     1  0.0000000  0.6508444  3
   8453   8449   8456   8458     1  0.0000000  0.6973333  3
   8454   8451   8450   8469     1  0.0000000  0.6508444  3
   8454   8451   8455   8465     1  0.0000000  0.6973333  3
   8456   8449   8447   8466     1  0.0000000  1.0460000  1
   8456   8449   8447   8466     1  0.0000000  0.0000000  3
   8457   8446   8447   8466     1  0.0000000  0.6508444  3
   8460   8457   8446   8464     1  0.0000000  1.0460000  1
   8460   8457   8446   8464     1  0.0000000  0.0000000  3
   8460   8457   8462   8463     1  0.0000000  0.6973333  3
   8461   8457   8446   8464     1  0.0000000  1.0460000  1
   8461   8457   8446   8464     1  0.0000000  0.0000000  3
   8461   8457   8462   8463     1  0.0000000  0.6973333  3
   8464   8446   8447   8466     1  0.0000000  1.0460000  1
   8464   8446   8447   8466     1  0.0000000  0.0000000  3
   8464   8451   8455   8465     1  0.0000000  0.6973333  3
   8466   8447   8467   8468     1  0.0000000  0.6973333  3
   8470   8472   8474   8476     1  0.0000000  0.6508444  3
   8470   8472   8474   8477     1  0.0000000  0.6508444  3
   8471   8470   8472   8474     1  0.0000000  0.0000000  2
   8471   8470   8472   8473     1  0.0000000  0.0000000  2
   8471   8470   8472   8475     1  0.0000000  0.0000000  2
   8473   8472   8474   8478     1  0.0000000  0.6508444  3
   8473   8472   8474   8476     1  0.0000000  0.6508444  3
   8473   8472   8474   8477     1  0.0000000  0.6508444  3
   8474   8478   8479   8488     1  0.0000000  1.2552000  3
   8474   8478   8479   8489     1  0.0000000  1.2552000  3
   8474   8478   8480   8481     1  0.0000000  1.2552000  3
   8474   8478   8480   8483     1  0.0000000  1.2552000  3
   8475   8472   8474   8478     1  0.0000000  0.6508444  3
   8475   8472   8474   8476     1  0.0000000  0.6508444  3
   8475   8472   8474   8477     1  0.0000000  0.6508444  3
   8476   8474   8478   8479     1  0.0000000  1.2552000  3
   8476   8474   8478   8480     1  0.0000000  1.2552000  3
   8477   8474   8478   8479     1  0.0000000  1.2552000  3
   8477   8474   8478   8480     1  0.0000000  1.2552000  3
   8478   8479   8490   8491     1  0.0000000  0.6508444  3
   8478   8479   8490   8492     1  0.0000000  0.6508444  3
   8478   8480   8482   8484     1  0.0000000  0.6508444  3
   8478   8480   8482   8485     1  0.0000000  0.6508444  3
   8479   8478   8480   8481     1  0.0000000  1.2552000  3
   8479   8478   8480   8483     1  0.0000000  1.2552000  3
   8480   8478   8479   8488     1  0.0000000  1.2552000  3
   8480   8478   8479   8489     1  0.0000000  1.2552000  3
   8481   8480   8482   8486     1  0.0000000  0.6508444  3
   8481   8480   8482   8484     1  0.0000000  0.6508444  3
   8481   8480   8482   8485     1  0.0000000  0.6508444  3
   8482   8486   8518   8508     1  180.0000771  6.0668000  2
   8482   8486   8518   8508     1  180.0000771  1.4644000  4
   8483   8480   8482   8486     1  0.0000000  0.6508444  3
   8483   8480   8482   8484     1  0.0000000  0.6508444  3
   8483   8480   8482   8485     1  0.0000000  0.6508444  3
   8484   8482   8486   8487     1  0.0000000  3.3472000  1
   8484   8482   8486   8487     1  0.0000000  0.0000000  2
   8484   8482   8486   8487     1  180.0000771  0.3347200  3
   8484   8482   8486   8518     1  180.0000771  0.0000000  2
   8485   8482   8486   8487     1  0.0000000  3.3472000  1
   8485   8482   8486   8487     1  0.0000000  0.0000000  2
   8485   8482   8486   8487     1  180.0000771  0.3347200  3
   8485   8482   8486   8518     1  180.0000771  0.0000000  2
   8486   8518   8499   8501     1  0.0000000  1.2552000  3
   8487   8486   8518   8508     1  180.0000771  6.0668000  2
   8487   8486   8518   8508     1  180.0000771  1.4644000  4
   8488   8479   8490   8493     1  0.0000000  0.6508444  3
   8488   8479   8490   8491     1  0.0000000  0.6508444  3
   8488   8479   8490   8492     1  0.0000000  0.6508444  3
   8489   8479   8490   8493     1  0.0000000  0.6508444  3
   8489   8479   8490   8491     1  0.0000000  0.6508444  3
   8489   8479   8490   8492     1  0.0000000  0.6508444  3
   8490   8493   8542   8532     1  180.0000771  6.0668000  2
   8490   8493   8542   8532     1  180.0000771  1.4644000  4
   8491   8490   8493   8494     1  0.0000000  3.3472000  1
   8491   8490   8493   8494     1  0.0000000  0.0000000  2
   8491   8490   8493   8494     1  180.0000771  0.3347200  3
   8491   8490   8493   8542     1  180.0000771  0.0000000  2
   8492   8490   8493   8494     1  0.0000000  3.3472000  1
   8492   8490   8493   8494     1  0.0000000  0.0000000  2
   8492   8490   8493   8494     1  180.0000771  0.3347200  3
   8492   8490   8493   8542     1  180.0000771  0.0000000  2
   8493   8542   8523   8525     1  0.0000000  1.2552000  3
   8494   8493   8542   8532     1  180.0000771  6.0668000  2
   8494   8493   8542   8532     1  180.0000771  1.4644000  4
   8495   8496   8498   8502     1  0.0000000  0.6508444  3
   8495   8496   8516   8517     1  0.0000000  1.0460000  1
   8495   8496   8516   8517     1  0.0000000  0.6694400  3
   8495   8506   8511   8512     1  0.0000000  1.0460000  1
   8495   8506   8511   8512     1  0.0000000  0.6694400  3
   8495   8513   8500   8503     1  0.0000000  1.6038667  3
   8496   8498   8499   8501     1  0.0000000  0.6508444  3
   8496   8498   8505   8507     1  0.0000000  1.0460000  1
   8496   8498   8505   8507     1  0.0000000  0.6694400  3
   8496   8495   8506   8509     1  0.0000000  0.6508444  3
   8496   8495   8506   8510     1  0.0000000  0.6508444  3
   8497   8495   8496   8498     1  0.0000000  0.6508444  3
   8497   8495   8496   8516     1  0.0000000  1.0460000  1
   8497   8495   8496   8516     1  0.0000000  0.0000000  3
   8497   8495   8496   8515     1  0.0000000  0.6508444  3
   8497   8495   8506   8511     1  0.0000000  1.0460000  1
   8497   8495   8506   8511     1  0.0000000  0.0000000  3
   8497   8495   8506   8509     1  0.0000000  0.6508444  3
   8497   8495   8506   8510     1  0.0000000  0.6508444  3
   8497   8495   8513   8500     1  0.0000000  1.6038667  3
   8498   8499   8500   8503     1  0.0000000  0.6508444  3
   8498   8499   8518   8508     1  0.0000000  1.2552000  3
   8498   8496   8516   8517     1  0.0000000  1.0460000  1
   8498   8496   8516   8517     1  0.0000000  0.6694400  3
   8499   8500   8504   8514     1  0.0000000  1.0460000  1
   8499   8500   8504   8514     1  0.0000000  0.6694400  3
   8499   8498   8505   8507     1  0.0000000  1.0460000  1
   8499   8498   8505   8507     1  0.0000000  0.6694400  3
   8499   8498   8496   8515     1  0.0000000  0.6508444  3
   8500   8499   8518   8508     1  0.0000000  1.2552000  3
   8500   8499   8498   8502     1  0.0000000  0.6508444  3
   8501   8499   8500   8504     1  0.0000000  1.0460000  1
   8501   8499   8500   8504     1  0.0000000  0.0000000  3
   8501   8499   8500   8513     1  0.0000000  1.0460000  1
   8501   8499   8500   8513     1  0.0000000  0.0000000  3
   8501   8499   8500   8503     1  0.0000000  0.6508444  3
   8501   8499   8518   8508     1  0.0000000  1.2552000  3
   8501   8499   8498   8505     1  0.0000000  1.0460000  1
   8501   8499   8498   8505     1  0.0000000  0.0000000  3
   8501   8499   8498   8502     1  0.0000000  0.6508444  3
   8502   8498   8499   8518     1  0.0000000  0.6508444  3
   8502   8498   8505   8507     1  0.0000000  0.6973333  3
   8502   8498   8496   8516     1  0.0000000  1.0460000  1
   8502   8498   8496   8516     1  0.0000000  0.0000000  3
   8502   8498   8496   8515     1  0.0000000  0.6508444  3
   8503   8500   8504   8514     1  0.0000000  0.6973333  3
   8503   8500   8499   8518     1  0.0000000  0.6508444  3
   8505   8498   8496   8515     1  0.0000000  1.0460000  1
   8505   8498   8496   8515     1  0.0000000  0.0000000  3
   8506   8495   8496   8515     1  0.0000000  0.6508444  3
   8509   8506   8511   8512     1  0.0000000  0.6973333  3
   8509   8506   8495   8513     1  0.0000000  1.0460000  1
   8509   8506   8495   8513     1  0.0000000  0.0000000  3
   8510   8506   8511   8512     1  0.0000000  0.6973333  3
   8510   8506   8495   8513     1  0.0000000  1.0460000  1
   8510   8506   8495   8513     1  0.0000000  0.0000000  3
   8513   8500   8504   8514     1  0.0000000  0.6973333  3
   8513   8495   8496   8515     1  0.0000000  1.0460000  1
   8513   8495   8496   8515     1  0.0000000  0.0000000  3
   8515   8496   8516   8517     1  0.0000000  0.6973333  3
   8519   8520   8522   8526     1  0.0000000  0.6508444  3
   8519   8520   8540   8541     1  0.0000000  1.0460000  1
   8519   8520   8540   8541     1  0.0000000  0.6694400  3
   8519   8530   8535   8536     1  0.0000000  1.0460000  1
   8519   8530   8535   8536     1  0.0000000  0.6694400  3
   8519   8537   8524   8527     1  0.0000000  1.6038667  3
   8520   8522   8523   8525     1  0.0000000  0.6508444  3
   8520   8522   8529   8531     1  0.0000000  1.0460000  1
   8520   8522   8529   8531     1  0.0000000  0.6694400  3
   8520   8519   8530   8533     1  0.0000000  0.6508444  3
   8520   8519   8530   8534     1  0.0000000  0.6508444  3
   8521   8519   8520   8522     1  0.0000000  0.6508444  3
   8521   8519   8520   8540     1  0.0000000  1.0460000  1
   8521   8519   8520   8540     1  0.0000000  0.0000000  3
   8521   8519   8520   8539     1  0.0000000  0.6508444  3
   8521   8519   8530   8535     1  0.0000000  1.0460000  1
   8521   8519   8530   8535     1  0.0000000  0.0000000  3
   8521   8519   8530   8533     1  0.0000000  0.6508444  3
   8521   8519   8530   8534     1  0.0000000  0.6508444  3
   8521   8519   8537   8524     1  0.0000000  1.6038667  3
   8522   8523   8524   8527     1  0.0000000  0.6508444  3
   8522   8523   8542   8532     1  0.0000000  1.2552000  3
   8522   8520   8540   8541     1  0.0000000  1.0460000  1
   8522   8520   8540   8541     1  0.0000000  0.6694400  3
   8523   8524   8528   8538     1  0.0000000  1.0460000  1
   8523   8524   8528   8538     1  0.0000000  0.6694400  3
   8523   8522   8529   8531     1  0.0000000  1.0460000  1
   8523   8522   8529   8531     1  0.0000000  0.6694400  3
   8523   8522   8520   8539     1  0.0000000  0.6508444  3
   8524   8523   8542   8532     1  0.0000000  1.2552000  3
   8524   8523   8522   8526     1  0.0000000  0.6508444  3
   8525   8523   8524   8528     1  0.0000000  1.0460000  1
   8525   8523   8524   8528     1  0.0000000  0.0000000  3
   8525   8523   8524   8537     1  0.0000000  1.0460000  1
   8525   8523   8524   8537     1  0.0000000  0.0000000  3
   8525   8523   8524   8527     1  0.0000000  0.6508444  3
   8525   8523   8542   8532     1  0.0000000  1.2552000  3
   8525   8523   8522   8529     1  0.0000000  1.0460000  1
   8525   8523   8522   8529     1  0.0000000  0.0000000  3
   8525   8523   8522   8526     1  0.0000000  0.6508444  3
   8526   8522   8523   8542     1  0.0000000  0.6508444  3
   8526   8522   8529   8531     1  0.0000000  0.6973333  3
   8526   8522   8520   8540     1  0.0000000  1.0460000  1
   8526   8522   8520   8540     1  0.0000000  0.0000000  3
   8526   8522   8520   8539     1  0.0000000  0.6508444  3
   8527   8524   8528   8538     1  0.0000000  0.6973333  3
   8527   8524   8523   8542     1  0.0000000  0.6508444  3
   8529   8522   8520   8539     1  0.0000000  1.0460000  1
   8529   8522   8520   8539     1  0.0000000  0.0000000  3
   8530   8519   8520   8539     1  0.0000000  0.6508444  3
   8533   8530   8535   8536     1  0.0000000  0.6973333  3
   8533   8530   8519   8537     1  0.0000000  1.0460000  1
   8533   8530   8519   8537     1  0.0000000  0.0000000  3
   8534   8530   8535   8536     1  0.0000000  0.6973333  3
   8534   8530   8519   8537     1  0.0000000  1.0460000  1
   8534   8530   8519   8537     1  0.0000000  0.0000000  3
   8537   8524   8528   8538     1  0.0000000  0.6973333  3
   8537   8519   8520   8539     1  0.0000000  1.0460000  1
   8537   8519   8520   8539     1  0.0000000  0.0000000  3
   8539   8520   8540   8541     1  0.0000000  0.6973333  3
   8543   8545   8547   8549     1  0.0000000  0.6508444  3
   8543   8545   8547   8550     1  0.0000000  0.6508444  3
   8544   8543   8545   8547     1  0.0000000  0.0000000  2
   8544   8543   8545   8546     1  0.0000000  0.0000000  2
   8544   8543   8545   8548     1  0.0000000  0.0000000  2
   8546   8545   8547   8551     1  0.0000000  0.6508444  3
   8546   8545   8547   8549     1  0.0000000  0.6508444  3
   8546   8545   8547   8550     1  0.0000000  0.6508444  3
   8547   8551   8552   8561     1  0.0000000  1.2552000  3
   8547   8551   8552   8562     1  0.0000000  1.2552000  3
   8547   8551   8553   8554     1  0.0000000  1.2552000  3
   8547   8551   8553   8556     1  0.0000000  1.2552000  3
   8548   8545   8547   8551     1  0.0000000  0.6508444  3
   8548   8545   8547   8549     1  0.0000000  0.6508444  3
   8548   8545   8547   8550     1  0.0000000  0.6508444  3
   8549   8547   8551   8552     1  0.0000000  1.2552000  3
   8549   8547   8551   8553     1  0.0000000  1.2552000  3
   8550   8547   8551   8552     1  0.0000000  1.2552000  3
   8550   8547   8551   8553     1  0.0000000  1.2552000  3
   8551   8552   8563   8564     1  0.0000000  0.6508444  3
   8551   8552   8563   8565     1  0.0000000  0.6508444  3
   8551   8553   8555   8557     1  0.0000000  0.6508444  3
   8551   8553   8555   8558     1  0.0000000  0.6508444  3
   8552   8551   8553   8554     1  0.0000000  1.2552000  3
   8552   8551   8553   8556     1  0.0000000  1.2552000  3
   8553   8551   8552   8561     1  0.0000000  1.2552000  3
   8553   8551   8552   8562     1  0.0000000  1.2552000  3
   8554   8553   8555   8559     1  0.0000000  0.6508444  3
   8554   8553   8555   8557     1  0.0000000  0.6508444  3
   8554   8553   8555   8558     1  0.0000000  0.6508444  3
   8555   8559   8591   8581     1  180.0000771  6.0668000  2
   8555   8559   8591   8581     1  180.0000771  1.4644000  4
   8556   8553   8555   8559     1  0.0000000  0.6508444  3
   8556   8553   8555   8557     1  0.0000000  0.6508444  3
   8556   8553   8555   8558     1  0.0000000  0.6508444  3
   8557   8555   8559   8560     1  0.0000000  3.3472000  1
   8557   8555   8559   8560     1  0.0000000  0.0000000  2
   8557   8555   8559   8560     1  180.0000771  0.3347200  3
   8557   8555   8559   8591     1  180.0000771  0.0000000  2
   8558   8555   8559   8560     1  0.0000000  3.3472000  1
   8558   8555   8559   8560     1  0.0000000  0.0000000  2
   8558   8555   8559   8560     1  180.0000771  0.3347200  3
   8558   8555   8559   8591     1  180.0000771  0.0000000  2
   8559   8591   8572   8574     1  0.0000000  1.2552000  3
   8560   8559   8591   8581     1  180.0000771  6.0668000  2
   8560   8559   8591   8581     1  180.0000771  1.4644000  4
   8561   8552   8563   8566     1  0.0000000  0.6508444  3
   8561   8552   8563   8564     1  0.0000000  0.6508444  3
   8561   8552   8563   8565     1  0.0000000  0.6508444  3
   8562   8552   8563   8566     1  0.0000000  0.6508444  3
   8562   8552   8563   8564     1  0.0000000  0.6508444  3
   8562   8552   8563   8565     1  0.0000000  0.6508444  3
   8563   8566   8615   8605     1  180.0000771  6.0668000  2
   8563   8566   8615   8605     1  180.0000771  1.4644000  4
   8564   8563   8566   8567     1  0.0000000  3.3472000  1
   8564   8563   8566   8567     1  0.0000000  0.0000000  2
   8564   8563   8566   8567     1  180.0000771  0.3347200  3
   8564   8563   8566   8615     1  180.0000771  0.0000000  2
   8565   8563   8566   8567     1  0.0000000  3.3472000  1
   8565   8563   8566   8567     1  0.0000000  0.0000000  2
   8565   8563   8566   8567     1  180.0000771  0.3347200  3
   8565   8563   8566   8615     1  180.0000771  0.0000000  2
   8566   8615   8596   8598     1  0.0000000  1.2552000  3
   8567   8566   8615   8605     1  180.0000771  6.0668000  2
   8567   8566   8615   8605     1  180.0000771  1.4644000  4
   8568   8569   8571   8575     1  0.0000000  0.6508444  3
   8568   8569   8589   8590     1  0.0000000  1.0460000  1
   8568   8569   8589   8590     1  0.0000000  0.6694400  3
   8568   8579   8584   8585     1  0.0000000  1.0460000  1
   8568   8579   8584   8585     1  0.0000000  0.6694400  3
   8568   8586   8573   8576     1  0.0000000  1.6038667  3
   8569   8568   8579   8582     1  0.0000000  0.6508444  3
   8569   8568   8579   8583     1  0.0000000  0.6508444  3
   8569   8571   8572   8574     1  0.0000000  0.6508444  3
   8569   8571   8578   8580     1  0.0000000  1.0460000  1
   8569   8571   8578   8580     1  0.0000000  0.6694400  3
   8570   8568   8569   8571     1  0.0000000  0.6508444  3
   8570   8568   8569   8589     1  0.0000000  1.0460000  1
   8570   8568   8569   8589     1  0.0000000  0.0000000  3
   8570   8568   8569   8588     1  0.0000000  0.6508444  3
   8570   8568   8579   8584     1  0.0000000  1.0460000  1
   8570   8568   8579   8584     1  0.0000000  0.0000000  3
   8570   8568   8579   8582     1  0.0000000  0.6508444  3
   8570   8568   8579   8583     1  0.0000000  0.6508444  3
   8570   8568   8586   8573     1  0.0000000  1.6038667  3
   8571   8569   8589   8590     1  0.0000000  1.0460000  1
   8571   8569   8589   8590     1  0.0000000  0.6694400  3
   8571   8572   8573   8576     1  0.0000000  0.6508444  3
   8571   8572   8591   8581     1  0.0000000  1.2552000  3
   8572   8571   8569   8588     1  0.0000000  0.6508444  3
   8572   8571   8578   8580     1  0.0000000  1.0460000  1
   8572   8571   8578   8580     1  0.0000000  0.6694400  3
   8572   8573   8577   8587     1  0.0000000  1.0460000  1
   8572   8573   8577   8587     1  0.0000000  0.6694400  3
   8573   8572   8571   8575     1  0.0000000  0.6508444  3
   8573   8572   8591   8581     1  0.0000000  1.2552000  3
   8574   8572   8571   8578     1  0.0000000  1.0460000  1
   8574   8572   8571   8578     1  0.0000000  0.0000000  3
   8574   8572   8571   8575     1  0.0000000  0.6508444  3
   8574   8572   8573   8577     1  0.0000000  1.0460000  1
   8574   8572   8573   8577     1  0.0000000  0.0000000  3
   8574   8572   8573   8586     1  0.0000000  1.0460000  1
   8574   8572   8573   8586     1  0.0000000  0.0000000  3
   8574   8572   8573   8576     1  0.0000000  0.6508444  3
   8574   8572   8591   8581     1  0.0000000  1.2552000  3
   8575   8571   8569   8589     1  0.0000000  1.0460000  1
   8575   8571   8569   8589     1  0.0000000  0.0000000  3
   8575   8571   8569   8588     1  0.0000000  0.6508444  3
   8575   8571   8572   8591     1  0.0000000  0.6508444  3
   8575   8571   8578   8580     1  0.0000000  0.6973333  3
   8576   8573   8572   8591     1  0.0000000  0.6508444  3
   8576   8573   8577   8587     1  0.0000000  0.6973333  3
   8578   8571   8569   8588     1  0.0000000  1.0460000  1
   8578   8571   8569   8588     1  0.0000000  0.0000000  3
   8579   8568   8569   8588     1  0.0000000  0.6508444  3
   8582   8579   8568   8586     1  0.0000000  1.0460000  1
   8582   8579   8568   8586     1  0.0000000  0.0000000  3
   8582   8579   8584   8585     1  0.0000000  0.6973333  3
   8583   8579   8568   8586     1  0.0000000  1.0460000  1
   8583   8579   8568   8586     1  0.0000000  0.0000000  3
   8583   8579   8584   8585     1  0.0000000  0.6973333  3
   8586   8568   8569   8588     1  0.0000000  1.0460000  1
   8586   8568   8569   8588     1  0.0000000  0.0000000  3
   8586   8573   8577   8587     1  0.0000000  0.6973333  3
   8588   8569   8589   8590     1  0.0000000  0.6973333  3
   8592   8593   8595   8599     1  0.0000000  0.6508444  3
   8592   8593   8613   8614     1  0.0000000  1.0460000  1
   8592   8593   8613   8614     1  0.0000000  0.6694400  3
   8592   8603   8608   8609     1  0.0000000  1.0460000  1
   8592   8603   8608   8609     1  0.0000000  0.6694400  3
   8592   8610   8597   8600     1  0.0000000  1.6038667  3
   8593   8592   8603   8606     1  0.0000000  0.6508444  3
   8593   8592   8603   8607     1  0.0000000  0.6508444  3
   8593   8595   8596   8598     1  0.0000000  0.6508444  3
   8593   8595   8602   8604     1  0.0000000  1.0460000  1
   8593   8595   8602   8604     1  0.0000000  0.6694400  3
   8594   8592   8593   8595     1  0.0000000  0.6508444  3
   8594   8592   8593   8613     1  0.0000000  1.0460000  1
   8594   8592   8593   8613     1  0.0000000  0.0000000  3
   8594   8592   8593   8612     1  0.0000000  0.6508444  3
   8594   8592   8603   8608     1  0.0000000  1.0460000  1
   8594   8592   8603   8608     1  0.0000000  0.0000000  3
   8594   8592   8603   8606     1  0.0000000  0.6508444  3
   8594   8592   8603   8607     1  0.0000000  0.6508444  3
   8594   8592   8610   8597     1  0.0000000  1.6038667  3
   8595   8593   8613   8614     1  0.0000000  1.0460000  1
   8595   8593   8613   8614     1  0.0000000  0.6694400  3
   8595   8596   8597   8600     1  0.0000000  0.6508444  3
   8595   8596   8615   8605     1  0.0000000  1.2552000  3
   8596   8595   8593   8612     1  0.0000000  0.6508444  3
   8596   8595   8602   8604     1  0.0000000  1.0460000  1
   8596   8595   8602   8604     1  0.0000000  0.6694400  3
   8596   8597   8601   8611     1  0.0000000  1.0460000  1
   8596   8597   8601   8611     1  0.0000000  0.6694400  3
   8597   8596   8595   8599     1  0.0000000  0.6508444  3
   8597   8596   8615   8605     1  0.0000000  1.2552000  3
   8598   8596   8595   8602     1  0.0000000  1.0460000  1
   8598   8596   8595   8602     1  0.0000000  0.0000000  3
   8598   8596   8595   8599     1  0.0000000  0.6508444  3
   8598   8596   8597   8601     1  0.0000000  1.0460000  1
   8598   8596   8597   8601     1  0.0000000  0.0000000  3
   8598   8596   8597   8610     1  0.0000000  1.0460000  1
   8598   8596   8597   8610     1  0.0000000  0.0000000  3
   8598   8596   8597   8600     1  0.0000000  0.6508444  3
   8598   8596   8615   8605     1  0.0000000  1.2552000  3
   8599   8595   8593   8613     1  0.0000000  1.0460000  1
   8599   8595   8593   8613     1  0.0000000  0.0000000  3
   8599   8595   8593   8612     1  0.0000000  0.6508444  3
   8599   8595   8596   8615     1  0.0000000  0.6508444  3
   8599   8595   8602   8604     1  0.0000000  0.6973333  3
   8600   8597   8596   8615     1  0.0000000  0.6508444  3
   8600   8597   8601   8611     1  0.0000000  0.6973333  3
   8602   8595   8593   8612     1  0.0000000  1.0460000  1
   8602   8595   8593   8612     1  0.0000000  0.0000000  3
   8603   8592   8593   8612     1  0.0000000  0.6508444  3
   8606   8603   8592   8610     1  0.0000000  1.0460000  1
   8606   8603   8592   8610     1  0.0000000  0.0000000  3
   8606   8603   8608   8609     1  0.0000000  0.6973333  3
   8607   8603   8592   8610     1  0.0000000  1.0460000  1
   8607   8603   8592   8610     1  0.0000000  0.0000000  3
   8607   8603   8608   8609     1  0.0000000  0.6973333  3
   8610   8592   8593   8612     1  0.0000000  1.0460000  1
   8610   8592   8593   8612     1  0.0000000  0.0000000  3
   8610   8597   8601   8611     1  0.0000000  0.6973333  3
   8612   8593   8613   8614     1  0.0000000  0.6973333  3
   8616   8618   8620   8622     1  0.0000000  0.6508444  3
   8616   8618   8620   8623     1  0.0000000  0.6508444  3
   8617   8616   8618   8620     1  0.0000000  0.0000000  2
   8617   8616   8618   8619     1  0.0000000  0.0000000  2
   8617   8616   8618   8621     1  0.0000000  0.0000000  2
   8619   8618   8620   8624     1  0.0000000  0.6508444  3
   8619   8618   8620   8622     1  0.0000000  0.6508444  3
   8619   8618   8620   8623     1  0.0000000  0.6508444  3
   8620   8624   8625   8634     1  0.0000000  1.2552000  3
   8620   8624   8625   8635     1  0.0000000  1.2552000  3
   8620   8624   8626   8627     1  0.0000000  1.2552000  3
   8620   8624   8626   8629     1  0.0000000  1.2552000  3
   8621   8618   8620   8624     1  0.0000000  0.6508444  3
   8621   8618   8620   8622     1  0.0000000  0.6508444  3
   8621   8618   8620   8623     1  0.0000000  0.6508444  3
   8622   8620   8624   8625     1  0.0000000  1.2552000  3
   8622   8620   8624   8626     1  0.0000000  1.2552000  3
   8623   8620   8624   8625     1  0.0000000  1.2552000  3
   8623   8620   8624   8626     1  0.0000000  1.2552000  3
   8624   8625   8636   8637     1  0.0000000  0.6508444  3
   8624   8625   8636   8638     1  0.0000000  0.6508444  3
   8624   8626   8628   8630     1  0.0000000  0.6508444  3
   8624   8626   8628   8631     1  0.0000000  0.6508444  3
   8625   8624   8626   8627     1  0.0000000  1.2552000  3
   8625   8624   8626   8629     1  0.0000000  1.2552000  3
   8626   8624   8625   8634     1  0.0000000  1.2552000  3
   8626   8624   8625   8635     1  0.0000000  1.2552000  3
   8627   8626   8628   8632     1  0.0000000  0.6508444  3
   8627   8626   8628   8630     1  0.0000000  0.6508444  3
   8627   8626   8628   8631     1  0.0000000  0.6508444  3
   8628   8632   8664   8654     1  180.0000771  6.0668000  2
   8628   8632   8664   8654     1  180.0000771  1.4644000  4
   8629   8626   8628   8632     1  0.0000000  0.6508444  3
   8629   8626   8628   8630     1  0.0000000  0.6508444  3
   8629   8626   8628   8631     1  0.0000000  0.6508444  3
   8630   8628   8632   8633     1  0.0000000  3.3472000  1
   8630   8628   8632   8633     1  0.0000000  0.0000000  2
   8630   8628   8632   8633     1  180.0000771  0.3347200  3
   8630   8628   8632   8664     1  180.0000771  0.0000000  2
   8631   8628   8632   8633     1  0.0000000  3.3472000  1
   8631   8628   8632   8633     1  0.0000000  0.0000000  2
   8631   8628   8632   8633     1  180.0000771  0.3347200  3
   8631   8628   8632   8664     1  180.0000771  0.0000000  2
   8632   8664   8645   8647     1  0.0000000  1.2552000  3
   8633   8632   8664   8654     1  180.0000771  6.0668000  2
   8633   8632   8664   8654     1  180.0000771  1.4644000  4
   8634   8625   8636   8639     1  0.0000000  0.6508444  3
   8634   8625   8636   8637     1  0.0000000  0.6508444  3
   8634   8625   8636   8638     1  0.0000000  0.6508444  3
   8635   8625   8636   8639     1  0.0000000  0.6508444  3
   8635   8625   8636   8637     1  0.0000000  0.6508444  3
   8635   8625   8636   8638     1  0.0000000  0.6508444  3
   8636   8639   8688   8678     1  180.0000771  6.0668000  2
   8636   8639   8688   8678     1  180.0000771  1.4644000  4
   8637   8636   8639   8640     1  0.0000000  3.3472000  1
   8637   8636   8639   8640     1  0.0000000  0.0000000  2
   8637   8636   8639   8640     1  180.0000771  0.3347200  3
   8637   8636   8639   8688     1  180.0000771  0.0000000  2
   8638   8636   8639   8640     1  0.0000000  3.3472000  1
   8638   8636   8639   8640     1  0.0000000  0.0000000  2
   8638   8636   8639   8640     1  180.0000771  0.3347200  3
   8638   8636   8639   8688     1  180.0000771  0.0000000  2
   8639   8688   8669   8671     1  0.0000000  1.2552000  3
   8640   8639   8688   8678     1  180.0000771  6.0668000  2
   8640   8639   8688   8678     1  180.0000771  1.4644000  4
   8641   8642   8644   8648     1  0.0000000  0.6508444  3
   8641   8642   8662   8663     1  0.0000000  1.0460000  1
   8641   8642   8662   8663     1  0.0000000  0.6694400  3
   8641   8652   8657   8658     1  0.0000000  1.0460000  1
   8641   8652   8657   8658     1  0.0000000  0.6694400  3
   8641   8659   8646   8649     1  0.0000000  1.6038667  3
   8642   8644   8645   8647     1  0.0000000  0.6508444  3
   8642   8644   8651   8653     1  0.0000000  1.0460000  1
   8642   8644   8651   8653     1  0.0000000  0.6694400  3
   8642   8641   8652   8655     1  0.0000000  0.6508444  3
   8642   8641   8652   8656     1  0.0000000  0.6508444  3
   8643   8641   8642   8644     1  0.0000000  0.6508444  3
   8643   8641   8642   8662     1  0.0000000  1.0460000  1
   8643   8641   8642   8662     1  0.0000000  0.0000000  3
   8643   8641   8642   8661     1  0.0000000  0.6508444  3
   8643   8641   8652   8657     1  0.0000000  1.0460000  1
   8643   8641   8652   8657     1  0.0000000  0.0000000  3
   8643   8641   8652   8655     1  0.0000000  0.6508444  3
   8643   8641   8652   8656     1  0.0000000  0.6508444  3
   8643   8641   8659   8646     1  0.0000000  1.6038667  3
   8644   8645   8646   8649     1  0.0000000  0.6508444  3
   8644   8645   8664   8654     1  0.0000000  1.2552000  3
   8644   8642   8662   8663     1  0.0000000  1.0460000  1
   8644   8642   8662   8663     1  0.0000000  0.6694400  3
   8645   8646   8650   8660     1  0.0000000  1.0460000  1
   8645   8646   8650   8660     1  0.0000000  0.6694400  3
   8645   8644   8651   8653     1  0.0000000  1.0460000  1
   8645   8644   8651   8653     1  0.0000000  0.6694400  3
   8645   8644   8642   8661     1  0.0000000  0.6508444  3
   8646   8645   8664   8654     1  0.0000000  1.2552000  3
   8646   8645   8644   8648     1  0.0000000  0.6508444  3
   8647   8645   8646   8650     1  0.0000000  1.0460000  1
   8647   8645   8646   8650     1  0.0000000  0.0000000  3
   8647   8645   8646   8659     1  0.0000000  1.0460000  1
   8647   8645   8646   8659     1  0.0000000  0.0000000  3
   8647   8645   8646   8649     1  0.0000000  0.6508444  3
   8647   8645   8664   8654     1  0.0000000  1.2552000  3
   8647   8645   8644   8651     1  0.0000000  1.0460000  1
   8647   8645   8644   8651     1  0.0000000  0.0000000  3
   8647   8645   8644   8648     1  0.0000000  0.6508444  3
   8648   8644   8645   8664     1  0.0000000  0.6508444  3
   8648   8644   8651   8653     1  0.0000000  0.6973333  3
   8648   8644   8642   8662     1  0.0000000  1.0460000  1
   8648   8644   8642   8662     1  0.0000000  0.0000000  3
   8648   8644   8642   8661     1  0.0000000  0.6508444  3
   8649   8646   8650   8660     1  0.0000000  0.6973333  3
   8649   8646   8645   8664     1  0.0000000  0.6508444  3
   8651   8644   8642   8661     1  0.0000000  1.0460000  1
   8651   8644   8642   8661     1  0.0000000  0.0000000  3
   8652   8641   8642   8661     1  0.0000000  0.6508444  3
   8655   8652   8657   8658     1  0.0000000  0.6973333  3
   8655   8652   8641   8659     1  0.0000000  1.0460000  1
   8655   8652   8641   8659     1  0.0000000  0.0000000  3
   8656   8652   8657   8658     1  0.0000000  0.6973333  3
   8656   8652   8641   8659     1  0.0000000  1.0460000  1
   8656   8652   8641   8659     1  0.0000000  0.0000000  3
   8659   8646   8650   8660     1  0.0000000  0.6973333  3
   8659   8641   8642   8661     1  0.0000000  1.0460000  1
   8659   8641   8642   8661     1  0.0000000  0.0000000  3
   8661   8642   8662   8663     1  0.0000000  0.6973333  3
   8665   8666   8668   8672     1  0.0000000  0.6508444  3
   8665   8666   8686   8687     1  0.0000000  1.0460000  1
   8665   8666   8686   8687     1  0.0000000  0.6694400  3
   8665   8676   8681   8682     1  0.0000000  1.0460000  1
   8665   8676   8681   8682     1  0.0000000  0.6694400  3
   8665   8683   8670   8673     1  0.0000000  1.6038667  3
   8666   8668   8669   8671     1  0.0000000  0.6508444  3
   8666   8668   8675   8677     1  0.0000000  1.0460000  1
   8666   8668   8675   8677     1  0.0000000  0.6694400  3
   8666   8665   8676   8679     1  0.0000000  0.6508444  3
   8666   8665   8676   8680     1  0.0000000  0.6508444  3
   8667   8665   8666   8668     1  0.0000000  0.6508444  3
   8667   8665   8666   8686     1  0.0000000  1.0460000  1
   8667   8665   8666   8686     1  0.0000000  0.0000000  3
   8667   8665   8666   8685     1  0.0000000  0.6508444  3
   8667   8665   8676   8681     1  0.0000000  1.0460000  1
   8667   8665   8676   8681     1  0.0000000  0.0000000  3
   8667   8665   8676   8679     1  0.0000000  0.6508444  3
   8667   8665   8676   8680     1  0.0000000  0.6508444  3
   8667   8665   8683   8670     1  0.0000000  1.6038667  3
   8668   8669   8670   8673     1  0.0000000  0.6508444  3
   8668   8669   8688   8678     1  0.0000000  1.2552000  3
   8668   8666   8686   8687     1  0.0000000  1.0460000  1
   8668   8666   8686   8687     1  0.0000000  0.6694400  3
   8669   8670   8674   8684     1  0.0000000  1.0460000  1
   8669   8670   8674   8684     1  0.0000000  0.6694400  3
   8669   8668   8675   8677     1  0.0000000  1.0460000  1
   8669   8668   8675   8677     1  0.0000000  0.6694400  3
   8669   8668   8666   8685     1  0.0000000  0.6508444  3
   8670   8669   8688   8678     1  0.0000000  1.2552000  3
   8670   8669   8668   8672     1  0.0000000  0.6508444  3
   8671   8669   8670   8674     1  0.0000000  1.0460000  1
   8671   8669   8670   8674     1  0.0000000  0.0000000  3
   8671   8669   8670   8683     1  0.0000000  1.0460000  1
   8671   8669   8670   8683     1  0.0000000  0.0000000  3
   8671   8669   8670   8673     1  0.0000000  0.6508444  3
   8671   8669   8688   8678     1  0.0000000  1.2552000  3
   8671   8669   8668   8675     1  0.0000000  1.0460000  1
   8671   8669   8668   8675     1  0.0000000  0.0000000  3
   8671   8669   8668   8672     1  0.0000000  0.6508444  3
   8672   8668   8669   8688     1  0.0000000  0.6508444  3
   8672   8668   8675   8677     1  0.0000000  0.6973333  3
   8672   8668   8666   8686     1  0.0000000  1.0460000  1
   8672   8668   8666   8686     1  0.0000000  0.0000000  3
   8672   8668   8666   8685     1  0.0000000  0.6508444  3
   8673   8670   8674   8684     1  0.0000000  0.6973333  3
   8673   8670   8669   8688     1  0.0000000  0.6508444  3
   8675   8668   8666   8685     1  0.0000000  1.0460000  1
   8675   8668   8666   8685     1  0.0000000  0.0000000  3
   8676   8665   8666   8685     1  0.0000000  0.6508444  3
   8679   8676   8681   8682     1  0.0000000  0.6973333  3
   8679   8676   8665   8683     1  0.0000000  1.0460000  1
   8679   8676   8665   8683     1  0.0000000  0.0000000  3
   8680   8676   8681   8682     1  0.0000000  0.6973333  3
   8680   8676   8665   8683     1  0.0000000  1.0460000  1
   8680   8676   8665   8683     1  0.0000000  0.0000000  3
   8683   8670   8674   8684     1  0.0000000  0.6973333  3
   8683   8665   8666   8685     1  0.0000000  1.0460000  1
   8683   8665   8666   8685     1  0.0000000  0.0000000  3
   8685   8666   8686   8687     1  0.0000000  0.6973333  3
   8689   8691   8693   8695     1  0.0000000  0.6508444  3
   8689   8691   8693   8696     1  0.0000000  0.6508444  3
   8690   8689   8691   8693     1  0.0000000  0.0000000  2
   8690   8689   8691   8692     1  0.0000000  0.0000000  2
   8690   8689   8691   8694     1  0.0000000  0.0000000  2
   8692   8691   8693   8697     1  0.0000000  0.6508444  3
   8692   8691   8693   8695     1  0.0000000  0.6508444  3
   8692   8691   8693   8696     1  0.0000000  0.6508444  3
   8693   8697   8698   8707     1  0.0000000  1.2552000  3
   8693   8697   8698   8708     1  0.0000000  1.2552000  3
   8693   8697   8699   8700     1  0.0000000  1.2552000  3
   8693   8697   8699   8702     1  0.0000000  1.2552000  3
   8694   8691   8693   8697     1  0.0000000  0.6508444  3
   8694   8691   8693   8695     1  0.0000000  0.6508444  3
   8694   8691   8693   8696     1  0.0000000  0.6508444  3
   8695   8693   8697   8698     1  0.0000000  1.2552000  3
   8695   8693   8697   8699     1  0.0000000  1.2552000  3
   8696   8693   8697   8698     1  0.0000000  1.2552000  3
   8696   8693   8697   8699     1  0.0000000  1.2552000  3
   8697   8698   8709   8710     1  0.0000000  0.6508444  3
   8697   8698   8709   8711     1  0.0000000  0.6508444  3
   8697   8699   8701   8703     1  0.0000000  0.6508444  3
   8697   8699   8701   8704     1  0.0000000  0.6508444  3
   8698   8697   8699   8700     1  0.0000000  1.2552000  3
   8698   8697   8699   8702     1  0.0000000  1.2552000  3
   8699   8697   8698   8707     1  0.0000000  1.2552000  3
   8699   8697   8698   8708     1  0.0000000  1.2552000  3
   8700   8699   8701   8705     1  0.0000000  0.6508444  3
   8700   8699   8701   8703     1  0.0000000  0.6508444  3
   8700   8699   8701   8704     1  0.0000000  0.6508444  3
   8701   8705   8737   8727     1  180.0000771  6.0668000  2
   8701   8705   8737   8727     1  180.0000771  1.4644000  4
   8702   8699   8701   8705     1  0.0000000  0.6508444  3
   8702   8699   8701   8703     1  0.0000000  0.6508444  3
   8702   8699   8701   8704     1  0.0000000  0.6508444  3
   8703   8701   8705   8706     1  0.0000000  3.3472000  1
   8703   8701   8705   8706     1  0.0000000  0.0000000  2
   8703   8701   8705   8706     1  180.0000771  0.3347200  3
   8703   8701   8705   8737     1  180.0000771  0.0000000  2
   8704   8701   8705   8706     1  0.0000000  3.3472000  1
   8704   8701   8705   8706     1  0.0000000  0.0000000  2
   8704   8701   8705   8706     1  180.0000771  0.3347200  3
   8704   8701   8705   8737     1  180.0000771  0.0000000  2
   8705   8737   8718   8720     1  0.0000000  1.2552000  3
   8706   8705   8737   8727     1  180.0000771  6.0668000  2
   8706   8705   8737   8727     1  180.0000771  1.4644000  4
   8707   8698   8709   8712     1  0.0000000  0.6508444  3
   8707   8698   8709   8710     1  0.0000000  0.6508444  3
   8707   8698   8709   8711     1  0.0000000  0.6508444  3
   8708   8698   8709   8712     1  0.0000000  0.6508444  3
   8708   8698   8709   8710     1  0.0000000  0.6508444  3
   8708   8698   8709   8711     1  0.0000000  0.6508444  3
   8709   8712   8761   8751     1  180.0000771  6.0668000  2
   8709   8712   8761   8751     1  180.0000771  1.4644000  4
   8710   8709   8712   8713     1  0.0000000  3.3472000  1
   8710   8709   8712   8713     1  0.0000000  0.0000000  2
   8710   8709   8712   8713     1  180.0000771  0.3347200  3
   8710   8709   8712   8761     1  180.0000771  0.0000000  2
   8711   8709   8712   8713     1  0.0000000  3.3472000  1
   8711   8709   8712   8713     1  0.0000000  0.0000000  2
   8711   8709   8712   8713     1  180.0000771  0.3347200  3
   8711   8709   8712   8761     1  180.0000771  0.0000000  2
   8712   8761   8742   8744     1  0.0000000  1.2552000  3
   8713   8712   8761   8751     1  180.0000771  6.0668000  2
   8713   8712   8761   8751     1  180.0000771  1.4644000  4
   8714   8715   8717   8721     1  0.0000000  0.6508444  3
   8714   8715   8735   8736     1  0.0000000  1.0460000  1
   8714   8715   8735   8736     1  0.0000000  0.6694400  3
   8714   8725   8730   8731     1  0.0000000  1.0460000  1
   8714   8725   8730   8731     1  0.0000000  0.6694400  3
   8714   8732   8719   8722     1  0.0000000  1.6038667  3
   8715   8714   8725   8728     1  0.0000000  0.6508444  3
   8715   8714   8725   8729     1  0.0000000  0.6508444  3
   8715   8717   8718   8720     1  0.0000000  0.6508444  3
   8715   8717   8724   8726     1  0.0000000  1.0460000  1
   8715   8717   8724   8726     1  0.0000000  0.6694400  3
   8716   8714   8715   8717     1  0.0000000  0.6508444  3
   8716   8714   8715   8735     1  0.0000000  1.0460000  1
   8716   8714   8715   8735     1  0.0000000  0.0000000  3
   8716   8714   8715   8734     1  0.0000000  0.6508444  3
   8716   8714   8725   8730     1  0.0000000  1.0460000  1
   8716   8714   8725   8730     1  0.0000000  0.0000000  3
   8716   8714   8725   8728     1  0.0000000  0.6508444  3
   8716   8714   8725   8729     1  0.0000000  0.6508444  3
   8716   8714   8732   8719     1  0.0000000  1.6038667  3
   8717   8715   8735   8736     1  0.0000000  1.0460000  1
   8717   8715   8735   8736     1  0.0000000  0.6694400  3
   8717   8718   8719   8722     1  0.0000000  0.6508444  3
   8717   8718   8737   8727     1  0.0000000  1.2552000  3
   8718   8717   8715   8734     1  0.0000000  0.6508444  3
   8718   8717   8724   8726     1  0.0000000  1.0460000  1
   8718   8717   8724   8726     1  0.0000000  0.6694400  3
   8718   8719   8723   8733     1  0.0000000  1.0460000  1
   8718   8719   8723   8733     1  0.0000000  0.6694400  3
   8719   8718   8717   8721     1  0.0000000  0.6508444  3
   8719   8718   8737   8727     1  0.0000000  1.2552000  3
   8720   8718   8717   8724     1  0.0000000  1.0460000  1
   8720   8718   8717   8724     1  0.0000000  0.0000000  3
   8720   8718   8717   8721     1  0.0000000  0.6508444  3
   8720   8718   8719   8723     1  0.0000000  1.0460000  1
   8720   8718   8719   8723     1  0.0000000  0.0000000  3
   8720   8718   8719   8732     1  0.0000000  1.0460000  1
   8720   8718   8719   8732     1  0.0000000  0.0000000  3
   8720   8718   8719   8722     1  0.0000000  0.6508444  3
   8720   8718   8737   8727     1  0.0000000  1.2552000  3
   8721   8717   8715   8735     1  0.0000000  1.0460000  1
   8721   8717   8715   8735     1  0.0000000  0.0000000  3
   8721   8717   8715   8734     1  0.0000000  0.6508444  3
   8721   8717   8718   8737     1  0.0000000  0.6508444  3
   8721   8717   8724   8726     1  0.0000000  0.6973333  3
   8722   8719   8718   8737     1  0.0000000  0.6508444  3
   8722   8719   8723   8733     1  0.0000000  0.6973333  3
   8724   8717   8715   8734     1  0.0000000  1.0460000  1
   8724   8717   8715   8734     1  0.0000000  0.0000000  3
   8725   8714   8715   8734     1  0.0000000  0.6508444  3
   8728   8725   8714   8732     1  0.0000000  1.0460000  1
   8728   8725   8714   8732     1  0.0000000  0.0000000  3
   8728   8725   8730   8731     1  0.0000000  0.6973333  3
   8729   8725   8714   8732     1  0.0000000  1.0460000  1
   8729   8725   8714   8732     1  0.0000000  0.0000000  3
   8729   8725   8730   8731     1  0.0000000  0.6973333  3
   8732   8714   8715   8734     1  0.0000000  1.0460000  1
   8732   8714   8715   8734     1  0.0000000  0.0000000  3
   8732   8719   8723   8733     1  0.0000000  0.6973333  3
   8734   8715   8735   8736     1  0.0000000  0.6973333  3
   8738   8739   8741   8745     1  0.0000000  0.6508444  3
   8738   8739   8759   8760     1  0.0000000  1.0460000  1
   8738   8739   8759   8760     1  0.0000000  0.6694400  3
   8738   8749   8754   8755     1  0.0000000  1.0460000  1
   8738   8749   8754   8755     1  0.0000000  0.6694400  3
   8738   8756   8743   8746     1  0.0000000  1.6038667  3
   8739   8738   8749   8752     1  0.0000000  0.6508444  3
   8739   8738   8749   8753     1  0.0000000  0.6508444  3
   8739   8741   8742   8744     1  0.0000000  0.6508444  3
   8739   8741   8748   8750     1  0.0000000  1.0460000  1
   8739   8741   8748   8750     1  0.0000000  0.6694400  3
   8740   8738   8739   8741     1  0.0000000  0.6508444  3
   8740   8738   8739   8759     1  0.0000000  1.0460000  1
   8740   8738   8739   8759     1  0.0000000  0.0000000  3
   8740   8738   8739   8758     1  0.0000000  0.6508444  3
   8740   8738   8749   8754     1  0.0000000  1.0460000  1
   8740   8738   8749   8754     1  0.0000000  0.0000000  3
   8740   8738   8749   8752     1  0.0000000  0.6508444  3
   8740   8738   8749   8753     1  0.0000000  0.6508444  3
   8740   8738   8756   8743     1  0.0000000  1.6038667  3
   8741   8739   8759   8760     1  0.0000000  1.0460000  1
   8741   8739   8759   8760     1  0.0000000  0.6694400  3
   8741   8742   8743   8746     1  0.0000000  0.6508444  3
   8741   8742   8761   8751     1  0.0000000  1.2552000  3
   8742   8741   8739   8758     1  0.0000000  0.6508444  3
   8742   8741   8748   8750     1  0.0000000  1.0460000  1
   8742   8741   8748   8750     1  0.0000000  0.6694400  3
   8742   8743   8747   8757     1  0.0000000  1.0460000  1
   8742   8743   8747   8757     1  0.0000000  0.6694400  3
   8743   8742   8741   8745     1  0.0000000  0.6508444  3
   8743   8742   8761   8751     1  0.0000000  1.2552000  3
   8744   8742   8741   8748     1  0.0000000  1.0460000  1
   8744   8742   8741   8748     1  0.0000000  0.0000000  3
   8744   8742   8741   8745     1  0.0000000  0.6508444  3
   8744   8742   8743   8747     1  0.0000000  1.0460000  1
   8744   8742   8743   8747     1  0.0000000  0.0000000  3
   8744   8742   8743   8756     1  0.0000000  1.0460000  1
   8744   8742   8743   8756     1  0.0000000  0.0000000  3
   8744   8742   8743   8746     1  0.0000000  0.6508444  3
   8744   8742   8761   8751     1  0.0000000  1.2552000  3
   8745   8741   8739   8759     1  0.0000000  1.0460000  1
   8745   8741   8739   8759     1  0.0000000  0.0000000  3
   8745   8741   8739   8758     1  0.0000000  0.6508444  3
   8745   8741   8742   8761     1  0.0000000  0.6508444  3
   8745   8741   8748   8750     1  0.0000000  0.6973333  3
   8746   8743   8742   8761     1  0.0000000  0.6508444  3
   8746   8743   8747   8757     1  0.0000000  0.6973333  3
   8748   8741   8739   8758     1  0.0000000  1.0460000  1
   8748   8741   8739   8758     1  0.0000000  0.0000000  3
   8749   8738   8739   8758     1  0.0000000  0.6508444  3
   8752   8749   8738   8756     1  0.0000000  1.0460000  1
   8752   8749   8738   8756     1  0.0000000  0.0000000  3
   8752   8749   8754   8755     1  0.0000000  0.6973333  3
   8753   8749   8738   8756     1  0.0000000  1.0460000  1
   8753   8749   8738   8756     1  0.0000000  0.0000000  3
   8753   8749   8754   8755     1  0.0000000  0.6973333  3
   8756   8738   8739   8758     1  0.0000000  1.0460000  1
   8756   8738   8739   8758     1  0.0000000  0.0000000  3
   8756   8743   8747   8757     1  0.0000000  0.6973333  3
   8758   8739   8759   8760     1  0.0000000  0.6973333  3
   8762   8764   8766   8768     1  0.0000000  0.6508444  3
   8762   8764   8766   8769     1  0.0000000  0.6508444  3
   8763   8762   8764   8766     1  0.0000000  0.0000000  2
   8763   8762   8764   8765     1  0.0000000  0.0000000  2
   8763   8762   8764   8767     1  0.0000000  0.0000000  2
   8765   8764   8766   8770     1  0.0000000  0.6508444  3
   8765   8764   8766   8768     1  0.0000000  0.6508444  3
   8765   8764   8766   8769     1  0.0000000  0.6508444  3
   8766   8770   8771   8780     1  0.0000000  1.2552000  3
   8766   8770   8771   8781     1  0.0000000  1.2552000  3
   8766   8770   8772   8773     1  0.0000000  1.2552000  3
   8766   8770   8772   8775     1  0.0000000  1.2552000  3
   8767   8764   8766   8770     1  0.0000000  0.6508444  3
   8767   8764   8766   8768     1  0.0000000  0.6508444  3
   8767   8764   8766   8769     1  0.0000000  0.6508444  3
   8768   8766   8770   8771     1  0.0000000  1.2552000  3
   8768   8766   8770   8772     1  0.0000000  1.2552000  3
   8769   8766   8770   8771     1  0.0000000  1.2552000  3
   8769   8766   8770   8772     1  0.0000000  1.2552000  3
   8770   8771   8782   8783     1  0.0000000  0.6508444  3
   8770   8771   8782   8784     1  0.0000000  0.6508444  3
   8770   8772   8774   8776     1  0.0000000  0.6508444  3
   8770   8772   8774   8777     1  0.0000000  0.6508444  3
   8771   8770   8772   8773     1  0.0000000  1.2552000  3
   8771   8770   8772   8775     1  0.0000000  1.2552000  3
   8772   8770   8771   8780     1  0.0000000  1.2552000  3
   8772   8770   8771   8781     1  0.0000000  1.2552000  3
   8773   8772   8774   8778     1  0.0000000  0.6508444  3
   8773   8772   8774   8776     1  0.0000000  0.6508444  3
   8773   8772   8774   8777     1  0.0000000  0.6508444  3
   8774   8778   8810   8800     1  180.0000771  6.0668000  2
   8774   8778   8810   8800     1  180.0000771  1.4644000  4
   8775   8772   8774   8778     1  0.0000000  0.6508444  3
   8775   8772   8774   8776     1  0.0000000  0.6508444  3
   8775   8772   8774   8777     1  0.0000000  0.6508444  3
   8776   8774   8778   8779     1  0.0000000  3.3472000  1
   8776   8774   8778   8779     1  0.0000000  0.0000000  2
   8776   8774   8778   8779     1  180.0000771  0.3347200  3
   8776   8774   8778   8810     1  180.0000771  0.0000000  2
   8777   8774   8778   8779     1  0.0000000  3.3472000  1
   8777   8774   8778   8779     1  0.0000000  0.0000000  2
   8777   8774   8778   8779     1  180.0000771  0.3347200  3
   8777   8774   8778   8810     1  180.0000771  0.0000000  2
   8778   8810   8791   8793     1  0.0000000  1.2552000  3
   8779   8778   8810   8800     1  180.0000771  6.0668000  2
   8779   8778   8810   8800     1  180.0000771  1.4644000  4
   8780   8771   8782   8785     1  0.0000000  0.6508444  3
   8780   8771   8782   8783     1  0.0000000  0.6508444  3
   8780   8771   8782   8784     1  0.0000000  0.6508444  3
   8781   8771   8782   8785     1  0.0000000  0.6508444  3
   8781   8771   8782   8783     1  0.0000000  0.6508444  3
   8781   8771   8782   8784     1  0.0000000  0.6508444  3
   8782   8785   8834   8824     1  180.0000771  6.0668000  2
   8782   8785   8834   8824     1  180.0000771  1.4644000  4
   8783   8782   8785   8786     1  0.0000000  3.3472000  1
   8783   8782   8785   8786     1  0.0000000  0.0000000  2
   8783   8782   8785   8786     1  180.0000771  0.3347200  3
   8783   8782   8785   8834     1  180.0000771  0.0000000  2
   8784   8782   8785   8786     1  0.0000000  3.3472000  1
   8784   8782   8785   8786     1  0.0000000  0.0000000  2
   8784   8782   8785   8786     1  180.0000771  0.3347200  3
   8784   8782   8785   8834     1  180.0000771  0.0000000  2
   8785   8834   8815   8817     1  0.0000000  1.2552000  3
   8786   8785   8834   8824     1  180.0000771  6.0668000  2
   8786   8785   8834   8824     1  180.0000771  1.4644000  4
   8787   8788   8790   8794     1  0.0000000  0.6508444  3
   8787   8788   8808   8809     1  0.0000000  1.0460000  1
   8787   8788   8808   8809     1  0.0000000  0.6694400  3
   8787   8798   8803   8804     1  0.0000000  1.0460000  1
   8787   8798   8803   8804     1  0.0000000  0.6694400  3
   8787   8805   8792   8795     1  0.0000000  1.6038667  3
   8788   8790   8791   8793     1  0.0000000  0.6508444  3
   8788   8790   8797   8799     1  0.0000000  1.0460000  1
   8788   8790   8797   8799     1  0.0000000  0.6694400  3
   8788   8787   8798   8801     1  0.0000000  0.6508444  3
   8788   8787   8798   8802     1  0.0000000  0.6508444  3
   8789   8787   8788   8790     1  0.0000000  0.6508444  3
   8789   8787   8788   8808     1  0.0000000  1.0460000  1
   8789   8787   8788   8808     1  0.0000000  0.0000000  3
   8789   8787   8788   8807     1  0.0000000  0.6508444  3
   8789   8787   8798   8803     1  0.0000000  1.0460000  1
   8789   8787   8798   8803     1  0.0000000  0.0000000  3
   8789   8787   8798   8801     1  0.0000000  0.6508444  3
   8789   8787   8798   8802     1  0.0000000  0.6508444  3
   8789   8787   8805   8792     1  0.0000000  1.6038667  3
   8790   8791   8792   8795     1  0.0000000  0.6508444  3
   8790   8791   8810   8800     1  0.0000000  1.2552000  3
   8790   8788   8808   8809     1  0.0000000  1.0460000  1
   8790   8788   8808   8809     1  0.0000000  0.6694400  3
   8791   8792   8796   8806     1  0.0000000  1.0460000  1
   8791   8792   8796   8806     1  0.0000000  0.6694400  3
   8791   8790   8797   8799     1  0.0000000  1.0460000  1
   8791   8790   8797   8799     1  0.0000000  0.6694400  3
   8791   8790   8788   8807     1  0.0000000  0.6508444  3
   8792   8791   8810   8800     1  0.0000000  1.2552000  3
   8792   8791   8790   8794     1  0.0000000  0.6508444  3
   8793   8791   8792   8796     1  0.0000000  1.0460000  1
   8793   8791   8792   8796     1  0.0000000  0.0000000  3
   8793   8791   8792   8805     1  0.0000000  1.0460000  1
   8793   8791   8792   8805     1  0.0000000  0.0000000  3
   8793   8791   8792   8795     1  0.0000000  0.6508444  3
   8793   8791   8810   8800     1  0.0000000  1.2552000  3
   8793   8791   8790   8797     1  0.0000000  1.0460000  1
   8793   8791   8790   8797     1  0.0000000  0.0000000  3
   8793   8791   8790   8794     1  0.0000000  0.6508444  3
   8794   8790   8791   8810     1  0.0000000  0.6508444  3
   8794   8790   8797   8799     1  0.0000000  0.6973333  3
   8794   8790   8788   8808     1  0.0000000  1.0460000  1
   8794   8790   8788   8808     1  0.0000000  0.0000000  3
   8794   8790   8788   8807     1  0.0000000  0.6508444  3
   8795   8792   8796   8806     1  0.0000000  0.6973333  3
   8795   8792   8791   8810     1  0.0000000  0.6508444  3
   8797   8790   8788   8807     1  0.0000000  1.0460000  1
   8797   8790   8788   8807     1  0.0000000  0.0000000  3
   8798   8787   8788   8807     1  0.0000000  0.6508444  3
   8801   8798   8803   8804     1  0.0000000  0.6973333  3
   8801   8798   8787   8805     1  0.0000000  1.0460000  1
   8801   8798   8787   8805     1  0.0000000  0.0000000  3
   8802   8798   8803   8804     1  0.0000000  0.6973333  3
   8802   8798   8787   8805     1  0.0000000  1.0460000  1
   8802   8798   8787   8805     1  0.0000000  0.0000000  3
   8805   8792   8796   8806     1  0.0000000  0.6973333  3
   8805   8787   8788   8807     1  0.0000000  1.0460000  1
   8805   8787   8788   8807     1  0.0000000  0.0000000  3
   8807   8788   8808   8809     1  0.0000000  0.6973333  3
   8811   8812   8814   8818     1  0.0000000  0.6508444  3
   8811   8812   8832   8833     1  0.0000000  1.0460000  1
   8811   8812   8832   8833     1  0.0000000  0.6694400  3
   8811   8822   8827   8828     1  0.0000000  1.0460000  1
   8811   8822   8827   8828     1  0.0000000  0.6694400  3
   8811   8829   8816   8819     1  0.0000000  1.6038667  3
   8812   8814   8815   8817     1  0.0000000  0.6508444  3
   8812   8814   8821   8823     1  0.0000000  1.0460000  1
   8812   8814   8821   8823     1  0.0000000  0.6694400  3
   8812   8811   8822   8825     1  0.0000000  0.6508444  3
   8812   8811   8822   8826     1  0.0000000  0.6508444  3
   8813   8811   8812   8814     1  0.0000000  0.6508444  3
   8813   8811   8812   8832     1  0.0000000  1.0460000  1
   8813   8811   8812   8832     1  0.0000000  0.0000000  3
   8813   8811   8812   8831     1  0.0000000  0.6508444  3
   8813   8811   8822   8827     1  0.0000000  1.0460000  1
   8813   8811   8822   8827     1  0.0000000  0.0000000  3
   8813   8811   8822   8825     1  0.0000000  0.6508444  3
   8813   8811   8822   8826     1  0.0000000  0.6508444  3
   8813   8811   8829   8816     1  0.0000000  1.6038667  3
   8814   8815   8816   8819     1  0.0000000  0.6508444  3
   8814   8815   8834   8824     1  0.0000000  1.2552000  3
   8814   8812   8832   8833     1  0.0000000  1.0460000  1
   8814   8812   8832   8833     1  0.0000000  0.6694400  3
   8815   8816   8820   8830     1  0.0000000  1.0460000  1
   8815   8816   8820   8830     1  0.0000000  0.6694400  3
   8815   8814   8821   8823     1  0.0000000  1.0460000  1
   8815   8814   8821   8823     1  0.0000000  0.6694400  3
   8815   8814   8812   8831     1  0.0000000  0.6508444  3
   8816   8815   8834   8824     1  0.0000000  1.2552000  3
   8816   8815   8814   8818     1  0.0000000  0.6508444  3
   8817   8815   8816   8820     1  0.0000000  1.0460000  1
   8817   8815   8816   8820     1  0.0000000  0.0000000  3
   8817   8815   8816   8829     1  0.0000000  1.0460000  1
   8817   8815   8816   8829     1  0.0000000  0.0000000  3
   8817   8815   8816   8819     1  0.0000000  0.6508444  3
   8817   8815   8834   8824     1  0.0000000  1.2552000  3
   8817   8815   8814   8821     1  0.0000000  1.0460000  1
   8817   8815   8814   8821     1  0.0000000  0.0000000  3
   8817   8815   8814   8818     1  0.0000000  0.6508444  3
   8818   8814   8815   8834     1  0.0000000  0.6508444  3
   8818   8814   8821   8823     1  0.0000000  0.6973333  3
   8818   8814   8812   8832     1  0.0000000  1.0460000  1
   8818   8814   8812   8832     1  0.0000000  0.0000000  3
   8818   8814   8812   8831     1  0.0000000  0.6508444  3
   8819   8816   8820   8830     1  0.0000000  0.6973333  3
   8819   8816   8815   8834     1  0.0000000  0.6508444  3
   8821   8814   8812   8831     1  0.0000000  1.0460000  1
   8821   8814   8812   8831     1  0.0000000  0.0000000  3
   8822   8811   8812   8831     1  0.0000000  0.6508444  3
   8825   8822   8827   8828     1  0.0000000  0.6973333  3
   8825   8822   8811   8829     1  0.0000000  1.0460000  1
   8825   8822   8811   8829     1  0.0000000  0.0000000  3
   8826   8822   8827   8828     1  0.0000000  0.6973333  3
   8826   8822   8811   8829     1  0.0000000  1.0460000  1
   8826   8822   8811   8829     1  0.0000000  0.0000000  3
   8829   8816   8820   8830     1  0.0000000  0.6973333  3
   8829   8811   8812   8831     1  0.0000000  1.0460000  1
   8829   8811   8812   8831     1  0.0000000  0.0000000  3
   8831   8812   8832   8833     1  0.0000000  0.6973333  3
   8835   8837   8839   8841     1  0.0000000  0.6508444  3
   8835   8837   8839   8842     1  0.0000000  0.6508444  3
   8836   8835   8837   8839     1  0.0000000  0.0000000  2
   8836   8835   8837   8838     1  0.0000000  0.0000000  2
   8836   8835   8837   8840     1  0.0000000  0.0000000  2
   8838   8837   8839   8843     1  0.0000000  0.6508444  3
   8838   8837   8839   8841     1  0.0000000  0.6508444  3
   8838   8837   8839   8842     1  0.0000000  0.6508444  3
   8839   8843   8844   8853     1  0.0000000  1.2552000  3
   8839   8843   8844   8854     1  0.0000000  1.2552000  3
   8839   8843   8845   8846     1  0.0000000  1.2552000  3
   8839   8843   8845   8848     1  0.0000000  1.2552000  3
   8840   8837   8839   8843     1  0.0000000  0.6508444  3
   8840   8837   8839   8841     1  0.0000000  0.6508444  3
   8840   8837   8839   8842     1  0.0000000  0.6508444  3
   8841   8839   8843   8844     1  0.0000000  1.2552000  3
   8841   8839   8843   8845     1  0.0000000  1.2552000  3
   8842   8839   8843   8844     1  0.0000000  1.2552000  3
   8842   8839   8843   8845     1  0.0000000  1.2552000  3
   8843   8844   8855   8856     1  0.0000000  0.6508444  3
   8843   8844   8855   8857     1  0.0000000  0.6508444  3
   8843   8845   8847   8849     1  0.0000000  0.6508444  3
   8843   8845   8847   8850     1  0.0000000  0.6508444  3
   8844   8843   8845   8846     1  0.0000000  1.2552000  3
   8844   8843   8845   8848     1  0.0000000  1.2552000  3
   8845   8843   8844   8853     1  0.0000000  1.2552000  3
   8845   8843   8844   8854     1  0.0000000  1.2552000  3
   8846   8845   8847   8851     1  0.0000000  0.6508444  3
   8846   8845   8847   8849     1  0.0000000  0.6508444  3
   8846   8845   8847   8850     1  0.0000000  0.6508444  3
   8847   8851   8883   8873     1  180.0000771  6.0668000  2
   8847   8851   8883   8873     1  180.0000771  1.4644000  4
   8848   8845   8847   8851     1  0.0000000  0.6508444  3
   8848   8845   8847   8849     1  0.0000000  0.6508444  3
   8848   8845   8847   8850     1  0.0000000  0.6508444  3
   8849   8847   8851   8852     1  0.0000000  3.3472000  1
   8849   8847   8851   8852     1  0.0000000  0.0000000  2
   8849   8847   8851   8852     1  180.0000771  0.3347200  3
   8849   8847   8851   8883     1  180.0000771  0.0000000  2
   8850   8847   8851   8852     1  0.0000000  3.3472000  1
   8850   8847   8851   8852     1  0.0000000  0.0000000  2
   8850   8847   8851   8852     1  180.0000771  0.3347200  3
   8850   8847   8851   8883     1  180.0000771  0.0000000  2
   8851   8883   8864   8866     1  0.0000000  1.2552000  3
   8852   8851   8883   8873     1  180.0000771  6.0668000  2
   8852   8851   8883   8873     1  180.0000771  1.4644000  4
   8853   8844   8855   8858     1  0.0000000  0.6508444  3
   8853   8844   8855   8856     1  0.0000000  0.6508444  3
   8853   8844   8855   8857     1  0.0000000  0.6508444  3
   8854   8844   8855   8858     1  0.0000000  0.6508444  3
   8854   8844   8855   8856     1  0.0000000  0.6508444  3
   8854   8844   8855   8857     1  0.0000000  0.6508444  3
   8855   8858   8907   8897     1  180.0000771  6.0668000  2
   8855   8858   8907   8897     1  180.0000771  1.4644000  4
   8856   8855   8858   8859     1  0.0000000  3.3472000  1
   8856   8855   8858   8859     1  0.0000000  0.0000000  2
   8856   8855   8858   8859     1  180.0000771  0.3347200  3
   8856   8855   8858   8907     1  180.0000771  0.0000000  2
   8857   8855   8858   8859     1  0.0000000  3.3472000  1
   8857   8855   8858   8859     1  0.0000000  0.0000000  2
   8857   8855   8858   8859     1  180.0000771  0.3347200  3
   8857   8855   8858   8907     1  180.0000771  0.0000000  2
   8858   8907   8888   8890     1  0.0000000  1.2552000  3
   8859   8858   8907   8897     1  180.0000771  6.0668000  2
   8859   8858   8907   8897     1  180.0000771  1.4644000  4
   8860   8861   8863   8867     1  0.0000000  0.6508444  3
   8860   8861   8881   8882     1  0.0000000  1.0460000  1
   8860   8861   8881   8882     1  0.0000000  0.6694400  3
   8860   8871   8876   8877     1  0.0000000  1.0460000  1
   8860   8871   8876   8877     1  0.0000000  0.6694400  3
   8860   8878   8865   8868     1  0.0000000  1.6038667  3
   8861   8860   8871   8874     1  0.0000000  0.6508444  3
   8861   8860   8871   8875     1  0.0000000  0.6508444  3
   8861   8863   8864   8866     1  0.0000000  0.6508444  3
   8861   8863   8870   8872     1  0.0000000  1.0460000  1
   8861   8863   8870   8872     1  0.0000000  0.6694400  3
   8862   8860   8861   8863     1  0.0000000  0.6508444  3
   8862   8860   8861   8881     1  0.0000000  1.0460000  1
   8862   8860   8861   8881     1  0.0000000  0.0000000  3
   8862   8860   8861   8880     1  0.0000000  0.6508444  3
   8862   8860   8871   8876     1  0.0000000  1.0460000  1
   8862   8860   8871   8876     1  0.0000000  0.0000000  3
   8862   8860   8871   8874     1  0.0000000  0.6508444  3
   8862   8860   8871   8875     1  0.0000000  0.6508444  3
   8862   8860   8878   8865     1  0.0000000  1.6038667  3
   8863   8861   8881   8882     1  0.0000000  1.0460000  1
   8863   8861   8881   8882     1  0.0000000  0.6694400  3
   8863   8864   8865   8868     1  0.0000000  0.6508444  3
   8863   8864   8883   8873     1  0.0000000  1.2552000  3
   8864   8863   8861   8880     1  0.0000000  0.6508444  3
   8864   8863   8870   8872     1  0.0000000  1.0460000  1
   8864   8863   8870   8872     1  0.0000000  0.6694400  3
   8864   8865   8869   8879     1  0.0000000  1.0460000  1
   8864   8865   8869   8879     1  0.0000000  0.6694400  3
   8865   8864   8863   8867     1  0.0000000  0.6508444  3
   8865   8864   8883   8873     1  0.0000000  1.2552000  3
   8866   8864   8863   8870     1  0.0000000  1.0460000  1
   8866   8864   8863   8870     1  0.0000000  0.0000000  3
   8866   8864   8863   8867     1  0.0000000  0.6508444  3
   8866   8864   8865   8869     1  0.0000000  1.0460000  1
   8866   8864   8865   8869     1  0.0000000  0.0000000  3
   8866   8864   8865   8878     1  0.0000000  1.0460000  1
   8866   8864   8865   8878     1  0.0000000  0.0000000  3
   8866   8864   8865   8868     1  0.0000000  0.6508444  3
   8866   8864   8883   8873     1  0.0000000  1.2552000  3
   8867   8863   8861   8881     1  0.0000000  1.0460000  1
   8867   8863   8861   8881     1  0.0000000  0.0000000  3
   8867   8863   8861   8880     1  0.0000000  0.6508444  3
   8867   8863   8864   8883     1  0.0000000  0.6508444  3
   8867   8863   8870   8872     1  0.0000000  0.6973333  3
   8868   8865   8864   8883     1  0.0000000  0.6508444  3
   8868   8865   8869   8879     1  0.0000000  0.6973333  3
   8870   8863   8861   8880     1  0.0000000  1.0460000  1
   8870   8863   8861   8880     1  0.0000000  0.0000000  3
   8871   8860   8861   8880     1  0.0000000  0.6508444  3
   8874   8871   8860   8878     1  0.0000000  1.0460000  1
   8874   8871   8860   8878     1  0.0000000  0.0000000  3
   8874   8871   8876   8877     1  0.0000000  0.6973333  3
   8875   8871   8860   8878     1  0.0000000  1.0460000  1
   8875   8871   8860   8878     1  0.0000000  0.0000000  3
   8875   8871   8876   8877     1  0.0000000  0.6973333  3
   8878   8860   8861   8880     1  0.0000000  1.0460000  1
   8878   8860   8861   8880     1  0.0000000  0.0000000  3
   8878   8865   8869   8879     1  0.0000000  0.6973333  3
   8880   8861   8881   8882     1  0.0000000  0.6973333  3
   8884   8885   8887   8891     1  0.0000000  0.6508444  3
   8884   8885   8905   8906     1  0.0000000  1.0460000  1
   8884   8885   8905   8906     1  0.0000000  0.6694400  3
   8884   8895   8900   8901     1  0.0000000  1.0460000  1
   8884   8895   8900   8901     1  0.0000000  0.6694400  3
   8884   8902   8889   8892     1  0.0000000  1.6038667  3
   8885   8884   8895   8898     1  0.0000000  0.6508444  3
   8885   8884   8895   8899     1  0.0000000  0.6508444  3
   8885   8887   8888   8890     1  0.0000000  0.6508444  3
   8885   8887   8894   8896     1  0.0000000  1.0460000  1
   8885   8887   8894   8896     1  0.0000000  0.6694400  3
   8886   8884   8885   8887     1  0.0000000  0.6508444  3
   8886   8884   8885   8905     1  0.0000000  1.0460000  1
   8886   8884   8885   8905     1  0.0000000  0.0000000  3
   8886   8884   8885   8904     1  0.0000000  0.6508444  3
   8886   8884   8895   8900     1  0.0000000  1.0460000  1
   8886   8884   8895   8900     1  0.0000000  0.0000000  3
   8886   8884   8895   8898     1  0.0000000  0.6508444  3
   8886   8884   8895   8899     1  0.0000000  0.6508444  3
   8886   8884   8902   8889     1  0.0000000  1.6038667  3
   8887   8885   8905   8906     1  0.0000000  1.0460000  1
   8887   8885   8905   8906     1  0.0000000  0.6694400  3
   8887   8888   8889   8892     1  0.0000000  0.6508444  3
   8887   8888   8907   8897     1  0.0000000  1.2552000  3
   8888   8887   8885   8904     1  0.0000000  0.6508444  3
   8888   8887   8894   8896     1  0.0000000  1.0460000  1
   8888   8887   8894   8896     1  0.0000000  0.6694400  3
   8888   8889   8893   8903     1  0.0000000  1.0460000  1
   8888   8889   8893   8903     1  0.0000000  0.6694400  3
   8889   8888   8887   8891     1  0.0000000  0.6508444  3
   8889   8888   8907   8897     1  0.0000000  1.2552000  3
   8890   8888   8887   8894     1  0.0000000  1.0460000  1
   8890   8888   8887   8894     1  0.0000000  0.0000000  3
   8890   8888   8887   8891     1  0.0000000  0.6508444  3
   8890   8888   8889   8893     1  0.0000000  1.0460000  1
   8890   8888   8889   8893     1  0.0000000  0.0000000  3
   8890   8888   8889   8902     1  0.0000000  1.0460000  1
   8890   8888   8889   8902     1  0.0000000  0.0000000  3
   8890   8888   8889   8892     1  0.0000000  0.6508444  3
   8890   8888   8907   8897     1  0.0000000  1.2552000  3
   8891   8887   8885   8905     1  0.0000000  1.0460000  1
   8891   8887   8885   8905     1  0.0000000  0.0000000  3
   8891   8887   8885   8904     1  0.0000000  0.6508444  3
   8891   8887   8888   8907     1  0.0000000  0.6508444  3
   8891   8887   8894   8896     1  0.0000000  0.6973333  3
   8892   8889   8888   8907     1  0.0000000  0.6508444  3
   8892   8889   8893   8903     1  0.0000000  0.6973333  3
   8894   8887   8885   8904     1  0.0000000  1.0460000  1
   8894   8887   8885   8904     1  0.0000000  0.0000000  3
   8895   8884   8885   8904     1  0.0000000  0.6508444  3
   8898   8895   8884   8902     1  0.0000000  1.0460000  1
   8898   8895   8884   8902     1  0.0000000  0.0000000  3
   8898   8895   8900   8901     1  0.0000000  0.6973333  3
   8899   8895   8884   8902     1  0.0000000  1.0460000  1
   8899   8895   8884   8902     1  0.0000000  0.0000000  3
   8899   8895   8900   8901     1  0.0000000  0.6973333  3
   8902   8884   8885   8904     1  0.0000000  1.0460000  1
   8902   8884   8885   8904     1  0.0000000  0.0000000  3
   8902   8889   8893   8903     1  0.0000000  0.6973333  3
   8904   8885   8905   8906     1  0.0000000  0.6973333  3
   8908   8910   8912   8914     1  0.0000000  0.6508444  3
   8908   8910   8912   8915     1  0.0000000  0.6508444  3
   8909   8908   8910   8912     1  0.0000000  0.0000000  2
   8909   8908   8910   8911     1  0.0000000  0.0000000  2
   8909   8908   8910   8913     1  0.0000000  0.0000000  2
   8911   8910   8912   8916     1  0.0000000  0.6508444  3
   8911   8910   8912   8914     1  0.0000000  0.6508444  3
   8911   8910   8912   8915     1  0.0000000  0.6508444  3
   8912   8916   8917   8926     1  0.0000000  1.2552000  3
   8912   8916   8917   8927     1  0.0000000  1.2552000  3
   8912   8916   8918   8919     1  0.0000000  1.2552000  3
   8912   8916   8918   8921     1  0.0000000  1.2552000  3
   8913   8910   8912   8916     1  0.0000000  0.6508444  3
   8913   8910   8912   8914     1  0.0000000  0.6508444  3
   8913   8910   8912   8915     1  0.0000000  0.6508444  3
   8914   8912   8916   8917     1  0.0000000  1.2552000  3
   8914   8912   8916   8918     1  0.0000000  1.2552000  3
   8915   8912   8916   8917     1  0.0000000  1.2552000  3
   8915   8912   8916   8918     1  0.0000000  1.2552000  3
   8916   8917   8928   8929     1  0.0000000  0.6508444  3
   8916   8917   8928   8930     1  0.0000000  0.6508444  3
   8916   8918   8920   8922     1  0.0000000  0.6508444  3
   8916   8918   8920   8923     1  0.0000000  0.6508444  3
   8917   8916   8918   8919     1  0.0000000  1.2552000  3
   8917   8916   8918   8921     1  0.0000000  1.2552000  3
   8918   8916   8917   8926     1  0.0000000  1.2552000  3
   8918   8916   8917   8927     1  0.0000000  1.2552000  3
   8919   8918   8920   8924     1  0.0000000  0.6508444  3
   8919   8918   8920   8922     1  0.0000000  0.6508444  3
   8919   8918   8920   8923     1  0.0000000  0.6508444  3
   8920   8924   8956   8946     1  180.0000771  6.0668000  2
   8920   8924   8956   8946     1  180.0000771  1.4644000  4
   8921   8918   8920   8924     1  0.0000000  0.6508444  3
   8921   8918   8920   8922     1  0.0000000  0.6508444  3
   8921   8918   8920   8923     1  0.0000000  0.6508444  3
   8922   8920   8924   8925     1  0.0000000  3.3472000  1
   8922   8920   8924   8925     1  0.0000000  0.0000000  2
   8922   8920   8924   8925     1  180.0000771  0.3347200  3
   8922   8920   8924   8956     1  180.0000771  0.0000000  2
   8923   8920   8924   8925     1  0.0000000  3.3472000  1
   8923   8920   8924   8925     1  0.0000000  0.0000000  2
   8923   8920   8924   8925     1  180.0000771  0.3347200  3
   8923   8920   8924   8956     1  180.0000771  0.0000000  2
   8924   8956   8937   8939     1  0.0000000  1.2552000  3
   8925   8924   8956   8946     1  180.0000771  6.0668000  2
   8925   8924   8956   8946     1  180.0000771  1.4644000  4
   8926   8917   8928   8931     1  0.0000000  0.6508444  3
   8926   8917   8928   8929     1  0.0000000  0.6508444  3
   8926   8917   8928   8930     1  0.0000000  0.6508444  3
   8927   8917   8928   8931     1  0.0000000  0.6508444  3
   8927   8917   8928   8929     1  0.0000000  0.6508444  3
   8927   8917   8928   8930     1  0.0000000  0.6508444  3
   8928   8931   8980   8970     1  180.0000771  6.0668000  2
   8928   8931   8980   8970     1  180.0000771  1.4644000  4
   8929   8928   8931   8932     1  0.0000000  3.3472000  1
   8929   8928   8931   8932     1  0.0000000  0.0000000  2
   8929   8928   8931   8932     1  180.0000771  0.3347200  3
   8929   8928   8931   8980     1  180.0000771  0.0000000  2
   8930   8928   8931   8932     1  0.0000000  3.3472000  1
   8930   8928   8931   8932     1  0.0000000  0.0000000  2
   8930   8928   8931   8932     1  180.0000771  0.3347200  3
   8930   8928   8931   8980     1  180.0000771  0.0000000  2
   8931   8980   8961   8963     1  0.0000000  1.2552000  3
   8932   8931   8980   8970     1  180.0000771  6.0668000  2
   8932   8931   8980   8970     1  180.0000771  1.4644000  4
   8933   8934   8936   8940     1  0.0000000  0.6508444  3
   8933   8934   8954   8955     1  0.0000000  1.0460000  1
   8933   8934   8954   8955     1  0.0000000  0.6694400  3
   8933   8944   8949   8950     1  0.0000000  1.0460000  1
   8933   8944   8949   8950     1  0.0000000  0.6694400  3
   8933   8951   8938   8941     1  0.0000000  1.6038667  3
   8934   8936   8937   8939     1  0.0000000  0.6508444  3
   8934   8936   8943   8945     1  0.0000000  1.0460000  1
   8934   8936   8943   8945     1  0.0000000  0.6694400  3
   8934   8933   8944   8947     1  0.0000000  0.6508444  3
   8934   8933   8944   8948     1  0.0000000  0.6508444  3
   8935   8933   8934   8936     1  0.0000000  0.6508444  3
   8935   8933   8934   8954     1  0.0000000  1.0460000  1
   8935   8933   8934   8954     1  0.0000000  0.0000000  3
   8935   8933   8934   8953     1  0.0000000  0.6508444  3
   8935   8933   8944   8949     1  0.0000000  1.0460000  1
   8935   8933   8944   8949     1  0.0000000  0.0000000  3
   8935   8933   8944   8947     1  0.0000000  0.6508444  3
   8935   8933   8944   8948     1  0.0000000  0.6508444  3
   8935   8933   8951   8938     1  0.0000000  1.6038667  3
   8936   8937   8938   8941     1  0.0000000  0.6508444  3
   8936   8937   8956   8946     1  0.0000000  1.2552000  3
   8936   8934   8954   8955     1  0.0000000  1.0460000  1
   8936   8934   8954   8955     1  0.0000000  0.6694400  3
   8937   8938   8942   8952     1  0.0000000  1.0460000  1
   8937   8938   8942   8952     1  0.0000000  0.6694400  3
   8937   8936   8943   8945     1  0.0000000  1.0460000  1
   8937   8936   8943   8945     1  0.0000000  0.6694400  3
   8937   8936   8934   8953     1  0.0000000  0.6508444  3
   8938   8937   8956   8946     1  0.0000000  1.2552000  3
   8938   8937   8936   8940     1  0.0000000  0.6508444  3
   8939   8937   8938   8942     1  0.0000000  1.0460000  1
   8939   8937   8938   8942     1  0.0000000  0.0000000  3
   8939   8937   8938   8951     1  0.0000000  1.0460000  1
   8939   8937   8938   8951     1  0.0000000  0.0000000  3
   8939   8937   8938   8941     1  0.0000000  0.6508444  3
   8939   8937   8956   8946     1  0.0000000  1.2552000  3
   8939   8937   8936   8943     1  0.0000000  1.0460000  1
   8939   8937   8936   8943     1  0.0000000  0.0000000  3
   8939   8937   8936   8940     1  0.0000000  0.6508444  3
   8940   8936   8937   8956     1  0.0000000  0.6508444  3
   8940   8936   8943   8945     1  0.0000000  0.6973333  3
   8940   8936   8934   8954     1  0.0000000  1.0460000  1
   8940   8936   8934   8954     1  0.0000000  0.0000000  3
   8940   8936   8934   8953     1  0.0000000  0.6508444  3
   8941   8938   8942   8952     1  0.0000000  0.6973333  3
   8941   8938   8937   8956     1  0.0000000  0.6508444  3
   8943   8936   8934   8953     1  0.0000000  1.0460000  1
   8943   8936   8934   8953     1  0.0000000  0.0000000  3
   8944   8933   8934   8953     1  0.0000000  0.6508444  3
   8947   8944   8949   8950     1  0.0000000  0.6973333  3
   8947   8944   8933   8951     1  0.0000000  1.0460000  1
   8947   8944   8933   8951     1  0.0000000  0.0000000  3
   8948   8944   8949   8950     1  0.0000000  0.6973333  3
   8948   8944   8933   8951     1  0.0000000  1.0460000  1
   8948   8944   8933   8951     1  0.0000000  0.0000000  3
   8951   8938   8942   8952     1  0.0000000  0.6973333  3
   8951   8933   8934   8953     1  0.0000000  1.0460000  1
   8951   8933   8934   8953     1  0.0000000  0.0000000  3
   8953   8934   8954   8955     1  0.0000000  0.6973333  3
   8957   8958   8960   8964     1  0.0000000  0.6508444  3
   8957   8958   8978   8979     1  0.0000000  1.0460000  1
   8957   8958   8978   8979     1  0.0000000  0.6694400  3
   8957   8968   8973   8974     1  0.0000000  1.0460000  1
   8957   8968   8973   8974     1  0.0000000  0.6694400  3
   8957   8975   8962   8965     1  0.0000000  1.6038667  3
   8958   8960   8961   8963     1  0.0000000  0.6508444  3
   8958   8960   8967   8969     1  0.0000000  1.0460000  1
   8958   8960   8967   8969     1  0.0000000  0.6694400  3
   8958   8957   8968   8971     1  0.0000000  0.6508444  3
   8958   8957   8968   8972     1  0.0000000  0.6508444  3
   8959   8957   8958   8960     1  0.0000000  0.6508444  3
   8959   8957   8958   8978     1  0.0000000  1.0460000  1
   8959   8957   8958   8978     1  0.0000000  0.0000000  3
   8959   8957   8958   8977     1  0.0000000  0.6508444  3
   8959   8957   8968   8973     1  0.0000000  1.0460000  1
   8959   8957   8968   8973     1  0.0000000  0.0000000  3
   8959   8957   8968   8971     1  0.0000000  0.6508444  3
   8959   8957   8968   8972     1  0.0000000  0.6508444  3
   8959   8957   8975   8962     1  0.0000000  1.6038667  3
   8960   8961   8962   8965     1  0.0000000  0.6508444  3
   8960   8961   8980   8970     1  0.0000000  1.2552000  3
   8960   8958   8978   8979     1  0.0000000  1.0460000  1
   8960   8958   8978   8979     1  0.0000000  0.6694400  3
   8961   8962   8966   8976     1  0.0000000  1.0460000  1
   8961   8962   8966   8976     1  0.0000000  0.6694400  3
   8961   8960   8967   8969     1  0.0000000  1.0460000  1
   8961   8960   8967   8969     1  0.0000000  0.6694400  3
   8961   8960   8958   8977     1  0.0000000  0.6508444  3
   8962   8961   8980   8970     1  0.0000000  1.2552000  3
   8962   8961   8960   8964     1  0.0000000  0.6508444  3
   8963   8961   8962   8966     1  0.0000000  1.0460000  1
   8963   8961   8962   8966     1  0.0000000  0.0000000  3
   8963   8961   8962   8975     1  0.0000000  1.0460000  1
   8963   8961   8962   8975     1  0.0000000  0.0000000  3
   8963   8961   8962   8965     1  0.0000000  0.6508444  3
   8963   8961   8980   8970     1  0.0000000  1.2552000  3
   8963   8961   8960   8967     1  0.0000000  1.0460000  1
   8963   8961   8960   8967     1  0.0000000  0.0000000  3
   8963   8961   8960   8964     1  0.0000000  0.6508444  3
   8964   8960   8961   8980     1  0.0000000  0.6508444  3
   8964   8960   8967   8969     1  0.0000000  0.6973333  3
   8964   8960   8958   8978     1  0.0000000  1.0460000  1
   8964   8960   8958   8978     1  0.0000000  0.0000000  3
   8964   8960   8958   8977     1  0.0000000  0.6508444  3
   8965   8962   8966   8976     1  0.0000000  0.6973333  3
   8965   8962   8961   8980     1  0.0000000  0.6508444  3
   8967   8960   8958   8977     1  0.0000000  1.0460000  1
   8967   8960   8958   8977     1  0.0000000  0.0000000  3
   8968   8957   8958   8977     1  0.0000000  0.6508444  3
   8971   8968   8973   8974     1  0.0000000  0.6973333  3
   8971   8968   8957   8975     1  0.0000000  1.0460000  1
   8971   8968   8957   8975     1  0.0000000  0.0000000  3
   8972   8968   8973   8974     1  0.0000000  0.6973333  3
   8972   8968   8957   8975     1  0.0000000  1.0460000  1
   8972   8968   8957   8975     1  0.0000000  0.0000000  3
   8975   8962   8966   8976     1  0.0000000  0.6973333  3
   8975   8957   8958   8977     1  0.0000000  1.0460000  1
   8975   8957   8958   8977     1  0.0000000  0.0000000  3
   8977   8958   8978   8979     1  0.0000000  0.6973333  3
   8981   8983   8985   8987     1  0.0000000  0.6508444  3
   8981   8983   8985   8988     1  0.0000000  0.6508444  3
   8982   8981   8983   8985     1  0.0000000  0.0000000  2
   8982   8981   8983   8984     1  0.0000000  0.0000000  2
   8982   8981   8983   8986     1  0.0000000  0.0000000  2
   8984   8983   8985   8989     1  0.0000000  0.6508444  3
   8984   8983   8985   8987     1  0.0000000  0.6508444  3
   8984   8983   8985   8988     1  0.0000000  0.6508444  3
   8985   8989   8990   8999     1  0.0000000  1.2552000  3
   8985   8989   8990   9000     1  0.0000000  1.2552000  3
   8985   8989   8991   8992     1  0.0000000  1.2552000  3
   8985   8989   8991   8994     1  0.0000000  1.2552000  3
   8986   8983   8985   8989     1  0.0000000  0.6508444  3
   8986   8983   8985   8987     1  0.0000000  0.6508444  3
   8986   8983   8985   8988     1  0.0000000  0.6508444  3
   8987   8985   8989   8990     1  0.0000000  1.2552000  3
   8987   8985   8989   8991     1  0.0000000  1.2552000  3
   8988   8985   8989   8990     1  0.0000000  1.2552000  3
   8988   8985   8989   8991     1  0.0000000  1.2552000  3
   8989   8990   9001   9002     1  0.0000000  0.6508444  3
   8989   8990   9001   9003     1  0.0000000  0.6508444  3
   8989   8991   8993   8995     1  0.0000000  0.6508444  3
   8989   8991   8993   8996     1  0.0000000  0.6508444  3
   8990   8989   8991   8992     1  0.0000000  1.2552000  3
   8990   8989   8991   8994     1  0.0000000  1.2552000  3
   8991   8989   8990   8999     1  0.0000000  1.2552000  3
   8991   8989   8990   9000     1  0.0000000  1.2552000  3
   8992   8991   8993   8997     1  0.0000000  0.6508444  3
   8992   8991   8993   8995     1  0.0000000  0.6508444  3
   8992   8991   8993   8996     1  0.0000000  0.6508444  3
   8993   8997   9029   9019     1  180.0000771  6.0668000  2
   8993   8997   9029   9019     1  180.0000771  1.4644000  4
   8994   8991   8993   8997     1  0.0000000  0.6508444  3
   8994   8991   8993   8995     1  0.0000000  0.6508444  3
   8994   8991   8993   8996     1  0.0000000  0.6508444  3
   8995   8993   8997   8998     1  0.0000000  3.3472000  1
   8995   8993   8997   8998     1  0.0000000  0.0000000  2
   8995   8993   8997   8998     1  180.0000771  0.3347200  3
   8995   8993   8997   9029     1  180.0000771  0.0000000  2
   8996   8993   8997   8998     1  0.0000000  3.3472000  1
   8996   8993   8997   8998     1  0.0000000  0.0000000  2
   8996   8993   8997   8998     1  180.0000771  0.3347200  3
   8996   8993   8997   9029     1  180.0000771  0.0000000  2
   8997   9029   9010   9012     1  0.0000000  1.2552000  3
   8998   8997   9029   9019     1  180.0000771  6.0668000  2
   8998   8997   9029   9019     1  180.0000771  1.4644000  4
   8999   8990   9001   9004     1  0.0000000  0.6508444  3
   8999   8990   9001   9002     1  0.0000000  0.6508444  3
   8999   8990   9001   9003     1  0.0000000  0.6508444  3
   9000   8990   9001   9004     1  0.0000000  0.6508444  3
   9000   8990   9001   9002     1  0.0000000  0.6508444  3
   9000   8990   9001   9003     1  0.0000000  0.6508444  3
   9001   9004   9053   9043     1  180.0000771  6.0668000  2
   9001   9004   9053   9043     1  180.0000771  1.4644000  4
   9002   9001   9004   9005     1  0.0000000  3.3472000  1
   9002   9001   9004   9005     1  0.0000000  0.0000000  2
   9002   9001   9004   9005     1  180.0000771  0.3347200  3
   9002   9001   9004   9053     1  180.0000771  0.0000000  2
   9003   9001   9004   9005     1  0.0000000  3.3472000  1
   9003   9001   9004   9005     1  0.0000000  0.0000000  2
   9003   9001   9004   9005     1  180.0000771  0.3347200  3
   9003   9001   9004   9053     1  180.0000771  0.0000000  2
   9004   9053   9034   9036     1  0.0000000  1.2552000  3
   9005   9004   9053   9043     1  180.0000771  6.0668000  2
   9005   9004   9053   9043     1  180.0000771  1.4644000  4
   9006   9007   9009   9013     1  0.0000000  0.6508444  3
   9006   9007   9027   9028     1  0.0000000  1.0460000  1
   9006   9007   9027   9028     1  0.0000000  0.6694400  3
   9006   9017   9022   9023     1  0.0000000  1.0460000  1
   9006   9017   9022   9023     1  0.0000000  0.6694400  3
   9006   9024   9011   9014     1  0.0000000  1.6038667  3
   9007   9006   9017   9020     1  0.0000000  0.6508444  3
   9007   9006   9017   9021     1  0.0000000  0.6508444  3
   9007   9009   9010   9012     1  0.0000000  0.6508444  3
   9007   9009   9016   9018     1  0.0000000  1.0460000  1
   9007   9009   9016   9018     1  0.0000000  0.6694400  3
   9008   9006   9007   9009     1  0.0000000  0.6508444  3
   9008   9006   9007   9027     1  0.0000000  1.0460000  1
   9008   9006   9007   9027     1  0.0000000  0.0000000  3
   9008   9006   9007   9026     1  0.0000000  0.6508444  3
   9008   9006   9017   9022     1  0.0000000  1.0460000  1
   9008   9006   9017   9022     1  0.0000000  0.0000000  3
   9008   9006   9017   9020     1  0.0000000  0.6508444  3
   9008   9006   9017   9021     1  0.0000000  0.6508444  3
   9008   9006   9024   9011     1  0.0000000  1.6038667  3
   9009   9007   9027   9028     1  0.0000000  1.0460000  1
   9009   9007   9027   9028     1  0.0000000  0.6694400  3
   9009   9010   9011   9014     1  0.0000000  0.6508444  3
   9009   9010   9029   9019     1  0.0000000  1.2552000  3
   9010   9009   9007   9026     1  0.0000000  0.6508444  3
   9010   9009   9016   9018     1  0.0000000  1.0460000  1
   9010   9009   9016   9018     1  0.0000000  0.6694400  3
   9010   9011   9015   9025     1  0.0000000  1.0460000  1
   9010   9011   9015   9025     1  0.0000000  0.6694400  3
   9011   9010   9009   9013     1  0.0000000  0.6508444  3
   9011   9010   9029   9019     1  0.0000000  1.2552000  3
   9012   9010   9009   9016     1  0.0000000  1.0460000  1
   9012   9010   9009   9016     1  0.0000000  0.0000000  3
   9012   9010   9009   9013     1  0.0000000  0.6508444  3
   9012   9010   9011   9015     1  0.0000000  1.0460000  1
   9012   9010   9011   9015     1  0.0000000  0.0000000  3
   9012   9010   9011   9024     1  0.0000000  1.0460000  1
   9012   9010   9011   9024     1  0.0000000  0.0000000  3
   9012   9010   9011   9014     1  0.0000000  0.6508444  3
   9012   9010   9029   9019     1  0.0000000  1.2552000  3
   9013   9009   9007   9027     1  0.0000000  1.0460000  1
   9013   9009   9007   9027     1  0.0000000  0.0000000  3
   9013   9009   9007   9026     1  0.0000000  0.6508444  3
   9013   9009   9010   9029     1  0.0000000  0.6508444  3
   9013   9009   9016   9018     1  0.0000000  0.6973333  3
   9014   9011   9010   9029     1  0.0000000  0.6508444  3
   9014   9011   9015   9025     1  0.0000000  0.6973333  3
   9016   9009   9007   9026     1  0.0000000  1.0460000  1
   9016   9009   9007   9026     1  0.0000000  0.0000000  3
   9017   9006   9007   9026     1  0.0000000  0.6508444  3
   9020   9017   9006   9024     1  0.0000000  1.0460000  1
   9020   9017   9006   9024     1  0.0000000  0.0000000  3
   9020   9017   9022   9023     1  0.0000000  0.6973333  3
   9021   9017   9006   9024     1  0.0000000  1.0460000  1
   9021   9017   9006   9024     1  0.0000000  0.0000000  3
   9021   9017   9022   9023     1  0.0000000  0.6973333  3
   9024   9006   9007   9026     1  0.0000000  1.0460000  1
   9024   9006   9007   9026     1  0.0000000  0.0000000  3
   9024   9011   9015   9025     1  0.0000000  0.6973333  3
   9026   9007   9027   9028     1  0.0000000  0.6973333  3
   9030   9031   9033   9037     1  0.0000000  0.6508444  3
   9030   9031   9051   9052     1  0.0000000  1.0460000  1
   9030   9031   9051   9052     1  0.0000000  0.6694400  3
   9030   9041   9046   9047     1  0.0000000  1.0460000  1
   9030   9041   9046   9047     1  0.0000000  0.6694400  3
   9030   9048   9035   9038     1  0.0000000  1.6038667  3
   9031   9030   9041   9044     1  0.0000000  0.6508444  3
   9031   9030   9041   9045     1  0.0000000  0.6508444  3
   9031   9033   9034   9036     1  0.0000000  0.6508444  3
   9031   9033   9040   9042     1  0.0000000  1.0460000  1
   9031   9033   9040   9042     1  0.0000000  0.6694400  3
   9032   9030   9031   9033     1  0.0000000  0.6508444  3
   9032   9030   9031   9051     1  0.0000000  1.0460000  1
   9032   9030   9031   9051     1  0.0000000  0.0000000  3
   9032   9030   9031   9050     1  0.0000000  0.6508444  3
   9032   9030   9041   9046     1  0.0000000  1.0460000  1
   9032   9030   9041   9046     1  0.0000000  0.0000000  3
   9032   9030   9041   9044     1  0.0000000  0.6508444  3
   9032   9030   9041   9045     1  0.0000000  0.6508444  3
   9032   9030   9048   9035     1  0.0000000  1.6038667  3
   9033   9031   9051   9052     1  0.0000000  1.0460000  1
   9033   9031   9051   9052     1  0.0000000  0.6694400  3
   9033   9034   9035   9038     1  0.0000000  0.6508444  3
   9033   9034   9053   9043     1  0.0000000  1.2552000  3
   9034   9033   9031   9050     1  0.0000000  0.6508444  3
   9034   9033   9040   9042     1  0.0000000  1.0460000  1
   9034   9033   9040   9042     1  0.0000000  0.6694400  3
   9034   9035   9039   9049     1  0.0000000  1.0460000  1
   9034   9035   9039   9049     1  0.0000000  0.6694400  3
   9035   9034   9033   9037     1  0.0000000  0.6508444  3
   9035   9034   9053   9043     1  0.0000000  1.2552000  3
   9036   9034   9033   9040     1  0.0000000  1.0460000  1
   9036   9034   9033   9040     1  0.0000000  0.0000000  3
   9036   9034   9033   9037     1  0.0000000  0.6508444  3
   9036   9034   9035   9039     1  0.0000000  1.0460000  1
   9036   9034   9035   9039     1  0.0000000  0.0000000  3
   9036   9034   9035   9048     1  0.0000000  1.0460000  1
   9036   9034   9035   9048     1  0.0000000  0.0000000  3
   9036   9034   9035   9038     1  0.0000000  0.6508444  3
   9036   9034   9053   9043     1  0.0000000  1.2552000  3
   9037   9033   9031   9051     1  0.0000000  1.0460000  1
   9037   9033   9031   9051     1  0.0000000  0.0000000  3
   9037   9033   9031   9050     1  0.0000000  0.6508444  3
   9037   9033   9034   9053     1  0.0000000  0.6508444  3
   9037   9033   9040   9042     1  0.0000000  0.6973333  3
   9038   9035   9034   9053     1  0.0000000  0.6508444  3
   9038   9035   9039   9049     1  0.0000000  0.6973333  3
   9040   9033   9031   9050     1  0.0000000  1.0460000  1
   9040   9033   9031   9050     1  0.0000000  0.0000000  3
   9041   9030   9031   9050     1  0.0000000  0.6508444  3
   9044   9041   9030   9048     1  0.0000000  1.0460000  1
   9044   9041   9030   9048     1  0.0000000  0.0000000  3
   9044   9041   9046   9047     1  0.0000000  0.6973333  3
   9045   9041   9030   9048     1  0.0000000  1.0460000  1
   9045   9041   9030   9048     1  0.0000000  0.0000000  3
   9045   9041   9046   9047     1  0.0000000  0.6973333  3
   9048   9030   9031   9050     1  0.0000000  1.0460000  1
   9048   9030   9031   9050     1  0.0000000  0.0000000  3
   9048   9035   9039   9049     1  0.0000000  0.6973333  3
   9050   9031   9051   9052     1  0.0000000  0.6973333  3
   9054   9056   9058   9060     1  0.0000000  0.6508444  3
   9054   9056   9058   9061     1  0.0000000  0.6508444  3
   9055   9054   9056   9058     1  0.0000000  0.0000000  2
   9055   9054   9056   9057     1  0.0000000  0.0000000  2
   9055   9054   9056   9059     1  0.0000000  0.0000000  2
   9057   9056   9058   9062     1  0.0000000  0.6508444  3
   9057   9056   9058   9060     1  0.0000000  0.6508444  3
   9057   9056   9058   9061     1  0.0000000  0.6508444  3
   9058   9062   9063   9072     1  0.0000000  1.2552000  3
   9058   9062   9063   9073     1  0.0000000  1.2552000  3
   9058   9062   9064   9065     1  0.0000000  1.2552000  3
   9058   9062   9064   9067     1  0.0000000  1.2552000  3
   9059   9056   9058   9062     1  0.0000000  0.6508444  3
   9059   9056   9058   9060     1  0.0000000  0.6508444  3
   9059   9056   9058   9061     1  0.0000000  0.6508444  3
   9060   9058   9062   9063     1  0.0000000  1.2552000  3
   9060   9058   9062   9064     1  0.0000000  1.2552000  3
   9061   9058   9062   9063     1  0.0000000  1.2552000  3
   9061   9058   9062   9064     1  0.0000000  1.2552000  3
   9062   9063   9074   9075     1  0.0000000  0.6508444  3
   9062   9063   9074   9076     1  0.0000000  0.6508444  3
   9062   9064   9066   9068     1  0.0000000  0.6508444  3
   9062   9064   9066   9069     1  0.0000000  0.6508444  3
   9063   9062   9064   9065     1  0.0000000  1.2552000  3
   9063   9062   9064   9067     1  0.0000000  1.2552000  3
   9064   9062   9063   9072     1  0.0000000  1.2552000  3
   9064   9062   9063   9073     1  0.0000000  1.2552000  3
   9065   9064   9066   9070     1  0.0000000  0.6508444  3
   9065   9064   9066   9068     1  0.0000000  0.6508444  3
   9065   9064   9066   9069     1  0.0000000  0.6508444  3
   9066   9070   9102   9092     1  180.0000771  6.0668000  2
   9066   9070   9102   9092     1  180.0000771  1.4644000  4
   9067   9064   9066   9070     1  0.0000000  0.6508444  3
   9067   9064   9066   9068     1  0.0000000  0.6508444  3
   9067   9064   9066   9069     1  0.0000000  0.6508444  3
   9068   9066   9070   9071     1  0.0000000  3.3472000  1
   9068   9066   9070   9071     1  0.0000000  0.0000000  2
   9068   9066   9070   9071     1  180.0000771  0.3347200  3
   9068   9066   9070   9102     1  180.0000771  0.0000000  2
   9069   9066   9070   9071     1  0.0000000  3.3472000  1
   9069   9066   9070   9071     1  0.0000000  0.0000000  2
   9069   9066   9070   9071     1  180.0000771  0.3347200  3
   9069   9066   9070   9102     1  180.0000771  0.0000000  2
   9070   9102   9083   9085     1  0.0000000  1.2552000  3
   9071   9070   9102   9092     1  180.0000771  6.0668000  2
   9071   9070   9102   9092     1  180.0000771  1.4644000  4
   9072   9063   9074   9077     1  0.0000000  0.6508444  3
   9072   9063   9074   9075     1  0.0000000  0.6508444  3
   9072   9063   9074   9076     1  0.0000000  0.6508444  3
   9073   9063   9074   9077     1  0.0000000  0.6508444  3
   9073   9063   9074   9075     1  0.0000000  0.6508444  3
   9073   9063   9074   9076     1  0.0000000  0.6508444  3
   9074   9077   9126   9116     1  180.0000771  6.0668000  2
   9074   9077   9126   9116     1  180.0000771  1.4644000  4
   9075   9074   9077   9078     1  0.0000000  3.3472000  1
   9075   9074   9077   9078     1  0.0000000  0.0000000  2
   9075   9074   9077   9078     1  180.0000771  0.3347200  3
   9075   9074   9077   9126     1  180.0000771  0.0000000  2
   9076   9074   9077   9078     1  0.0000000  3.3472000  1
   9076   9074   9077   9078     1  0.0000000  0.0000000  2
   9076   9074   9077   9078     1  180.0000771  0.3347200  3
   9076   9074   9077   9126     1  180.0000771  0.0000000  2
   9077   9126   9107   9109     1  0.0000000  1.2552000  3
   9078   9077   9126   9116     1  180.0000771  6.0668000  2
   9078   9077   9126   9116     1  180.0000771  1.4644000  4
   9079   9080   9082   9086     1  0.0000000  0.6508444  3
   9079   9080   9100   9101     1  0.0000000  1.0460000  1
   9079   9080   9100   9101     1  0.0000000  0.6694400  3
   9079   9090   9095   9096     1  0.0000000  1.0460000  1
   9079   9090   9095   9096     1  0.0000000  0.6694400  3
   9079   9097   9084   9087     1  0.0000000  1.6038667  3
   9080   9082   9083   9085     1  0.0000000  0.6508444  3
   9080   9082   9089   9091     1  0.0000000  1.0460000  1
   9080   9082   9089   9091     1  0.0000000  0.6694400  3
   9080   9079   9090   9093     1  0.0000000  0.6508444  3
   9080   9079   9090   9094     1  0.0000000  0.6508444  3
   9081   9079   9080   9082     1  0.0000000  0.6508444  3
   9081   9079   9080   9100     1  0.0000000  1.0460000  1
   9081   9079   9080   9100     1  0.0000000  0.0000000  3
   9081   9079   9080   9099     1  0.0000000  0.6508444  3
   9081   9079   9090   9095     1  0.0000000  1.0460000  1
   9081   9079   9090   9095     1  0.0000000  0.0000000  3
   9081   9079   9090   9093     1  0.0000000  0.6508444  3
   9081   9079   9090   9094     1  0.0000000  0.6508444  3
   9081   9079   9097   9084     1  0.0000000  1.6038667  3
   9082   9083   9084   9087     1  0.0000000  0.6508444  3
   9082   9083   9102   9092     1  0.0000000  1.2552000  3
   9082   9080   9100   9101     1  0.0000000  1.0460000  1
   9082   9080   9100   9101     1  0.0000000  0.6694400  3
   9083   9084   9088   9098     1  0.0000000  1.0460000  1
   9083   9084   9088   9098     1  0.0000000  0.6694400  3
   9083   9082   9089   9091     1  0.0000000  1.0460000  1
   9083   9082   9089   9091     1  0.0000000  0.6694400  3
   9083   9082   9080   9099     1  0.0000000  0.6508444  3
   9084   9083   9102   9092     1  0.0000000  1.2552000  3
   9084   9083   9082   9086     1  0.0000000  0.6508444  3
   9085   9083   9084   9088     1  0.0000000  1.0460000  1
   9085   9083   9084   9088     1  0.0000000  0.0000000  3
   9085   9083   9084   9097     1  0.0000000  1.0460000  1
   9085   9083   9084   9097     1  0.0000000  0.0000000  3
   9085   9083   9084   9087     1  0.0000000  0.6508444  3
   9085   9083   9102   9092     1  0.0000000  1.2552000  3
   9085   9083   9082   9089     1  0.0000000  1.0460000  1
   9085   9083   9082   9089     1  0.0000000  0.0000000  3
   9085   9083   9082   9086     1  0.0000000  0.6508444  3
   9086   9082   9083   9102     1  0.0000000  0.6508444  3
   9086   9082   9089   9091     1  0.0000000  0.6973333  3
   9086   9082   9080   9100     1  0.0000000  1.0460000  1
   9086   9082   9080   9100     1  0.0000000  0.0000000  3
   9086   9082   9080   9099     1  0.0000000  0.6508444  3
   9087   9084   9088   9098     1  0.0000000  0.6973333  3
   9087   9084   9083   9102     1  0.0000000  0.6508444  3
   9089   9082   9080   9099     1  0.0000000  1.0460000  1
   9089   9082   9080   9099     1  0.0000000  0.0000000  3
   9090   9079   9080   9099     1  0.0000000  0.6508444  3
   9093   9090   9095   9096     1  0.0000000  0.6973333  3
   9093   9090   9079   9097     1  0.0000000  1.0460000  1
   9093   9090   9079   9097     1  0.0000000  0.0000000  3
   9094   9090   9095   9096     1  0.0000000  0.6973333  3
   9094   9090   9079   9097     1  0.0000000  1.0460000  1
   9094   9090   9079   9097     1  0.0000000  0.0000000  3
   9097   9084   9088   9098     1  0.0000000  0.6973333  3
   9097   9079   9080   9099     1  0.0000000  1.0460000  1
   9097   9079   9080   9099     1  0.0000000  0.0000000  3
   9099   9080   9100   9101     1  0.0000000  0.6973333  3
   9103   9104   9106   9110     1  0.0000000  0.6508444  3
   9103   9104   9124   9125     1  0.0000000  1.0460000  1
   9103   9104   9124   9125     1  0.0000000  0.6694400  3
   9103   9114   9119   9120     1  0.0000000  1.0460000  1
   9103   9114   9119   9120     1  0.0000000  0.6694400  3
   9103   9121   9108   9111     1  0.0000000  1.6038667  3
   9104   9106   9107   9109     1  0.0000000  0.6508444  3
   9104   9106   9113   9115     1  0.0000000  1.0460000  1
   9104   9106   9113   9115     1  0.0000000  0.6694400  3
   9104   9103   9114   9117     1  0.0000000  0.6508444  3
   9104   9103   9114   9118     1  0.0000000  0.6508444  3
   9105   9103   9104   9106     1  0.0000000  0.6508444  3
   9105   9103   9104   9124     1  0.0000000  1.0460000  1
   9105   9103   9104   9124     1  0.0000000  0.0000000  3
   9105   9103   9104   9123     1  0.0000000  0.6508444  3
   9105   9103   9114   9119     1  0.0000000  1.0460000  1
   9105   9103   9114   9119     1  0.0000000  0.0000000  3
   9105   9103   9114   9117     1  0.0000000  0.6508444  3
   9105   9103   9114   9118     1  0.0000000  0.6508444  3
   9105   9103   9121   9108     1  0.0000000  1.6038667  3
   9106   9107   9108   9111     1  0.0000000  0.6508444  3
   9106   9107   9126   9116     1  0.0000000  1.2552000  3
   9106   9104   9124   9125     1  0.0000000  1.0460000  1
   9106   9104   9124   9125     1  0.0000000  0.6694400  3
   9107   9108   9112   9122     1  0.0000000  1.0460000  1
   9107   9108   9112   9122     1  0.0000000  0.6694400  3
   9107   9106   9113   9115     1  0.0000000  1.0460000  1
   9107   9106   9113   9115     1  0.0000000  0.6694400  3
   9107   9106   9104   9123     1  0.0000000  0.6508444  3
   9108   9107   9126   9116     1  0.0000000  1.2552000  3
   9108   9107   9106   9110     1  0.0000000  0.6508444  3
   9109   9107   9108   9112     1  0.0000000  1.0460000  1
   9109   9107   9108   9112     1  0.0000000  0.0000000  3
   9109   9107   9108   9121     1  0.0000000  1.0460000  1
   9109   9107   9108   9121     1  0.0000000  0.0000000  3
   9109   9107   9108   9111     1  0.0000000  0.6508444  3
   9109   9107   9126   9116     1  0.0000000  1.2552000  3
   9109   9107   9106   9113     1  0.0000000  1.0460000  1
   9109   9107   9106   9113     1  0.0000000  0.0000000  3
   9109   9107   9106   9110     1  0.0000000  0.6508444  3
   9110   9106   9107   9126     1  0.0000000  0.6508444  3
   9110   9106   9113   9115     1  0.0000000  0.6973333  3
   9110   9106   9104   9124     1  0.0000000  1.0460000  1
   9110   9106   9104   9124     1  0.0000000  0.0000000  3
   9110   9106   9104   9123     1  0.0000000  0.6508444  3
   9111   9108   9112   9122     1  0.0000000  0.6973333  3
   9111   9108   9107   9126     1  0.0000000  0.6508444  3
   9113   9106   9104   9123     1  0.0000000  1.0460000  1
   9113   9106   9104   9123     1  0.0000000  0.0000000  3
   9114   9103   9104   9123     1  0.0000000  0.6508444  3
   9117   9114   9119   9120     1  0.0000000  0.6973333  3
   9117   9114   9103   9121     1  0.0000000  1.0460000  1
   9117   9114   9103   9121     1  0.0000000  0.0000000  3
   9118   9114   9119   9120     1  0.0000000  0.6973333  3
   9118   9114   9103   9121     1  0.0000000  1.0460000  1
   9118   9114   9103   9121     1  0.0000000  0.0000000  3
   9121   9108   9112   9122     1  0.0000000  0.6973333  3
   9121   9103   9104   9123     1  0.0000000  1.0460000  1
   9121   9103   9104   9123     1  0.0000000  0.0000000  3
   9123   9104   9124   9125     1  0.0000000  0.6973333  3
   9127   9129   9131   9133     1  0.0000000  0.6508444  3
   9127   9129   9131   9134     1  0.0000000  0.6508444  3
   9128   9127   9129   9131     1  0.0000000  0.0000000  2
   9128   9127   9129   9130     1  0.0000000  0.0000000  2
   9128   9127   9129   9132     1  0.0000000  0.0000000  2
   9130   9129   9131   9135     1  0.0000000  0.6508444  3
   9130   9129   9131   9133     1  0.0000000  0.6508444  3
   9130   9129   9131   9134     1  0.0000000  0.6508444  3
   9131   9135   9136   9145     1  0.0000000  1.2552000  3
   9131   9135   9136   9146     1  0.0000000  1.2552000  3
   9131   9135   9137   9138     1  0.0000000  1.2552000  3
   9131   9135   9137   9140     1  0.0000000  1.2552000  3
   9132   9129   9131   9135     1  0.0000000  0.6508444  3
   9132   9129   9131   9133     1  0.0000000  0.6508444  3
   9132   9129   9131   9134     1  0.0000000  0.6508444  3
   9133   9131   9135   9136     1  0.0000000  1.2552000  3
   9133   9131   9135   9137     1  0.0000000  1.2552000  3
   9134   9131   9135   9136     1  0.0000000  1.2552000  3
   9134   9131   9135   9137     1  0.0000000  1.2552000  3
   9135   9136   9147   9148     1  0.0000000  0.6508444  3
   9135   9136   9147   9149     1  0.0000000  0.6508444  3
   9135   9137   9139   9141     1  0.0000000  0.6508444  3
   9135   9137   9139   9142     1  0.0000000  0.6508444  3
   9136   9135   9137   9138     1  0.0000000  1.2552000  3
   9136   9135   9137   9140     1  0.0000000  1.2552000  3
   9137   9135   9136   9145     1  0.0000000  1.2552000  3
   9137   9135   9136   9146     1  0.0000000  1.2552000  3
   9138   9137   9139   9143     1  0.0000000  0.6508444  3
   9138   9137   9139   9141     1  0.0000000  0.6508444  3
   9138   9137   9139   9142     1  0.0000000  0.6508444  3
   9139   9143   9175   9165     1  180.0000771  6.0668000  2
   9139   9143   9175   9165     1  180.0000771  1.4644000  4
   9140   9137   9139   9143     1  0.0000000  0.6508444  3
   9140   9137   9139   9141     1  0.0000000  0.6508444  3
   9140   9137   9139   9142     1  0.0000000  0.6508444  3
   9141   9139   9143   9144     1  0.0000000  3.3472000  1
   9141   9139   9143   9144     1  0.0000000  0.0000000  2
   9141   9139   9143   9144     1  180.0000771  0.3347200  3
   9141   9139   9143   9175     1  180.0000771  0.0000000  2
   9142   9139   9143   9144     1  0.0000000  3.3472000  1
   9142   9139   9143   9144     1  0.0000000  0.0000000  2
   9142   9139   9143   9144     1  180.0000771  0.3347200  3
   9142   9139   9143   9175     1  180.0000771  0.0000000  2
   9143   9175   9156   9158     1  0.0000000  1.2552000  3
   9144   9143   9175   9165     1  180.0000771  6.0668000  2
   9144   9143   9175   9165     1  180.0000771  1.4644000  4
   9145   9136   9147   9150     1  0.0000000  0.6508444  3
   9145   9136   9147   9148     1  0.0000000  0.6508444  3
   9145   9136   9147   9149     1  0.0000000  0.6508444  3
   9146   9136   9147   9150     1  0.0000000  0.6508444  3
   9146   9136   9147   9148     1  0.0000000  0.6508444  3
   9146   9136   9147   9149     1  0.0000000  0.6508444  3
   9147   9150   9199   9189     1  180.0000771  6.0668000  2
   9147   9150   9199   9189     1  180.0000771  1.4644000  4
   9148   9147   9150   9151     1  0.0000000  3.3472000  1
   9148   9147   9150   9151     1  0.0000000  0.0000000  2
   9148   9147   9150   9151     1  180.0000771  0.3347200  3
   9148   9147   9150   9199     1  180.0000771  0.0000000  2
   9149   9147   9150   9151     1  0.0000000  3.3472000  1
   9149   9147   9150   9151     1  0.0000000  0.0000000  2
   9149   9147   9150   9151     1  180.0000771  0.3347200  3
   9149   9147   9150   9199     1  180.0000771  0.0000000  2
   9150   9199   9180   9182     1  0.0000000  1.2552000  3
   9151   9150   9199   9189     1  180.0000771  6.0668000  2
   9151   9150   9199   9189     1  180.0000771  1.4644000  4
   9152   9153   9155   9159     1  0.0000000  0.6508444  3
   9152   9153   9173   9174     1  0.0000000  1.0460000  1
   9152   9153   9173   9174     1  0.0000000  0.6694400  3
   9152   9163   9168   9169     1  0.0000000  1.0460000  1
   9152   9163   9168   9169     1  0.0000000  0.6694400  3
   9152   9170   9157   9160     1  0.0000000  1.6038667  3
   9153   9152   9163   9166     1  0.0000000  0.6508444  3
   9153   9152   9163   9167     1  0.0000000  0.6508444  3
   9153   9155   9156   9158     1  0.0000000  0.6508444  3
   9153   9155   9162   9164     1  0.0000000  1.0460000  1
   9153   9155   9162   9164     1  0.0000000  0.6694400  3
   9154   9152   9153   9155     1  0.0000000  0.6508444  3
   9154   9152   9153   9173     1  0.0000000  1.0460000  1
   9154   9152   9153   9173     1  0.0000000  0.0000000  3
   9154   9152   9153   9172     1  0.0000000  0.6508444  3
   9154   9152   9163   9168     1  0.0000000  1.0460000  1
   9154   9152   9163   9168     1  0.0000000  0.0000000  3
   9154   9152   9163   9166     1  0.0000000  0.6508444  3
   9154   9152   9163   9167     1  0.0000000  0.6508444  3
   9154   9152   9170   9157     1  0.0000000  1.6038667  3
   9155   9153   9173   9174     1  0.0000000  1.0460000  1
   9155   9153   9173   9174     1  0.0000000  0.6694400  3
   9155   9156   9157   9160     1  0.0000000  0.6508444  3
   9155   9156   9175   9165     1  0.0000000  1.2552000  3
   9156   9155   9153   9172     1  0.0000000  0.6508444  3
   9156   9155   9162   9164     1  0.0000000  1.0460000  1
   9156   9155   9162   9164     1  0.0000000  0.6694400  3
   9156   9157   9161   9171     1  0.0000000  1.0460000  1
   9156   9157   9161   9171     1  0.0000000  0.6694400  3
   9157   9156   9155   9159     1  0.0000000  0.6508444  3
   9157   9156   9175   9165     1  0.0000000  1.2552000  3
   9158   9156   9155   9162     1  0.0000000  1.0460000  1
   9158   9156   9155   9162     1  0.0000000  0.0000000  3
   9158   9156   9155   9159     1  0.0000000  0.6508444  3
   9158   9156   9157   9161     1  0.0000000  1.0460000  1
   9158   9156   9157   9161     1  0.0000000  0.0000000  3
   9158   9156   9157   9170     1  0.0000000  1.0460000  1
   9158   9156   9157   9170     1  0.0000000  0.0000000  3
   9158   9156   9157   9160     1  0.0000000  0.6508444  3
   9158   9156   9175   9165     1  0.0000000  1.2552000  3
   9159   9155   9153   9173     1  0.0000000  1.0460000  1
   9159   9155   9153   9173     1  0.0000000  0.0000000  3
   9159   9155   9153   9172     1  0.0000000  0.6508444  3
   9159   9155   9156   9175     1  0.0000000  0.6508444  3
   9159   9155   9162   9164     1  0.0000000  0.6973333  3
   9160   9157   9156   9175     1  0.0000000  0.6508444  3
   9160   9157   9161   9171     1  0.0000000  0.6973333  3
   9162   9155   9153   9172     1  0.0000000  1.0460000  1
   9162   9155   9153   9172     1  0.0000000  0.0000000  3
   9163   9152   9153   9172     1  0.0000000  0.6508444  3
   9166   9163   9152   9170     1  0.0000000  1.0460000  1
   9166   9163   9152   9170     1  0.0000000  0.0000000  3
   9166   9163   9168   9169     1  0.0000000  0.6973333  3
   9167   9163   9152   9170     1  0.0000000  1.0460000  1
   9167   9163   9152   9170     1  0.0000000  0.0000000  3
   9167   9163   9168   9169     1  0.0000000  0.6973333  3
   9170   9152   9153   9172     1  0.0000000  1.0460000  1
   9170   9152   9153   9172     1  0.0000000  0.0000000  3
   9170   9157   9161   9171     1  0.0000000  0.6973333  3
   9172   9153   9173   9174     1  0.0000000  0.6973333  3
   9176   9177   9179   9183     1  0.0000000  0.6508444  3
   9176   9177   9197   9198     1  0.0000000  1.0460000  1
   9176   9177   9197   9198     1  0.0000000  0.6694400  3
   9176   9187   9192   9193     1  0.0000000  1.0460000  1
   9176   9187   9192   9193     1  0.0000000  0.6694400  3
   9176   9194   9181   9184     1  0.0000000  1.6038667  3
   9177   9176   9187   9190     1  0.0000000  0.6508444  3
   9177   9176   9187   9191     1  0.0000000  0.6508444  3
   9177   9179   9180   9182     1  0.0000000  0.6508444  3
   9177   9179   9186   9188     1  0.0000000  1.0460000  1
   9177   9179   9186   9188     1  0.0000000  0.6694400  3
   9178   9176   9177   9179     1  0.0000000  0.6508444  3
   9178   9176   9177   9197     1  0.0000000  1.0460000  1
   9178   9176   9177   9197     1  0.0000000  0.0000000  3
   9178   9176   9177   9196     1  0.0000000  0.6508444  3
   9178   9176   9187   9192     1  0.0000000  1.0460000  1
   9178   9176   9187   9192     1  0.0000000  0.0000000  3
   9178   9176   9187   9190     1  0.0000000  0.6508444  3
   9178   9176   9187   9191     1  0.0000000  0.6508444  3
   9178   9176   9194   9181     1  0.0000000  1.6038667  3
   9179   9177   9197   9198     1  0.0000000  1.0460000  1
   9179   9177   9197   9198     1  0.0000000  0.6694400  3
   9179   9180   9181   9184     1  0.0000000  0.6508444  3
   9179   9180   9199   9189     1  0.0000000  1.2552000  3
   9180   9179   9177   9196     1  0.0000000  0.6508444  3
   9180   9179   9186   9188     1  0.0000000  1.0460000  1
   9180   9179   9186   9188     1  0.0000000  0.6694400  3
   9180   9181   9185   9195     1  0.0000000  1.0460000  1
   9180   9181   9185   9195     1  0.0000000  0.6694400  3
   9181   9180   9179   9183     1  0.0000000  0.6508444  3
   9181   9180   9199   9189     1  0.0000000  1.2552000  3
   9182   9180   9179   9186     1  0.0000000  1.0460000  1
   9182   9180   9179   9186     1  0.0000000  0.0000000  3
   9182   9180   9179   9183     1  0.0000000  0.6508444  3
   9182   9180   9181   9185     1  0.0000000  1.0460000  1
   9182   9180   9181   9185     1  0.0000000  0.0000000  3
   9182   9180   9181   9194     1  0.0000000  1.0460000  1
   9182   9180   9181   9194     1  0.0000000  0.0000000  3
   9182   9180   9181   9184     1  0.0000000  0.6508444  3
   9182   9180   9199   9189     1  0.0000000  1.2552000  3
   9183   9179   9177   9197     1  0.0000000  1.0460000  1
   9183   9179   9177   9197     1  0.0000000  0.0000000  3
   9183   9179   9177   9196     1  0.0000000  0.6508444  3
   9183   9179   9180   9199     1  0.0000000  0.6508444  3
   9183   9179   9186   9188     1  0.0000000  0.6973333  3
   9184   9181   9180   9199     1  0.0000000  0.6508444  3
   9184   9181   9185   9195     1  0.0000000  0.6973333  3
   9186   9179   9177   9196     1  0.0000000  1.0460000  1
   9186   9179   9177   9196     1  0.0000000  0.0000000  3
   9187   9176   9177   9196     1  0.0000000  0.6508444  3
   9190   9187   9176   9194     1  0.0000000  1.0460000  1
   9190   9187   9176   9194     1  0.0000000  0.0000000  3
   9190   9187   9192   9193     1  0.0000000  0.6973333  3
   9191   9187   9176   9194     1  0.0000000  1.0460000  1
   9191   9187   9176   9194     1  0.0000000  0.0000000  3
   9191   9187   9192   9193     1  0.0000000  0.6973333  3
   9194   9176   9177   9196     1  0.0000000  1.0460000  1
   9194   9176   9177   9196     1  0.0000000  0.0000000  3
   9194   9181   9185   9195     1  0.0000000  0.6973333  3
   9196   9177   9197   9198     1  0.0000000  0.6973333  3
   9200   9202   9204   9206     1  0.0000000  0.6508444  3
   9200   9202   9204   9207     1  0.0000000  0.6508444  3
   9201   9200   9202   9204     1  0.0000000  0.0000000  2
   9201   9200   9202   9203     1  0.0000000  0.0000000  2
   9201   9200   9202   9205     1  0.0000000  0.0000000  2
   9203   9202   9204   9208     1  0.0000000  0.6508444  3
   9203   9202   9204   9206     1  0.0000000  0.6508444  3
   9203   9202   9204   9207     1  0.0000000  0.6508444  3
   9204   9208   9209   9218     1  0.0000000  1.2552000  3
   9204   9208   9209   9219     1  0.0000000  1.2552000  3
   9204   9208   9210   9211     1  0.0000000  1.2552000  3
   9204   9208   9210   9213     1  0.0000000  1.2552000  3
   9205   9202   9204   9208     1  0.0000000  0.6508444  3
   9205   9202   9204   9206     1  0.0000000  0.6508444  3
   9205   9202   9204   9207     1  0.0000000  0.6508444  3
   9206   9204   9208   9209     1  0.0000000  1.2552000  3
   9206   9204   9208   9210     1  0.0000000  1.2552000  3
   9207   9204   9208   9209     1  0.0000000  1.2552000  3
   9207   9204   9208   9210     1  0.0000000  1.2552000  3
   9208   9209   9220   9221     1  0.0000000  0.6508444  3
   9208   9209   9220   9222     1  0.0000000  0.6508444  3
   9208   9210   9212   9214     1  0.0000000  0.6508444  3
   9208   9210   9212   9215     1  0.0000000  0.6508444  3
   9209   9208   9210   9211     1  0.0000000  1.2552000  3
   9209   9208   9210   9213     1  0.0000000  1.2552000  3
   9210   9208   9209   9218     1  0.0000000  1.2552000  3
   9210   9208   9209   9219     1  0.0000000  1.2552000  3
   9211   9210   9212   9216     1  0.0000000  0.6508444  3
   9211   9210   9212   9214     1  0.0000000  0.6508444  3
   9211   9210   9212   9215     1  0.0000000  0.6508444  3
   9212   9216   9248   9238     1  180.0000771  6.0668000  2
   9212   9216   9248   9238     1  180.0000771  1.4644000  4
   9213   9210   9212   9216     1  0.0000000  0.6508444  3
   9213   9210   9212   9214     1  0.0000000  0.6508444  3
   9213   9210   9212   9215     1  0.0000000  0.6508444  3
   9214   9212   9216   9217     1  0.0000000  3.3472000  1
   9214   9212   9216   9217     1  0.0000000  0.0000000  2
   9214   9212   9216   9217     1  180.0000771  0.3347200  3
   9214   9212   9216   9248     1  180.0000771  0.0000000  2
   9215   9212   9216   9217     1  0.0000000  3.3472000  1
   9215   9212   9216   9217     1  0.0000000  0.0000000  2
   9215   9212   9216   9217     1  180.0000771  0.3347200  3
   9215   9212   9216   9248     1  180.0000771  0.0000000  2
   9216   9248   9229   9231     1  0.0000000  1.2552000  3
   9217   9216   9248   9238     1  180.0000771  6.0668000  2
   9217   9216   9248   9238     1  180.0000771  1.4644000  4
   9218   9209   9220   9223     1  0.0000000  0.6508444  3
   9218   9209   9220   9221     1  0.0000000  0.6508444  3
   9218   9209   9220   9222     1  0.0000000  0.6508444  3
   9219   9209   9220   9223     1  0.0000000  0.6508444  3
   9219   9209   9220   9221     1  0.0000000  0.6508444  3
   9219   9209   9220   9222     1  0.0000000  0.6508444  3
   9220   9223   9272   9262     1  180.0000771  6.0668000  2
   9220   9223   9272   9262     1  180.0000771  1.4644000  4
   9221   9220   9223   9224     1  0.0000000  3.3472000  1
   9221   9220   9223   9224     1  0.0000000  0.0000000  2
   9221   9220   9223   9224     1  180.0000771  0.3347200  3
   9221   9220   9223   9272     1  180.0000771  0.0000000  2
   9222   9220   9223   9224     1  0.0000000  3.3472000  1
   9222   9220   9223   9224     1  0.0000000  0.0000000  2
   9222   9220   9223   9224     1  180.0000771  0.3347200  3
   9222   9220   9223   9272     1  180.0000771  0.0000000  2
   9223   9272   9253   9255     1  0.0000000  1.2552000  3
   9224   9223   9272   9262     1  180.0000771  6.0668000  2
   9224   9223   9272   9262     1  180.0000771  1.4644000  4
   9225   9226   9228   9232     1  0.0000000  0.6508444  3
   9225   9226   9246   9247     1  0.0000000  1.0460000  1
   9225   9226   9246   9247     1  0.0000000  0.6694400  3
   9225   9236   9241   9242     1  0.0000000  1.0460000  1
   9225   9236   9241   9242     1  0.0000000  0.6694400  3
   9225   9243   9230   9233     1  0.0000000  1.6038667  3
   9226   9228   9229   9231     1  0.0000000  0.6508444  3
   9226   9228   9235   9237     1  0.0000000  1.0460000  1
   9226   9228   9235   9237     1  0.0000000  0.6694400  3
   9226   9225   9236   9239     1  0.0000000  0.6508444  3
   9226   9225   9236   9240     1  0.0000000  0.6508444  3
   9227   9225   9226   9228     1  0.0000000  0.6508444  3
   9227   9225   9226   9246     1  0.0000000  1.0460000  1
   9227   9225   9226   9246     1  0.0000000  0.0000000  3
   9227   9225   9226   9245     1  0.0000000  0.6508444  3
   9227   9225   9236   9241     1  0.0000000  1.0460000  1
   9227   9225   9236   9241     1  0.0000000  0.0000000  3
   9227   9225   9236   9239     1  0.0000000  0.6508444  3
   9227   9225   9236   9240     1  0.0000000  0.6508444  3
   9227   9225   9243   9230     1  0.0000000  1.6038667  3
   9228   9229   9230   9233     1  0.0000000  0.6508444  3
   9228   9229   9248   9238     1  0.0000000  1.2552000  3
   9228   9226   9246   9247     1  0.0000000  1.0460000  1
   9228   9226   9246   9247     1  0.0000000  0.6694400  3
   9229   9230   9234   9244     1  0.0000000  1.0460000  1
   9229   9230   9234   9244     1  0.0000000  0.6694400  3
   9229   9228   9235   9237     1  0.0000000  1.0460000  1
   9229   9228   9235   9237     1  0.0000000  0.6694400  3
   9229   9228   9226   9245     1  0.0000000  0.6508444  3
   9230   9229   9248   9238     1  0.0000000  1.2552000  3
   9230   9229   9228   9232     1  0.0000000  0.6508444  3
   9231   9229   9230   9234     1  0.0000000  1.0460000  1
   9231   9229   9230   9234     1  0.0000000  0.0000000  3
   9231   9229   9230   9243     1  0.0000000  1.0460000  1
   9231   9229   9230   9243     1  0.0000000  0.0000000  3
   9231   9229   9230   9233     1  0.0000000  0.6508444  3
   9231   9229   9248   9238     1  0.0000000  1.2552000  3
   9231   9229   9228   9235     1  0.0000000  1.0460000  1
   9231   9229   9228   9235     1  0.0000000  0.0000000  3
   9231   9229   9228   9232     1  0.0000000  0.6508444  3
   9232   9228   9229   9248     1  0.0000000  0.6508444  3
   9232   9228   9235   9237     1  0.0000000  0.6973333  3
   9232   9228   9226   9246     1  0.0000000  1.0460000  1
   9232   9228   9226   9246     1  0.0000000  0.0000000  3
   9232   9228   9226   9245     1  0.0000000  0.6508444  3
   9233   9230   9234   9244     1  0.0000000  0.6973333  3
   9233   9230   9229   9248     1  0.0000000  0.6508444  3
   9235   9228   9226   9245     1  0.0000000  1.0460000  1
   9235   9228   9226   9245     1  0.0000000  0.0000000  3
   9236   9225   9226   9245     1  0.0000000  0.6508444  3
   9239   9236   9241   9242     1  0.0000000  0.6973333  3
   9239   9236   9225   9243     1  0.0000000  1.0460000  1
   9239   9236   9225   9243     1  0.0000000  0.0000000  3
   9240   9236   9241   9242     1  0.0000000  0.6973333  3
   9240   9236   9225   9243     1  0.0000000  1.0460000  1
   9240   9236   9225   9243     1  0.0000000  0.0000000  3
   9243   9230   9234   9244     1  0.0000000  0.6973333  3
   9243   9225   9226   9245     1  0.0000000  1.0460000  1
   9243   9225   9226   9245     1  0.0000000  0.0000000  3
   9245   9226   9246   9247     1  0.0000000  0.6973333  3
   9249   9250   9252   9256     1  0.0000000  0.6508444  3
   9249   9250   9270   9271     1  0.0000000  1.0460000  1
   9249   9250   9270   9271     1  0.0000000  0.6694400  3
   9249   9260   9265   9266     1  0.0000000  1.0460000  1
   9249   9260   9265   9266     1  0.0000000  0.6694400  3
   9249   9267   9254   9257     1  0.0000000  1.6038667  3
   9250   9252   9253   9255     1  0.0000000  0.6508444  3
   9250   9252   9259   9261     1  0.0000000  1.0460000  1
   9250   9252   9259   9261     1  0.0000000  0.6694400  3
   9250   9249   9260   9263     1  0.0000000  0.6508444  3
   9250   9249   9260   9264     1  0.0000000  0.6508444  3
   9251   9249   9250   9252     1  0.0000000  0.6508444  3
   9251   9249   9250   9270     1  0.0000000  1.0460000  1
   9251   9249   9250   9270     1  0.0000000  0.0000000  3
   9251   9249   9250   9269     1  0.0000000  0.6508444  3
   9251   9249   9260   9265     1  0.0000000  1.0460000  1
   9251   9249   9260   9265     1  0.0000000  0.0000000  3
   9251   9249   9260   9263     1  0.0000000  0.6508444  3
   9251   9249   9260   9264     1  0.0000000  0.6508444  3
   9251   9249   9267   9254     1  0.0000000  1.6038667  3
   9252   9253   9254   9257     1  0.0000000  0.6508444  3
   9252   9253   9272   9262     1  0.0000000  1.2552000  3
   9252   9250   9270   9271     1  0.0000000  1.0460000  1
   9252   9250   9270   9271     1  0.0000000  0.6694400  3
   9253   9254   9258   9268     1  0.0000000  1.0460000  1
   9253   9254   9258   9268     1  0.0000000  0.6694400  3
   9253   9252   9259   9261     1  0.0000000  1.0460000  1
   9253   9252   9259   9261     1  0.0000000  0.6694400  3
   9253   9252   9250   9269     1  0.0000000  0.6508444  3
   9254   9253   9272   9262     1  0.0000000  1.2552000  3
   9254   9253   9252   9256     1  0.0000000  0.6508444  3
   9255   9253   9254   9258     1  0.0000000  1.0460000  1
   9255   9253   9254   9258     1  0.0000000  0.0000000  3
   9255   9253   9254   9267     1  0.0000000  1.0460000  1
   9255   9253   9254   9267     1  0.0000000  0.0000000  3
   9255   9253   9254   9257     1  0.0000000  0.6508444  3
   9255   9253   9272   9262     1  0.0000000  1.2552000  3
   9255   9253   9252   9259     1  0.0000000  1.0460000  1
   9255   9253   9252   9259     1  0.0000000  0.0000000  3
   9255   9253   9252   9256     1  0.0000000  0.6508444  3
   9256   9252   9253   9272     1  0.0000000  0.6508444  3
   9256   9252   9259   9261     1  0.0000000  0.6973333  3
   9256   9252   9250   9270     1  0.0000000  1.0460000  1
   9256   9252   9250   9270     1  0.0000000  0.0000000  3
   9256   9252   9250   9269     1  0.0000000  0.6508444  3
   9257   9254   9258   9268     1  0.0000000  0.6973333  3
   9257   9254   9253   9272     1  0.0000000  0.6508444  3
   9259   9252   9250   9269     1  0.0000000  1.0460000  1
   9259   9252   9250   9269     1  0.0000000  0.0000000  3
   9260   9249   9250   9269     1  0.0000000  0.6508444  3
   9263   9260   9265   9266     1  0.0000000  0.6973333  3
   9263   9260   9249   9267     1  0.0000000  1.0460000  1
   9263   9260   9249   9267     1  0.0000000  0.0000000  3
   9264   9260   9265   9266     1  0.0000000  0.6973333  3
   9264   9260   9249   9267     1  0.0000000  1.0460000  1
   9264   9260   9249   9267     1  0.0000000  0.0000000  3
   9267   9254   9258   9268     1  0.0000000  0.6973333  3
   9267   9249   9250   9269     1  0.0000000  1.0460000  1
   9267   9249   9250   9269     1  0.0000000  0.0000000  3
   9269   9250   9270   9271     1  0.0000000  0.6973333  3
   9273   9275   9277   9279     1  0.0000000  0.6508444  3
   9273   9275   9277   9280     1  0.0000000  0.6508444  3
   9274   9273   9275   9277     1  0.0000000  0.0000000  2
   9274   9273   9275   9276     1  0.0000000  0.0000000  2
   9274   9273   9275   9278     1  0.0000000  0.0000000  2
   9276   9275   9277   9281     1  0.0000000  0.6508444  3
   9276   9275   9277   9279     1  0.0000000  0.6508444  3
   9276   9275   9277   9280     1  0.0000000  0.6508444  3
   9277   9281   9282   9291     1  0.0000000  1.2552000  3
   9277   9281   9282   9292     1  0.0000000  1.2552000  3
   9277   9281   9283   9284     1  0.0000000  1.2552000  3
   9277   9281   9283   9286     1  0.0000000  1.2552000  3
   9278   9275   9277   9281     1  0.0000000  0.6508444  3
   9278   9275   9277   9279     1  0.0000000  0.6508444  3
   9278   9275   9277   9280     1  0.0000000  0.6508444  3
   9279   9277   9281   9282     1  0.0000000  1.2552000  3
   9279   9277   9281   9283     1  0.0000000  1.2552000  3
   9280   9277   9281   9282     1  0.0000000  1.2552000  3
   9280   9277   9281   9283     1  0.0000000  1.2552000  3
   9281   9282   9293   9294     1  0.0000000  0.6508444  3
   9281   9282   9293   9295     1  0.0000000  0.6508444  3
   9281   9283   9285   9287     1  0.0000000  0.6508444  3
   9281   9283   9285   9288     1  0.0000000  0.6508444  3
   9282   9281   9283   9284     1  0.0000000  1.2552000  3
   9282   9281   9283   9286     1  0.0000000  1.2552000  3
   9283   9281   9282   9291     1  0.0000000  1.2552000  3
   9283   9281   9282   9292     1  0.0000000  1.2552000  3
   9284   9283   9285   9289     1  0.0000000  0.6508444  3
   9284   9283   9285   9287     1  0.0000000  0.6508444  3
   9284   9283   9285   9288     1  0.0000000  0.6508444  3
   9285   9289   9321   9311     1  180.0000771  6.0668000  2
   9285   9289   9321   9311     1  180.0000771  1.4644000  4
   9286   9283   9285   9289     1  0.0000000  0.6508444  3
   9286   9283   9285   9287     1  0.0000000  0.6508444  3
   9286   9283   9285   9288     1  0.0000000  0.6508444  3
   9287   9285   9289   9290     1  0.0000000  3.3472000  1
   9287   9285   9289   9290     1  0.0000000  0.0000000  2
   9287   9285   9289   9290     1  180.0000771  0.3347200  3
   9287   9285   9289   9321     1  180.0000771  0.0000000  2
   9288   9285   9289   9290     1  0.0000000  3.3472000  1
   9288   9285   9289   9290     1  0.0000000  0.0000000  2
   9288   9285   9289   9290     1  180.0000771  0.3347200  3
   9288   9285   9289   9321     1  180.0000771  0.0000000  2
   9289   9321   9302   9304     1  0.0000000  1.2552000  3
   9290   9289   9321   9311     1  180.0000771  6.0668000  2
   9290   9289   9321   9311     1  180.0000771  1.4644000  4
   9291   9282   9293   9296     1  0.0000000  0.6508444  3
   9291   9282   9293   9294     1  0.0000000  0.6508444  3
   9291   9282   9293   9295     1  0.0000000  0.6508444  3
   9292   9282   9293   9296     1  0.0000000  0.6508444  3
   9292   9282   9293   9294     1  0.0000000  0.6508444  3
   9292   9282   9293   9295     1  0.0000000  0.6508444  3
   9293   9296   9345   9335     1  180.0000771  6.0668000  2
   9293   9296   9345   9335     1  180.0000771  1.4644000  4
   9294   9293   9296   9297     1  0.0000000  3.3472000  1
   9294   9293   9296   9297     1  0.0000000  0.0000000  2
   9294   9293   9296   9297     1  180.0000771  0.3347200  3
   9294   9293   9296   9345     1  180.0000771  0.0000000  2
   9295   9293   9296   9297     1  0.0000000  3.3472000  1
   9295   9293   9296   9297     1  0.0000000  0.0000000  2
   9295   9293   9296   9297     1  180.0000771  0.3347200  3
   9295   9293   9296   9345     1  180.0000771  0.0000000  2
   9296   9345   9326   9328     1  0.0000000  1.2552000  3
   9297   9296   9345   9335     1  180.0000771  6.0668000  2
   9297   9296   9345   9335     1  180.0000771  1.4644000  4
   9298   9299   9301   9305     1  0.0000000  0.6508444  3
   9298   9299   9319   9320     1  0.0000000  1.0460000  1
   9298   9299   9319   9320     1  0.0000000  0.6694400  3
   9298   9309   9314   9315     1  0.0000000  1.0460000  1
   9298   9309   9314   9315     1  0.0000000  0.6694400  3
   9298   9316   9303   9306     1  0.0000000  1.6038667  3
   9299   9298   9309   9312     1  0.0000000  0.6508444  3
   9299   9298   9309   9313     1  0.0000000  0.6508444  3
   9299   9301   9302   9304     1  0.0000000  0.6508444  3
   9299   9301   9308   9310     1  0.0000000  1.0460000  1
   9299   9301   9308   9310     1  0.0000000  0.6694400  3
   9300   9298   9299   9301     1  0.0000000  0.6508444  3
   9300   9298   9299   9319     1  0.0000000  1.0460000  1
   9300   9298   9299   9319     1  0.0000000  0.0000000  3
   9300   9298   9299   9318     1  0.0000000  0.6508444  3
   9300   9298   9309   9314     1  0.0000000  1.0460000  1
   9300   9298   9309   9314     1  0.0000000  0.0000000  3
   9300   9298   9309   9312     1  0.0000000  0.6508444  3
   9300   9298   9309   9313     1  0.0000000  0.6508444  3
   9300   9298   9316   9303     1  0.0000000  1.6038667  3
   9301   9299   9319   9320     1  0.0000000  1.0460000  1
   9301   9299   9319   9320     1  0.0000000  0.6694400  3
   9301   9302   9303   9306     1  0.0000000  0.6508444  3
   9301   9302   9321   9311     1  0.0000000  1.2552000  3
   9302   9301   9299   9318     1  0.0000000  0.6508444  3
   9302   9301   9308   9310     1  0.0000000  1.0460000  1
   9302   9301   9308   9310     1  0.0000000  0.6694400  3
   9302   9303   9307   9317     1  0.0000000  1.0460000  1
   9302   9303   9307   9317     1  0.0000000  0.6694400  3
   9303   9302   9301   9305     1  0.0000000  0.6508444  3
   9303   9302   9321   9311     1  0.0000000  1.2552000  3
   9304   9302   9301   9308     1  0.0000000  1.0460000  1
   9304   9302   9301   9308     1  0.0000000  0.0000000  3
   9304   9302   9301   9305     1  0.0000000  0.6508444  3
   9304   9302   9303   9307     1  0.0000000  1.0460000  1
   9304   9302   9303   9307     1  0.0000000  0.0000000  3
   9304   9302   9303   9316     1  0.0000000  1.0460000  1
   9304   9302   9303   9316     1  0.0000000  0.0000000  3
   9304   9302   9303   9306     1  0.0000000  0.6508444  3
   9304   9302   9321   9311     1  0.0000000  1.2552000  3
   9305   9301   9299   9319     1  0.0000000  1.0460000  1
   9305   9301   9299   9319     1  0.0000000  0.0000000  3
   9305   9301   9299   9318     1  0.0000000  0.6508444  3
   9305   9301   9302   9321     1  0.0000000  0.6508444  3
   9305   9301   9308   9310     1  0.0000000  0.6973333  3
   9306   9303   9302   9321     1  0.0000000  0.6508444  3
   9306   9303   9307   9317     1  0.0000000  0.6973333  3
   9308   9301   9299   9318     1  0.0000000  1.0460000  1
   9308   9301   9299   9318     1  0.0000000  0.0000000  3
   9309   9298   9299   9318     1  0.0000000  0.6508444  3
   9312   9309   9298   9316     1  0.0000000  1.0460000  1
   9312   9309   9298   9316     1  0.0000000  0.0000000  3
   9312   9309   9314   9315     1  0.0000000  0.6973333  3
   9313   9309   9298   9316     1  0.0000000  1.0460000  1
   9313   9309   9298   9316     1  0.0000000  0.0000000  3
   9313   9309   9314   9315     1  0.0000000  0.6973333  3
   9316   9298   9299   9318     1  0.0000000  1.0460000  1
   9316   9298   9299   9318     1  0.0000000  0.0000000  3
   9316   9303   9307   9317     1  0.0000000  0.6973333  3
   9318   9299   9319   9320     1  0.0000000  0.6973333  3
   9322   9323   9325   9329     1  0.0000000  0.6508444  3
   9322   9323   9343   9344     1  0.0000000  1.0460000  1
   9322   9323   9343   9344     1  0.0000000  0.6694400  3
   9322   9333   9338   9339     1  0.0000000  1.0460000  1
   9322   9333   9338   9339     1  0.0000000  0.6694400  3
   9322   9340   9327   9330     1  0.0000000  1.6038667  3
   9323   9322   9333   9336     1  0.0000000  0.6508444  3
   9323   9322   9333   9337     1  0.0000000  0.6508444  3
   9323   9325   9326   9328     1  0.0000000  0.6508444  3
   9323   9325   9332   9334     1  0.0000000  1.0460000  1
   9323   9325   9332   9334     1  0.0000000  0.6694400  3
   9324   9322   9323   9325     1  0.0000000  0.6508444  3
   9324   9322   9323   9343     1  0.0000000  1.0460000  1
   9324   9322   9323   9343     1  0.0000000  0.0000000  3
   9324   9322   9323   9342     1  0.0000000  0.6508444  3
   9324   9322   9333   9338     1  0.0000000  1.0460000  1
   9324   9322   9333   9338     1  0.0000000  0.0000000  3
   9324   9322   9333   9336     1  0.0000000  0.6508444  3
   9324   9322   9333   9337     1  0.0000000  0.6508444  3
   9324   9322   9340   9327     1  0.0000000  1.6038667  3
   9325   9323   9343   9344     1  0.0000000  1.0460000  1
   9325   9323   9343   9344     1  0.0000000  0.6694400  3
   9325   9326   9327   9330     1  0.0000000  0.6508444  3
   9325   9326   9345   9335     1  0.0000000  1.2552000  3
   9326   9325   9323   9342     1  0.0000000  0.6508444  3
   9326   9325   9332   9334     1  0.0000000  1.0460000  1
   9326   9325   9332   9334     1  0.0000000  0.6694400  3
   9326   9327   9331   9341     1  0.0000000  1.0460000  1
   9326   9327   9331   9341     1  0.0000000  0.6694400  3
   9327   9326   9325   9329     1  0.0000000  0.6508444  3
   9327   9326   9345   9335     1  0.0000000  1.2552000  3
   9328   9326   9325   9332     1  0.0000000  1.0460000  1
   9328   9326   9325   9332     1  0.0000000  0.0000000  3
   9328   9326   9325   9329     1  0.0000000  0.6508444  3
   9328   9326   9327   9331     1  0.0000000  1.0460000  1
   9328   9326   9327   9331     1  0.0000000  0.0000000  3
   9328   9326   9327   9340     1  0.0000000  1.0460000  1
   9328   9326   9327   9340     1  0.0000000  0.0000000  3
   9328   9326   9327   9330     1  0.0000000  0.6508444  3
   9328   9326   9345   9335     1  0.0000000  1.2552000  3
   9329   9325   9323   9343     1  0.0000000  1.0460000  1
   9329   9325   9323   9343     1  0.0000000  0.0000000  3
   9329   9325   9323   9342     1  0.0000000  0.6508444  3
   9329   9325   9326   9345     1  0.0000000  0.6508444  3
   9329   9325   9332   9334     1  0.0000000  0.6973333  3
   9330   9327   9326   9345     1  0.0000000  0.6508444  3
   9330   9327   9331   9341     1  0.0000000  0.6973333  3
   9332   9325   9323   9342     1  0.0000000  1.0460000  1
   9332   9325   9323   9342     1  0.0000000  0.0000000  3
   9333   9322   9323   9342     1  0.0000000  0.6508444  3
   9336   9333   9322   9340     1  0.0000000  1.0460000  1
   9336   9333   9322   9340     1  0.0000000  0.0000000  3
   9336   9333   9338   9339     1  0.0000000  0.6973333  3
   9337   9333   9322   9340     1  0.0000000  1.0460000  1
   9337   9333   9322   9340     1  0.0000000  0.0000000  3
   9337   9333   9338   9339     1  0.0000000  0.6973333  3
   9340   9322   9323   9342     1  0.0000000  1.0460000  1
   9340   9322   9323   9342     1  0.0000000  0.0000000  3
   9340   9327   9331   9341     1  0.0000000  0.6973333  3
   9342   9323   9343   9344     1  0.0000000  0.6973333  3
   9346   9348   9350   9352     1  0.0000000  0.6508444  3
   9346   9348   9350   9353     1  0.0000000  0.6508444  3
   9347   9346   9348   9350     1  0.0000000  0.0000000  2
   9347   9346   9348   9349     1  0.0000000  0.0000000  2
   9347   9346   9348   9351     1  0.0000000  0.0000000  2
   9349   9348   9350   9354     1  0.0000000  0.6508444  3
   9349   9348   9350   9352     1  0.0000000  0.6508444  3
   9349   9348   9350   9353     1  0.0000000  0.6508444  3
   9350   9354   9355   9364     1  0.0000000  1.2552000  3
   9350   9354   9355   9365     1  0.0000000  1.2552000  3
   9350   9354   9356   9357     1  0.0000000  1.2552000  3
   9350   9354   9356   9359     1  0.0000000  1.2552000  3
   9351   9348   9350   9354     1  0.0000000  0.6508444  3
   9351   9348   9350   9352     1  0.0000000  0.6508444  3
   9351   9348   9350   9353     1  0.0000000  0.6508444  3
   9352   9350   9354   9355     1  0.0000000  1.2552000  3
   9352   9350   9354   9356     1  0.0000000  1.2552000  3
   9353   9350   9354   9355     1  0.0000000  1.2552000  3
   9353   9350   9354   9356     1  0.0000000  1.2552000  3
   9354   9355   9366   9367     1  0.0000000  0.6508444  3
   9354   9355   9366   9368     1  0.0000000  0.6508444  3
   9354   9356   9358   9360     1  0.0000000  0.6508444  3
   9354   9356   9358   9361     1  0.0000000  0.6508444  3
   9355   9354   9356   9357     1  0.0000000  1.2552000  3
   9355   9354   9356   9359     1  0.0000000  1.2552000  3
   9356   9354   9355   9364     1  0.0000000  1.2552000  3
   9356   9354   9355   9365     1  0.0000000  1.2552000  3
   9357   9356   9358   9362     1  0.0000000  0.6508444  3
   9357   9356   9358   9360     1  0.0000000  0.6508444  3
   9357   9356   9358   9361     1  0.0000000  0.6508444  3
   9358   9362   9394   9384     1  180.0000771  6.0668000  2
   9358   9362   9394   9384     1  180.0000771  1.4644000  4
   9359   9356   9358   9362     1  0.0000000  0.6508444  3
   9359   9356   9358   9360     1  0.0000000  0.6508444  3
   9359   9356   9358   9361     1  0.0000000  0.6508444  3
   9360   9358   9362   9363     1  0.0000000  3.3472000  1
   9360   9358   9362   9363     1  0.0000000  0.0000000  2
   9360   9358   9362   9363     1  180.0000771  0.3347200  3
   9360   9358   9362   9394     1  180.0000771  0.0000000  2
   9361   9358   9362   9363     1  0.0000000  3.3472000  1
   9361   9358   9362   9363     1  0.0000000  0.0000000  2
   9361   9358   9362   9363     1  180.0000771  0.3347200  3
   9361   9358   9362   9394     1  180.0000771  0.0000000  2
   9362   9394   9375   9377     1  0.0000000  1.2552000  3
   9363   9362   9394   9384     1  180.0000771  6.0668000  2
   9363   9362   9394   9384     1  180.0000771  1.4644000  4
   9364   9355   9366   9369     1  0.0000000  0.6508444  3
   9364   9355   9366   9367     1  0.0000000  0.6508444  3
   9364   9355   9366   9368     1  0.0000000  0.6508444  3
   9365   9355   9366   9369     1  0.0000000  0.6508444  3
   9365   9355   9366   9367     1  0.0000000  0.6508444  3
   9365   9355   9366   9368     1  0.0000000  0.6508444  3
   9366   9369   9418   9408     1  180.0000771  6.0668000  2
   9366   9369   9418   9408     1  180.0000771  1.4644000  4
   9367   9366   9369   9370     1  0.0000000  3.3472000  1
   9367   9366   9369   9370     1  0.0000000  0.0000000  2
   9367   9366   9369   9370     1  180.0000771  0.3347200  3
   9367   9366   9369   9418     1  180.0000771  0.0000000  2
   9368   9366   9369   9370     1  0.0000000  3.3472000  1
   9368   9366   9369   9370     1  0.0000000  0.0000000  2
   9368   9366   9369   9370     1  180.0000771  0.3347200  3
   9368   9366   9369   9418     1  180.0000771  0.0000000  2
   9369   9418   9399   9401     1  0.0000000  1.2552000  3
   9370   9369   9418   9408     1  180.0000771  6.0668000  2
   9370   9369   9418   9408     1  180.0000771  1.4644000  4
   9371   9372   9374   9378     1  0.0000000  0.6508444  3
   9371   9372   9392   9393     1  0.0000000  1.0460000  1
   9371   9372   9392   9393     1  0.0000000  0.6694400  3
   9371   9382   9387   9388     1  0.0000000  1.0460000  1
   9371   9382   9387   9388     1  0.0000000  0.6694400  3
   9371   9389   9376   9379     1  0.0000000  1.6038667  3
   9372   9374   9375   9377     1  0.0000000  0.6508444  3
   9372   9374   9381   9383     1  0.0000000  1.0460000  1
   9372   9374   9381   9383     1  0.0000000  0.6694400  3
   9372   9371   9382   9385     1  0.0000000  0.6508444  3
   9372   9371   9382   9386     1  0.0000000  0.6508444  3
   9373   9371   9372   9374     1  0.0000000  0.6508444  3
   9373   9371   9372   9392     1  0.0000000  1.0460000  1
   9373   9371   9372   9392     1  0.0000000  0.0000000  3
   9373   9371   9372   9391     1  0.0000000  0.6508444  3
   9373   9371   9382   9387     1  0.0000000  1.0460000  1
   9373   9371   9382   9387     1  0.0000000  0.0000000  3
   9373   9371   9382   9385     1  0.0000000  0.6508444  3
   9373   9371   9382   9386     1  0.0000000  0.6508444  3
   9373   9371   9389   9376     1  0.0000000  1.6038667  3
   9374   9375   9376   9379     1  0.0000000  0.6508444  3
   9374   9375   9394   9384     1  0.0000000  1.2552000  3
   9374   9372   9392   9393     1  0.0000000  1.0460000  1
   9374   9372   9392   9393     1  0.0000000  0.6694400  3
   9375   9376   9380   9390     1  0.0000000  1.0460000  1
   9375   9376   9380   9390     1  0.0000000  0.6694400  3
   9375   9374   9381   9383     1  0.0000000  1.0460000  1
   9375   9374   9381   9383     1  0.0000000  0.6694400  3
   9375   9374   9372   9391     1  0.0000000  0.6508444  3
   9376   9375   9394   9384     1  0.0000000  1.2552000  3
   9376   9375   9374   9378     1  0.0000000  0.6508444  3
   9377   9375   9376   9380     1  0.0000000  1.0460000  1
   9377   9375   9376   9380     1  0.0000000  0.0000000  3
   9377   9375   9376   9389     1  0.0000000  1.0460000  1
   9377   9375   9376   9389     1  0.0000000  0.0000000  3
   9377   9375   9376   9379     1  0.0000000  0.6508444  3
   9377   9375   9394   9384     1  0.0000000  1.2552000  3
   9377   9375   9374   9381     1  0.0000000  1.0460000  1
   9377   9375   9374   9381     1  0.0000000  0.0000000  3
   9377   9375   9374   9378     1  0.0000000  0.6508444  3
   9378   9374   9375   9394     1  0.0000000  0.6508444  3
   9378   9374   9381   9383     1  0.0000000  0.6973333  3
   9378   9374   9372   9392     1  0.0000000  1.0460000  1
   9378   9374   9372   9392     1  0.0000000  0.0000000  3
   9378   9374   9372   9391     1  0.0000000  0.6508444  3
   9379   9376   9380   9390     1  0.0000000  0.6973333  3
   9379   9376   9375   9394     1  0.0000000  0.6508444  3
   9381   9374   9372   9391     1  0.0000000  1.0460000  1
   9381   9374   9372   9391     1  0.0000000  0.0000000  3
   9382   9371   9372   9391     1  0.0000000  0.6508444  3
   9385   9382   9387   9388     1  0.0000000  0.6973333  3
   9385   9382   9371   9389     1  0.0000000  1.0460000  1
   9385   9382   9371   9389     1  0.0000000  0.0000000  3
   9386   9382   9387   9388     1  0.0000000  0.6973333  3
   9386   9382   9371   9389     1  0.0000000  1.0460000  1
   9386   9382   9371   9389     1  0.0000000  0.0000000  3
   9389   9376   9380   9390     1  0.0000000  0.6973333  3
   9389   9371   9372   9391     1  0.0000000  1.0460000  1
   9389   9371   9372   9391     1  0.0000000  0.0000000  3
   9391   9372   9392   9393     1  0.0000000  0.6973333  3
   9395   9396   9398   9402     1  0.0000000  0.6508444  3
   9395   9396   9416   9417     1  0.0000000  1.0460000  1
   9395   9396   9416   9417     1  0.0000000  0.6694400  3
   9395   9406   9411   9412     1  0.0000000  1.0460000  1
   9395   9406   9411   9412     1  0.0000000  0.6694400  3
   9395   9413   9400   9403     1  0.0000000  1.6038667  3
   9396   9398   9399   9401     1  0.0000000  0.6508444  3
   9396   9398   9405   9407     1  0.0000000  1.0460000  1
   9396   9398   9405   9407     1  0.0000000  0.6694400  3
   9396   9395   9406   9409     1  0.0000000  0.6508444  3
   9396   9395   9406   9410     1  0.0000000  0.6508444  3
   9397   9395   9396   9398     1  0.0000000  0.6508444  3
   9397   9395   9396   9416     1  0.0000000  1.0460000  1
   9397   9395   9396   9416     1  0.0000000  0.0000000  3
   9397   9395   9396   9415     1  0.0000000  0.6508444  3
   9397   9395   9406   9411     1  0.0000000  1.0460000  1
   9397   9395   9406   9411     1  0.0000000  0.0000000  3
   9397   9395   9406   9409     1  0.0000000  0.6508444  3
   9397   9395   9406   9410     1  0.0000000  0.6508444  3
   9397   9395   9413   9400     1  0.0000000  1.6038667  3
   9398   9399   9400   9403     1  0.0000000  0.6508444  3
   9398   9399   9418   9408     1  0.0000000  1.2552000  3
   9398   9396   9416   9417     1  0.0000000  1.0460000  1
   9398   9396   9416   9417     1  0.0000000  0.6694400  3
   9399   9400   9404   9414     1  0.0000000  1.0460000  1
   9399   9400   9404   9414     1  0.0000000  0.6694400  3
   9399   9398   9405   9407     1  0.0000000  1.0460000  1
   9399   9398   9405   9407     1  0.0000000  0.6694400  3
   9399   9398   9396   9415     1  0.0000000  0.6508444  3
   9400   9399   9418   9408     1  0.0000000  1.2552000  3
   9400   9399   9398   9402     1  0.0000000  0.6508444  3
   9401   9399   9400   9404     1  0.0000000  1.0460000  1
   9401   9399   9400   9404     1  0.0000000  0.0000000  3
   9401   9399   9400   9413     1  0.0000000  1.0460000  1
   9401   9399   9400   9413     1  0.0000000  0.0000000  3
   9401   9399   9400   9403     1  0.0000000  0.6508444  3
   9401   9399   9418   9408     1  0.0000000  1.2552000  3
   9401   9399   9398   9405     1  0.0000000  1.0460000  1
   9401   9399   9398   9405     1  0.0000000  0.0000000  3
   9401   9399   9398   9402     1  0.0000000  0.6508444  3
   9402   9398   9399   9418     1  0.0000000  0.6508444  3
   9402   9398   9405   9407     1  0.0000000  0.6973333  3
   9402   9398   9396   9416     1  0.0000000  1.0460000  1
   9402   9398   9396   9416     1  0.0000000  0.0000000  3
   9402   9398   9396   9415     1  0.0000000  0.6508444  3
   9403   9400   9404   9414     1  0.0000000  0.6973333  3
   9403   9400   9399   9418     1  0.0000000  0.6508444  3
   9405   9398   9396   9415     1  0.0000000  1.0460000  1
   9405   9398   9396   9415     1  0.0000000  0.0000000  3
   9406   9395   9396   9415     1  0.0000000  0.6508444  3
   9409   9406   9411   9412     1  0.0000000  0.6973333  3
   9409   9406   9395   9413     1  0.0000000  1.0460000  1
   9409   9406   9395   9413     1  0.0000000  0.0000000  3
   9410   9406   9411   9412     1  0.0000000  0.6973333  3
   9410   9406   9395   9413     1  0.0000000  1.0460000  1
   9410   9406   9395   9413     1  0.0000000  0.0000000  3
   9413   9400   9404   9414     1  0.0000000  0.6973333  3
   9413   9395   9396   9415     1  0.0000000  1.0460000  1
   9413   9395   9396   9415     1  0.0000000  0.0000000  3
   9415   9396   9416   9417     1  0.0000000  0.6973333  3
   9419   9421   9423   9425     1  0.0000000  0.6508444  3
   9419   9421   9423   9426     1  0.0000000  0.6508444  3
   9420   9419   9421   9423     1  0.0000000  0.0000000  2
   9420   9419   9421   9422     1  0.0000000  0.0000000  2
   9420   9419   9421   9424     1  0.0000000  0.0000000  2
   9422   9421   9423   9427     1  0.0000000  0.6508444  3
   9422   9421   9423   9425     1  0.0000000  0.6508444  3
   9422   9421   9423   9426     1  0.0000000  0.6508444  3
   9423   9427   9428   9437     1  0.0000000  1.2552000  3
   9423   9427   9428   9438     1  0.0000000  1.2552000  3
   9423   9427   9429   9430     1  0.0000000  1.2552000  3
   9423   9427   9429   9432     1  0.0000000  1.2552000  3
   9424   9421   9423   9427     1  0.0000000  0.6508444  3
   9424   9421   9423   9425     1  0.0000000  0.6508444  3
   9424   9421   9423   9426     1  0.0000000  0.6508444  3
   9425   9423   9427   9428     1  0.0000000  1.2552000  3
   9425   9423   9427   9429     1  0.0000000  1.2552000  3
   9426   9423   9427   9428     1  0.0000000  1.2552000  3
   9426   9423   9427   9429     1  0.0000000  1.2552000  3
   9427   9428   9439   9440     1  0.0000000  0.6508444  3
   9427   9428   9439   9441     1  0.0000000  0.6508444  3
   9427   9429   9431   9433     1  0.0000000  0.6508444  3
   9427   9429   9431   9434     1  0.0000000  0.6508444  3
   9428   9427   9429   9430     1  0.0000000  1.2552000  3
   9428   9427   9429   9432     1  0.0000000  1.2552000  3
   9429   9427   9428   9437     1  0.0000000  1.2552000  3
   9429   9427   9428   9438     1  0.0000000  1.2552000  3
   9430   9429   9431   9435     1  0.0000000  0.6508444  3
   9430   9429   9431   9433     1  0.0000000  0.6508444  3
   9430   9429   9431   9434     1  0.0000000  0.6508444  3
   9431   9435   9467   9457     1  180.0000771  6.0668000  2
   9431   9435   9467   9457     1  180.0000771  1.4644000  4
   9432   9429   9431   9435     1  0.0000000  0.6508444  3
   9432   9429   9431   9433     1  0.0000000  0.6508444  3
   9432   9429   9431   9434     1  0.0000000  0.6508444  3
   9433   9431   9435   9436     1  0.0000000  3.3472000  1
   9433   9431   9435   9436     1  0.0000000  0.0000000  2
   9433   9431   9435   9436     1  180.0000771  0.3347200  3
   9433   9431   9435   9467     1  180.0000771  0.0000000  2
   9434   9431   9435   9436     1  0.0000000  3.3472000  1
   9434   9431   9435   9436     1  0.0000000  0.0000000  2
   9434   9431   9435   9436     1  180.0000771  0.3347200  3
   9434   9431   9435   9467     1  180.0000771  0.0000000  2
   9435   9467   9448   9450     1  0.0000000  1.2552000  3
   9436   9435   9467   9457     1  180.0000771  6.0668000  2
   9436   9435   9467   9457     1  180.0000771  1.4644000  4
   9437   9428   9439   9442     1  0.0000000  0.6508444  3
   9437   9428   9439   9440     1  0.0000000  0.6508444  3
   9437   9428   9439   9441     1  0.0000000  0.6508444  3
   9438   9428   9439   9442     1  0.0000000  0.6508444  3
   9438   9428   9439   9440     1  0.0000000  0.6508444  3
   9438   9428   9439   9441     1  0.0000000  0.6508444  3
   9439   9442   9491   9481     1  180.0000771  6.0668000  2
   9439   9442   9491   9481     1  180.0000771  1.4644000  4
   9440   9439   9442   9443     1  0.0000000  3.3472000  1
   9440   9439   9442   9443     1  0.0000000  0.0000000  2
   9440   9439   9442   9443     1  180.0000771  0.3347200  3
   9440   9439   9442   9491     1  180.0000771  0.0000000  2
   9441   9439   9442   9443     1  0.0000000  3.3472000  1
   9441   9439   9442   9443     1  0.0000000  0.0000000  2
   9441   9439   9442   9443     1  180.0000771  0.3347200  3
   9441   9439   9442   9491     1  180.0000771  0.0000000  2
   9442   9491   9472   9474     1  0.0000000  1.2552000  3
   9443   9442   9491   9481     1  180.0000771  6.0668000  2
   9443   9442   9491   9481     1  180.0000771  1.4644000  4
   9444   9445   9447   9451     1  0.0000000  0.6508444  3
   9444   9445   9465   9466     1  0.0000000  1.0460000  1
   9444   9445   9465   9466     1  0.0000000  0.6694400  3
   9444   9455   9460   9461     1  0.0000000  1.0460000  1
   9444   9455   9460   9461     1  0.0000000  0.6694400  3
   9444   9462   9449   9452     1  0.0000000  1.6038667  3
   9445   9444   9455   9458     1  0.0000000  0.6508444  3
   9445   9444   9455   9459     1  0.0000000  0.6508444  3
   9445   9447   9448   9450     1  0.0000000  0.6508444  3
   9445   9447   9454   9456     1  0.0000000  1.0460000  1
   9445   9447   9454   9456     1  0.0000000  0.6694400  3
   9446   9444   9445   9447     1  0.0000000  0.6508444  3
   9446   9444   9445   9465     1  0.0000000  1.0460000  1
   9446   9444   9445   9465     1  0.0000000  0.0000000  3
   9446   9444   9445   9464     1  0.0000000  0.6508444  3
   9446   9444   9455   9460     1  0.0000000  1.0460000  1
   9446   9444   9455   9460     1  0.0000000  0.0000000  3
   9446   9444   9455   9458     1  0.0000000  0.6508444  3
   9446   9444   9455   9459     1  0.0000000  0.6508444  3
   9446   9444   9462   9449     1  0.0000000  1.6038667  3
   9447   9445   9465   9466     1  0.0000000  1.0460000  1
   9447   9445   9465   9466     1  0.0000000  0.6694400  3
   9447   9448   9449   9452     1  0.0000000  0.6508444  3
   9447   9448   9467   9457     1  0.0000000  1.2552000  3
   9448   9447   9445   9464     1  0.0000000  0.6508444  3
   9448   9447   9454   9456     1  0.0000000  1.0460000  1
   9448   9447   9454   9456     1  0.0000000  0.6694400  3
   9448   9449   9453   9463     1  0.0000000  1.0460000  1
   9448   9449   9453   9463     1  0.0000000  0.6694400  3
   9449   9448   9447   9451     1  0.0000000  0.6508444  3
   9449   9448   9467   9457     1  0.0000000  1.2552000  3
   9450   9448   9447   9454     1  0.0000000  1.0460000  1
   9450   9448   9447   9454     1  0.0000000  0.0000000  3
   9450   9448   9447   9451     1  0.0000000  0.6508444  3
   9450   9448   9449   9453     1  0.0000000  1.0460000  1
   9450   9448   9449   9453     1  0.0000000  0.0000000  3
   9450   9448   9449   9462     1  0.0000000  1.0460000  1
   9450   9448   9449   9462     1  0.0000000  0.0000000  3
   9450   9448   9449   9452     1  0.0000000  0.6508444  3
   9450   9448   9467   9457     1  0.0000000  1.2552000  3
   9451   9447   9445   9465     1  0.0000000  1.0460000  1
   9451   9447   9445   9465     1  0.0000000  0.0000000  3
   9451   9447   9445   9464     1  0.0000000  0.6508444  3
   9451   9447   9448   9467     1  0.0000000  0.6508444  3
   9451   9447   9454   9456     1  0.0000000  0.6973333  3
   9452   9449   9448   9467     1  0.0000000  0.6508444  3
   9452   9449   9453   9463     1  0.0000000  0.6973333  3
   9454   9447   9445   9464     1  0.0000000  1.0460000  1
   9454   9447   9445   9464     1  0.0000000  0.0000000  3
   9455   9444   9445   9464     1  0.0000000  0.6508444  3
   9458   9455   9444   9462     1  0.0000000  1.0460000  1
   9458   9455   9444   9462     1  0.0000000  0.0000000  3
   9458   9455   9460   9461     1  0.0000000  0.6973333  3
   9459   9455   9444   9462     1  0.0000000  1.0460000  1
   9459   9455   9444   9462     1  0.0000000  0.0000000  3
   9459   9455   9460   9461     1  0.0000000  0.6973333  3
   9462   9444   9445   9464     1  0.0000000  1.0460000  1
   9462   9444   9445   9464     1  0.0000000  0.0000000  3
   9462   9449   9453   9463     1  0.0000000  0.6973333  3
   9464   9445   9465   9466     1  0.0000000  0.6973333  3
   9468   9469   9471   9475     1  0.0000000  0.6508444  3
   9468   9469   9489   9490     1  0.0000000  1.0460000  1
   9468   9469   9489   9490     1  0.0000000  0.6694400  3
   9468   9479   9484   9485     1  0.0000000  1.0460000  1
   9468   9479   9484   9485     1  0.0000000  0.6694400  3
   9468   9486   9473   9476     1  0.0000000  1.6038667  3
   9469   9468   9479   9482     1  0.0000000  0.6508444  3
   9469   9468   9479   9483     1  0.0000000  0.6508444  3
   9469   9471   9472   9474     1  0.0000000  0.6508444  3
   9469   9471   9478   9480     1  0.0000000  1.0460000  1
   9469   9471   9478   9480     1  0.0000000  0.6694400  3
   9470   9468   9469   9471     1  0.0000000  0.6508444  3
   9470   9468   9469   9489     1  0.0000000  1.0460000  1
   9470   9468   9469   9489     1  0.0000000  0.0000000  3
   9470   9468   9469   9488     1  0.0000000  0.6508444  3
   9470   9468   9479   9484     1  0.0000000  1.0460000  1
   9470   9468   9479   9484     1  0.0000000  0.0000000  3
   9470   9468   9479   9482     1  0.0000000  0.6508444  3
   9470   9468   9479   9483     1  0.0000000  0.6508444  3
   9470   9468   9486   9473     1  0.0000000  1.6038667  3
   9471   9469   9489   9490     1  0.0000000  1.0460000  1
   9471   9469   9489   9490     1  0.0000000  0.6694400  3
   9471   9472   9473   9476     1  0.0000000  0.6508444  3
   9471   9472   9491   9481     1  0.0000000  1.2552000  3
   9472   9471   9469   9488     1  0.0000000  0.6508444  3
   9472   9471   9478   9480     1  0.0000000  1.0460000  1
   9472   9471   9478   9480     1  0.0000000  0.6694400  3
   9472   9473   9477   9487     1  0.0000000  1.0460000  1
   9472   9473   9477   9487     1  0.0000000  0.6694400  3
   9473   9472   9471   9475     1  0.0000000  0.6508444  3
   9473   9472   9491   9481     1  0.0000000  1.2552000  3
   9474   9472   9471   9478     1  0.0000000  1.0460000  1
   9474   9472   9471   9478     1  0.0000000  0.0000000  3
   9474   9472   9471   9475     1  0.0000000  0.6508444  3
   9474   9472   9473   9477     1  0.0000000  1.0460000  1
   9474   9472   9473   9477     1  0.0000000  0.0000000  3
   9474   9472   9473   9486     1  0.0000000  1.0460000  1
   9474   9472   9473   9486     1  0.0000000  0.0000000  3
   9474   9472   9473   9476     1  0.0000000  0.6508444  3
   9474   9472   9491   9481     1  0.0000000  1.2552000  3
   9475   9471   9469   9489     1  0.0000000  1.0460000  1
   9475   9471   9469   9489     1  0.0000000  0.0000000  3
   9475   9471   9469   9488     1  0.0000000  0.6508444  3
   9475   9471   9472   9491     1  0.0000000  0.6508444  3
   9475   9471   9478   9480     1  0.0000000  0.6973333  3
   9476   9473   9472   9491     1  0.0000000  0.6508444  3
   9476   9473   9477   9487     1  0.0000000  0.6973333  3
   9478   9471   9469   9488     1  0.0000000  1.0460000  1
   9478   9471   9469   9488     1  0.0000000  0.0000000  3
   9479   9468   9469   9488     1  0.0000000  0.6508444  3
   9482   9479   9468   9486     1  0.0000000  1.0460000  1
   9482   9479   9468   9486     1  0.0000000  0.0000000  3
   9482   9479   9484   9485     1  0.0000000  0.6973333  3
   9483   9479   9468   9486     1  0.0000000  1.0460000  1
   9483   9479   9468   9486     1  0.0000000  0.0000000  3
   9483   9479   9484   9485     1  0.0000000  0.6973333  3
   9486   9468   9469   9488     1  0.0000000  1.0460000  1
   9486   9468   9469   9488     1  0.0000000  0.0000000  3
   9486   9473   9477   9487     1  0.0000000  0.6973333  3
   9488   9469   9489   9490     1  0.0000000  0.6973333  3
   9492   9494   9496   9498     1  0.0000000  0.6508444  3
   9492   9494   9496   9499     1  0.0000000  0.6508444  3
   9493   9492   9494   9496     1  0.0000000  0.0000000  2
   9493   9492   9494   9495     1  0.0000000  0.0000000  2
   9493   9492   9494   9497     1  0.0000000  0.0000000  2
   9495   9494   9496   9500     1  0.0000000  0.6508444  3
   9495   9494   9496   9498     1  0.0000000  0.6508444  3
   9495   9494   9496   9499     1  0.0000000  0.6508444  3
   9496   9500   9501   9510     1  0.0000000  1.2552000  3
   9496   9500   9501   9511     1  0.0000000  1.2552000  3
   9496   9500   9502   9503     1  0.0000000  1.2552000  3
   9496   9500   9502   9505     1  0.0000000  1.2552000  3
   9497   9494   9496   9500     1  0.0000000  0.6508444  3
   9497   9494   9496   9498     1  0.0000000  0.6508444  3
   9497   9494   9496   9499     1  0.0000000  0.6508444  3
   9498   9496   9500   9501     1  0.0000000  1.2552000  3
   9498   9496   9500   9502     1  0.0000000  1.2552000  3
   9499   9496   9500   9501     1  0.0000000  1.2552000  3
   9499   9496   9500   9502     1  0.0000000  1.2552000  3
   9500   9501   9512   9513     1  0.0000000  0.6508444  3
   9500   9501   9512   9514     1  0.0000000  0.6508444  3
   9500   9502   9504   9506     1  0.0000000  0.6508444  3
   9500   9502   9504   9507     1  0.0000000  0.6508444  3
   9501   9500   9502   9503     1  0.0000000  1.2552000  3
   9501   9500   9502   9505     1  0.0000000  1.2552000  3
   9502   9500   9501   9510     1  0.0000000  1.2552000  3
   9502   9500   9501   9511     1  0.0000000  1.2552000  3
   9503   9502   9504   9508     1  0.0000000  0.6508444  3
   9503   9502   9504   9506     1  0.0000000  0.6508444  3
   9503   9502   9504   9507     1  0.0000000  0.6508444  3
   9504   9508   9540   9530     1  180.0000771  6.0668000  2
   9504   9508   9540   9530     1  180.0000771  1.4644000  4
   9505   9502   9504   9508     1  0.0000000  0.6508444  3
   9505   9502   9504   9506     1  0.0000000  0.6508444  3
   9505   9502   9504   9507     1  0.0000000  0.6508444  3
   9506   9504   9508   9509     1  0.0000000  3.3472000  1
   9506   9504   9508   9509     1  0.0000000  0.0000000  2
   9506   9504   9508   9509     1  180.0000771  0.3347200  3
   9506   9504   9508   9540     1  180.0000771  0.0000000  2
   9507   9504   9508   9509     1  0.0000000  3.3472000  1
   9507   9504   9508   9509     1  0.0000000  0.0000000  2
   9507   9504   9508   9509     1  180.0000771  0.3347200  3
   9507   9504   9508   9540     1  180.0000771  0.0000000  2
   9508   9540   9521   9523     1  0.0000000  1.2552000  3
   9509   9508   9540   9530     1  180.0000771  6.0668000  2
   9509   9508   9540   9530     1  180.0000771  1.4644000  4
   9510   9501   9512   9515     1  0.0000000  0.6508444  3
   9510   9501   9512   9513     1  0.0000000  0.6508444  3
   9510   9501   9512   9514     1  0.0000000  0.6508444  3
   9511   9501   9512   9515     1  0.0000000  0.6508444  3
   9511   9501   9512   9513     1  0.0000000  0.6508444  3
   9511   9501   9512   9514     1  0.0000000  0.6508444  3
   9512   9515   9564   9554     1  180.0000771  6.0668000  2
   9512   9515   9564   9554     1  180.0000771  1.4644000  4
   9513   9512   9515   9516     1  0.0000000  3.3472000  1
   9513   9512   9515   9516     1  0.0000000  0.0000000  2
   9513   9512   9515   9516     1  180.0000771  0.3347200  3
   9513   9512   9515   9564     1  180.0000771  0.0000000  2
   9514   9512   9515   9516     1  0.0000000  3.3472000  1
   9514   9512   9515   9516     1  0.0000000  0.0000000  2
   9514   9512   9515   9516     1  180.0000771  0.3347200  3
   9514   9512   9515   9564     1  180.0000771  0.0000000  2
   9515   9564   9545   9547     1  0.0000000  1.2552000  3
   9516   9515   9564   9554     1  180.0000771  6.0668000  2
   9516   9515   9564   9554     1  180.0000771  1.4644000  4
   9517   9518   9520   9524     1  0.0000000  0.6508444  3
   9517   9518   9538   9539     1  0.0000000  1.0460000  1
   9517   9518   9538   9539     1  0.0000000  0.6694400  3
   9517   9528   9533   9534     1  0.0000000  1.0460000  1
   9517   9528   9533   9534     1  0.0000000  0.6694400  3
   9517   9535   9522   9525     1  0.0000000  1.6038667  3
   9518   9520   9521   9523     1  0.0000000  0.6508444  3
   9518   9520   9527   9529     1  0.0000000  1.0460000  1
   9518   9520   9527   9529     1  0.0000000  0.6694400  3
   9518   9517   9528   9531     1  0.0000000  0.6508444  3
   9518   9517   9528   9532     1  0.0000000  0.6508444  3
   9519   9517   9518   9520     1  0.0000000  0.6508444  3
   9519   9517   9518   9538     1  0.0000000  1.0460000  1
   9519   9517   9518   9538     1  0.0000000  0.0000000  3
   9519   9517   9518   9537     1  0.0000000  0.6508444  3
   9519   9517   9528   9533     1  0.0000000  1.0460000  1
   9519   9517   9528   9533     1  0.0000000  0.0000000  3
   9519   9517   9528   9531     1  0.0000000  0.6508444  3
   9519   9517   9528   9532     1  0.0000000  0.6508444  3
   9519   9517   9535   9522     1  0.0000000  1.6038667  3
   9520   9521   9522   9525     1  0.0000000  0.6508444  3
   9520   9521   9540   9530     1  0.0000000  1.2552000  3
   9520   9518   9538   9539     1  0.0000000  1.0460000  1
   9520   9518   9538   9539     1  0.0000000  0.6694400  3
   9521   9522   9526   9536     1  0.0000000  1.0460000  1
   9521   9522   9526   9536     1  0.0000000  0.6694400  3
   9521   9520   9527   9529     1  0.0000000  1.0460000  1
   9521   9520   9527   9529     1  0.0000000  0.6694400  3
   9521   9520   9518   9537     1  0.0000000  0.6508444  3
   9522   9521   9540   9530     1  0.0000000  1.2552000  3
   9522   9521   9520   9524     1  0.0000000  0.6508444  3
   9523   9521   9522   9526     1  0.0000000  1.0460000  1
   9523   9521   9522   9526     1  0.0000000  0.0000000  3
   9523   9521   9522   9535     1  0.0000000  1.0460000  1
   9523   9521   9522   9535     1  0.0000000  0.0000000  3
   9523   9521   9522   9525     1  0.0000000  0.6508444  3
   9523   9521   9540   9530     1  0.0000000  1.2552000  3
   9523   9521   9520   9527     1  0.0000000  1.0460000  1
   9523   9521   9520   9527     1  0.0000000  0.0000000  3
   9523   9521   9520   9524     1  0.0000000  0.6508444  3
   9524   9520   9521   9540     1  0.0000000  0.6508444  3
   9524   9520   9527   9529     1  0.0000000  0.6973333  3
   9524   9520   9518   9538     1  0.0000000  1.0460000  1
   9524   9520   9518   9538     1  0.0000000  0.0000000  3
   9524   9520   9518   9537     1  0.0000000  0.6508444  3
   9525   9522   9526   9536     1  0.0000000  0.6973333  3
   9525   9522   9521   9540     1  0.0000000  0.6508444  3
   9527   9520   9518   9537     1  0.0000000  1.0460000  1
   9527   9520   9518   9537     1  0.0000000  0.0000000  3
   9528   9517   9518   9537     1  0.0000000  0.6508444  3
   9531   9528   9533   9534     1  0.0000000  0.6973333  3
   9531   9528   9517   9535     1  0.0000000  1.0460000  1
   9531   9528   9517   9535     1  0.0000000  0.0000000  3
   9532   9528   9533   9534     1  0.0000000  0.6973333  3
   9532   9528   9517   9535     1  0.0000000  1.0460000  1
   9532   9528   9517   9535     1  0.0000000  0.0000000  3
   9535   9522   9526   9536     1  0.0000000  0.6973333  3
   9535   9517   9518   9537     1  0.0000000  1.0460000  1
   9535   9517   9518   9537     1  0.0000000  0.0000000  3
   9537   9518   9538   9539     1  0.0000000  0.6973333  3
   9541   9542   9544   9548     1  0.0000000  0.6508444  3
   9541   9542   9562   9563     1  0.0000000  1.0460000  1
   9541   9542   9562   9563     1  0.0000000  0.6694400  3
   9541   9552   9557   9558     1  0.0000000  1.0460000  1
   9541   9552   9557   9558     1  0.0000000  0.6694400  3
   9541   9559   9546   9549     1  0.0000000  1.6038667  3
   9542   9544   9545   9547     1  0.0000000  0.6508444  3
   9542   9544   9551   9553     1  0.0000000  1.0460000  1
   9542   9544   9551   9553     1  0.0000000  0.6694400  3
   9542   9541   9552   9555     1  0.0000000  0.6508444  3
   9542   9541   9552   9556     1  0.0000000  0.6508444  3
   9543   9541   9542   9544     1  0.0000000  0.6508444  3
   9543   9541   9542   9562     1  0.0000000  1.0460000  1
   9543   9541   9542   9562     1  0.0000000  0.0000000  3
   9543   9541   9542   9561     1  0.0000000  0.6508444  3
   9543   9541   9552   9557     1  0.0000000  1.0460000  1
   9543   9541   9552   9557     1  0.0000000  0.0000000  3
   9543   9541   9552   9555     1  0.0000000  0.6508444  3
   9543   9541   9552   9556     1  0.0000000  0.6508444  3
   9543   9541   9559   9546     1  0.0000000  1.6038667  3
   9544   9545   9546   9549     1  0.0000000  0.6508444  3
   9544   9545   9564   9554     1  0.0000000  1.2552000  3
   9544   9542   9562   9563     1  0.0000000  1.0460000  1
   9544   9542   9562   9563     1  0.0000000  0.6694400  3
   9545   9546   9550   9560     1  0.0000000  1.0460000  1
   9545   9546   9550   9560     1  0.0000000  0.6694400  3
   9545   9544   9551   9553     1  0.0000000  1.0460000  1
   9545   9544   9551   9553     1  0.0000000  0.6694400  3
   9545   9544   9542   9561     1  0.0000000  0.6508444  3
   9546   9545   9564   9554     1  0.0000000  1.2552000  3
   9546   9545   9544   9548     1  0.0000000  0.6508444  3
   9547   9545   9546   9550     1  0.0000000  1.0460000  1
   9547   9545   9546   9550     1  0.0000000  0.0000000  3
   9547   9545   9546   9559     1  0.0000000  1.0460000  1
   9547   9545   9546   9559     1  0.0000000  0.0000000  3
   9547   9545   9546   9549     1  0.0000000  0.6508444  3
   9547   9545   9564   9554     1  0.0000000  1.2552000  3
   9547   9545   9544   9551     1  0.0000000  1.0460000  1
   9547   9545   9544   9551     1  0.0000000  0.0000000  3
   9547   9545   9544   9548     1  0.0000000  0.6508444  3
   9548   9544   9545   9564     1  0.0000000  0.6508444  3
   9548   9544   9551   9553     1  0.0000000  0.6973333  3
   9548   9544   9542   9562     1  0.0000000  1.0460000  1
   9548   9544   9542   9562     1  0.0000000  0.0000000  3
   9548   9544   9542   9561     1  0.0000000  0.6508444  3
   9549   9546   9550   9560     1  0.0000000  0.6973333  3
   9549   9546   9545   9564     1  0.0000000  0.6508444  3
   9551   9544   9542   9561     1  0.0000000  1.0460000  1
   9551   9544   9542   9561     1  0.0000000  0.0000000  3
   9552   9541   9542   9561     1  0.0000000  0.6508444  3
   9555   9552   9557   9558     1  0.0000000  0.6973333  3
   9555   9552   9541   9559     1  0.0000000  1.0460000  1
   9555   9552   9541   9559     1  0.0000000  0.0000000  3
   9556   9552   9557   9558     1  0.0000000  0.6973333  3
   9556   9552   9541   9559     1  0.0000000  1.0460000  1
   9556   9552   9541   9559     1  0.0000000  0.0000000  3
   9559   9546   9550   9560     1  0.0000000  0.6973333  3
   9559   9541   9542   9561     1  0.0000000  1.0460000  1
   9559   9541   9542   9561     1  0.0000000  0.0000000  3
   9561   9542   9562   9563     1  0.0000000  0.6973333  3
   9565   9567   9569   9571     1  0.0000000  0.6508444  3
   9565   9567   9569   9572     1  0.0000000  0.6508444  3
   9566   9565   9567   9569     1  0.0000000  0.0000000  2
   9566   9565   9567   9568     1  0.0000000  0.0000000  2
   9566   9565   9567   9570     1  0.0000000  0.0000000  2
   9568   9567   9569   9573     1  0.0000000  0.6508444  3
   9568   9567   9569   9571     1  0.0000000  0.6508444  3
   9568   9567   9569   9572     1  0.0000000  0.6508444  3
   9569   9573   9574   9583     1  0.0000000  1.2552000  3
   9569   9573   9574   9584     1  0.0000000  1.2552000  3
   9569   9573   9575   9576     1  0.0000000  1.2552000  3
   9569   9573   9575   9578     1  0.0000000  1.2552000  3
   9570   9567   9569   9573     1  0.0000000  0.6508444  3
   9570   9567   9569   9571     1  0.0000000  0.6508444  3
   9570   9567   9569   9572     1  0.0000000  0.6508444  3
   9571   9569   9573   9574     1  0.0000000  1.2552000  3
   9571   9569   9573   9575     1  0.0000000  1.2552000  3
   9572   9569   9573   9574     1  0.0000000  1.2552000  3
   9572   9569   9573   9575     1  0.0000000  1.2552000  3
   9573   9574   9585   9586     1  0.0000000  0.6508444  3
   9573   9574   9585   9587     1  0.0000000  0.6508444  3
   9573   9575   9577   9579     1  0.0000000  0.6508444  3
   9573   9575   9577   9580     1  0.0000000  0.6508444  3
   9574   9573   9575   9576     1  0.0000000  1.2552000  3
   9574   9573   9575   9578     1  0.0000000  1.2552000  3
   9575   9573   9574   9583     1  0.0000000  1.2552000  3
   9575   9573   9574   9584     1  0.0000000  1.2552000  3
   9576   9575   9577   9581     1  0.0000000  0.6508444  3
   9576   9575   9577   9579     1  0.0000000  0.6508444  3
   9576   9575   9577   9580     1  0.0000000  0.6508444  3
   9577   9581   9613   9603     1  180.0000771  6.0668000  2
   9577   9581   9613   9603     1  180.0000771  1.4644000  4
   9578   9575   9577   9581     1  0.0000000  0.6508444  3
   9578   9575   9577   9579     1  0.0000000  0.6508444  3
   9578   9575   9577   9580     1  0.0000000  0.6508444  3
   9579   9577   9581   9582     1  0.0000000  3.3472000  1
   9579   9577   9581   9582     1  0.0000000  0.0000000  2
   9579   9577   9581   9582     1  180.0000771  0.3347200  3
   9579   9577   9581   9613     1  180.0000771  0.0000000  2
   9580   9577   9581   9582     1  0.0000000  3.3472000  1
   9580   9577   9581   9582     1  0.0000000  0.0000000  2
   9580   9577   9581   9582     1  180.0000771  0.3347200  3
   9580   9577   9581   9613     1  180.0000771  0.0000000  2
   9581   9613   9594   9596     1  0.0000000  1.2552000  3
   9582   9581   9613   9603     1  180.0000771  6.0668000  2
   9582   9581   9613   9603     1  180.0000771  1.4644000  4
   9583   9574   9585   9588     1  0.0000000  0.6508444  3
   9583   9574   9585   9586     1  0.0000000  0.6508444  3
   9583   9574   9585   9587     1  0.0000000  0.6508444  3
   9584   9574   9585   9588     1  0.0000000  0.6508444  3
   9584   9574   9585   9586     1  0.0000000  0.6508444  3
   9584   9574   9585   9587     1  0.0000000  0.6508444  3
   9585   9588   9637   9627     1  180.0000771  6.0668000  2
   9585   9588   9637   9627     1  180.0000771  1.4644000  4
   9586   9585   9588   9589     1  0.0000000  3.3472000  1
   9586   9585   9588   9589     1  0.0000000  0.0000000  2
   9586   9585   9588   9589     1  180.0000771  0.3347200  3
   9586   9585   9588   9637     1  180.0000771  0.0000000  2
   9587   9585   9588   9589     1  0.0000000  3.3472000  1
   9587   9585   9588   9589     1  0.0000000  0.0000000  2
   9587   9585   9588   9589     1  180.0000771  0.3347200  3
   9587   9585   9588   9637     1  180.0000771  0.0000000  2
   9588   9637   9618   9620     1  0.0000000  1.2552000  3
   9589   9588   9637   9627     1  180.0000771  6.0668000  2
   9589   9588   9637   9627     1  180.0000771  1.4644000  4
   9590   9591   9593   9597     1  0.0000000  0.6508444  3
   9590   9591   9611   9612     1  0.0000000  1.0460000  1
   9590   9591   9611   9612     1  0.0000000  0.6694400  3
   9590   9601   9606   9607     1  0.0000000  1.0460000  1
   9590   9601   9606   9607     1  0.0000000  0.6694400  3
   9590   9608   9595   9598     1  0.0000000  1.6038667  3
   9591   9590   9601   9604     1  0.0000000  0.6508444  3
   9591   9590   9601   9605     1  0.0000000  0.6508444  3
   9591   9593   9594   9596     1  0.0000000  0.6508444  3
   9591   9593   9600   9602     1  0.0000000  1.0460000  1
   9591   9593   9600   9602     1  0.0000000  0.6694400  3
   9592   9590   9591   9593     1  0.0000000  0.6508444  3
   9592   9590   9591   9611     1  0.0000000  1.0460000  1
   9592   9590   9591   9611     1  0.0000000  0.0000000  3
   9592   9590   9591   9610     1  0.0000000  0.6508444  3
   9592   9590   9601   9606     1  0.0000000  1.0460000  1
   9592   9590   9601   9606     1  0.0000000  0.0000000  3
   9592   9590   9601   9604     1  0.0000000  0.6508444  3
   9592   9590   9601   9605     1  0.0000000  0.6508444  3
   9592   9590   9608   9595     1  0.0000000  1.6038667  3
   9593   9591   9611   9612     1  0.0000000  1.0460000  1
   9593   9591   9611   9612     1  0.0000000  0.6694400  3
   9593   9594   9595   9598     1  0.0000000  0.6508444  3
   9593   9594   9613   9603     1  0.0000000  1.2552000  3
   9594   9593   9591   9610     1  0.0000000  0.6508444  3
   9594   9593   9600   9602     1  0.0000000  1.0460000  1
   9594   9593   9600   9602     1  0.0000000  0.6694400  3
   9594   9595   9599   9609     1  0.0000000  1.0460000  1
   9594   9595   9599   9609     1  0.0000000  0.6694400  3
   9595   9594   9593   9597     1  0.0000000  0.6508444  3
   9595   9594   9613   9603     1  0.0000000  1.2552000  3
   9596   9594   9593   9600     1  0.0000000  1.0460000  1
   9596   9594   9593   9600     1  0.0000000  0.0000000  3
   9596   9594   9593   9597     1  0.0000000  0.6508444  3
   9596   9594   9595   9599     1  0.0000000  1.0460000  1
   9596   9594   9595   9599     1  0.0000000  0.0000000  3
   9596   9594   9595   9608     1  0.0000000  1.0460000  1
   9596   9594   9595   9608     1  0.0000000  0.0000000  3
   9596   9594   9595   9598     1  0.0000000  0.6508444  3
   9596   9594   9613   9603     1  0.0000000  1.2552000  3
   9597   9593   9591   9611     1  0.0000000  1.0460000  1
   9597   9593   9591   9611     1  0.0000000  0.0000000  3
   9597   9593   9591   9610     1  0.0000000  0.6508444  3
   9597   9593   9594   9613     1  0.0000000  0.6508444  3
   9597   9593   9600   9602     1  0.0000000  0.6973333  3
   9598   9595   9594   9613     1  0.0000000  0.6508444  3
   9598   9595   9599   9609     1  0.0000000  0.6973333  3
   9600   9593   9591   9610     1  0.0000000  1.0460000  1
   9600   9593   9591   9610     1  0.0000000  0.0000000  3
   9601   9590   9591   9610     1  0.0000000  0.6508444  3
   9604   9601   9590   9608     1  0.0000000  1.0460000  1
   9604   9601   9590   9608     1  0.0000000  0.0000000  3
   9604   9601   9606   9607     1  0.0000000  0.6973333  3
   9605   9601   9590   9608     1  0.0000000  1.0460000  1
   9605   9601   9590   9608     1  0.0000000  0.0000000  3
   9605   9601   9606   9607     1  0.0000000  0.6973333  3
   9608   9590   9591   9610     1  0.0000000  1.0460000  1
   9608   9590   9591   9610     1  0.0000000  0.0000000  3
   9608   9595   9599   9609     1  0.0000000  0.6973333  3
   9610   9591   9611   9612     1  0.0000000  0.6973333  3
   9614   9615   9617   9621     1  0.0000000  0.6508444  3
   9614   9615   9635   9636     1  0.0000000  1.0460000  1
   9614   9615   9635   9636     1  0.0000000  0.6694400  3
   9614   9625   9630   9631     1  0.0000000  1.0460000  1
   9614   9625   9630   9631     1  0.0000000  0.6694400  3
   9614   9632   9619   9622     1  0.0000000  1.6038667  3
   9615   9614   9625   9628     1  0.0000000  0.6508444  3
   9615   9614   9625   9629     1  0.0000000  0.6508444  3
   9615   9617   9618   9620     1  0.0000000  0.6508444  3
   9615   9617   9624   9626     1  0.0000000  1.0460000  1
   9615   9617   9624   9626     1  0.0000000  0.6694400  3
   9616   9614   9615   9617     1  0.0000000  0.6508444  3
   9616   9614   9615   9635     1  0.0000000  1.0460000  1
   9616   9614   9615   9635     1  0.0000000  0.0000000  3
   9616   9614   9615   9634     1  0.0000000  0.6508444  3
   9616   9614   9625   9630     1  0.0000000  1.0460000  1
   9616   9614   9625   9630     1  0.0000000  0.0000000  3
   9616   9614   9625   9628     1  0.0000000  0.6508444  3
   9616   9614   9625   9629     1  0.0000000  0.6508444  3
   9616   9614   9632   9619     1  0.0000000  1.6038667  3
   9617   9615   9635   9636     1  0.0000000  1.0460000  1
   9617   9615   9635   9636     1  0.0000000  0.6694400  3
   9617   9618   9619   9622     1  0.0000000  0.6508444  3
   9617   9618   9637   9627     1  0.0000000  1.2552000  3
   9618   9617   9615   9634     1  0.0000000  0.6508444  3
   9618   9617   9624   9626     1  0.0000000  1.0460000  1
   9618   9617   9624   9626     1  0.0000000  0.6694400  3
   9618   9619   9623   9633     1  0.0000000  1.0460000  1
   9618   9619   9623   9633     1  0.0000000  0.6694400  3
   9619   9618   9617   9621     1  0.0000000  0.6508444  3
   9619   9618   9637   9627     1  0.0000000  1.2552000  3
   9620   9618   9617   9624     1  0.0000000  1.0460000  1
   9620   9618   9617   9624     1  0.0000000  0.0000000  3
   9620   9618   9617   9621     1  0.0000000  0.6508444  3
   9620   9618   9619   9623     1  0.0000000  1.0460000  1
   9620   9618   9619   9623     1  0.0000000  0.0000000  3
   9620   9618   9619   9632     1  0.0000000  1.0460000  1
   9620   9618   9619   9632     1  0.0000000  0.0000000  3
   9620   9618   9619   9622     1  0.0000000  0.6508444  3
   9620   9618   9637   9627     1  0.0000000  1.2552000  3
   9621   9617   9615   9635     1  0.0000000  1.0460000  1
   9621   9617   9615   9635     1  0.0000000  0.0000000  3
   9621   9617   9615   9634     1  0.0000000  0.6508444  3
   9621   9617   9618   9637     1  0.0000000  0.6508444  3
   9621   9617   9624   9626     1  0.0000000  0.6973333  3
   9622   9619   9618   9637     1  0.0000000  0.6508444  3
   9622   9619   9623   9633     1  0.0000000  0.6973333  3
   9624   9617   9615   9634     1  0.0000000  1.0460000  1
   9624   9617   9615   9634     1  0.0000000  0.0000000  3
   9625   9614   9615   9634     1  0.0000000  0.6508444  3
   9628   9625   9614   9632     1  0.0000000  1.0460000  1
   9628   9625   9614   9632     1  0.0000000  0.0000000  3
   9628   9625   9630   9631     1  0.0000000  0.6973333  3
   9629   9625   9614   9632     1  0.0000000  1.0460000  1
   9629   9625   9614   9632     1  0.0000000  0.0000000  3
   9629   9625   9630   9631     1  0.0000000  0.6973333  3
   9632   9614   9615   9634     1  0.0000000  1.0460000  1
   9632   9614   9615   9634     1  0.0000000  0.0000000  3
   9632   9619   9623   9633     1  0.0000000  0.6973333  3
   9634   9615   9635   9636     1  0.0000000  0.6973333  3
   9638   9640   9642   9644     1  0.0000000  0.6508444  3
   9638   9640   9642   9645     1  0.0000000  0.6508444  3
   9639   9638   9640   9642     1  0.0000000  0.0000000  2
   9639   9638   9640   9641     1  0.0000000  0.0000000  2
   9639   9638   9640   9643     1  0.0000000  0.0000000  2
   9641   9640   9642   9646     1  0.0000000  0.6508444  3
   9641   9640   9642   9644     1  0.0000000  0.6508444  3
   9641   9640   9642   9645     1  0.0000000  0.6508444  3
   9642   9646   9647   9656     1  0.0000000  1.2552000  3
   9642   9646   9647   9657     1  0.0000000  1.2552000  3
   9642   9646   9648   9649     1  0.0000000  1.2552000  3
   9642   9646   9648   9651     1  0.0000000  1.2552000  3
   9643   9640   9642   9646     1  0.0000000  0.6508444  3
   9643   9640   9642   9644     1  0.0000000  0.6508444  3
   9643   9640   9642   9645     1  0.0000000  0.6508444  3
   9644   9642   9646   9647     1  0.0000000  1.2552000  3
   9644   9642   9646   9648     1  0.0000000  1.2552000  3
   9645   9642   9646   9647     1  0.0000000  1.2552000  3
   9645   9642   9646   9648     1  0.0000000  1.2552000  3
   9646   9647   9658   9659     1  0.0000000  0.6508444  3
   9646   9647   9658   9660     1  0.0000000  0.6508444  3
   9646   9648   9650   9652     1  0.0000000  0.6508444  3
   9646   9648   9650   9653     1  0.0000000  0.6508444  3
   9647   9646   9648   9649     1  0.0000000  1.2552000  3
   9647   9646   9648   9651     1  0.0000000  1.2552000  3
   9648   9646   9647   9656     1  0.0000000  1.2552000  3
   9648   9646   9647   9657     1  0.0000000  1.2552000  3
   9649   9648   9650   9654     1  0.0000000  0.6508444  3
   9649   9648   9650   9652     1  0.0000000  0.6508444  3
   9649   9648   9650   9653     1  0.0000000  0.6508444  3
   9650   9654   9686   9676     1  180.0000771  6.0668000  2
   9650   9654   9686   9676     1  180.0000771  1.4644000  4
   9651   9648   9650   9654     1  0.0000000  0.6508444  3
   9651   9648   9650   9652     1  0.0000000  0.6508444  3
   9651   9648   9650   9653     1  0.0000000  0.6508444  3
   9652   9650   9654   9655     1  0.0000000  3.3472000  1
   9652   9650   9654   9655     1  0.0000000  0.0000000  2
   9652   9650   9654   9655     1  180.0000771  0.3347200  3
   9652   9650   9654   9686     1  180.0000771  0.0000000  2
   9653   9650   9654   9655     1  0.0000000  3.3472000  1
   9653   9650   9654   9655     1  0.0000000  0.0000000  2
   9653   9650   9654   9655     1  180.0000771  0.3347200  3
   9653   9650   9654   9686     1  180.0000771  0.0000000  2
   9654   9686   9667   9669     1  0.0000000  1.2552000  3
   9655   9654   9686   9676     1  180.0000771  6.0668000  2
   9655   9654   9686   9676     1  180.0000771  1.4644000  4
   9656   9647   9658   9661     1  0.0000000  0.6508444  3
   9656   9647   9658   9659     1  0.0000000  0.6508444  3
   9656   9647   9658   9660     1  0.0000000  0.6508444  3
   9657   9647   9658   9661     1  0.0000000  0.6508444  3
   9657   9647   9658   9659     1  0.0000000  0.6508444  3
   9657   9647   9658   9660     1  0.0000000  0.6508444  3
   9658   9661   9710   9700     1  180.0000771  6.0668000  2
   9658   9661   9710   9700     1  180.0000771  1.4644000  4
   9659   9658   9661   9662     1  0.0000000  3.3472000  1
   9659   9658   9661   9662     1  0.0000000  0.0000000  2
   9659   9658   9661   9662     1  180.0000771  0.3347200  3
   9659   9658   9661   9710     1  180.0000771  0.0000000  2
   9660   9658   9661   9662     1  0.0000000  3.3472000  1
   9660   9658   9661   9662     1  0.0000000  0.0000000  2
   9660   9658   9661   9662     1  180.0000771  0.3347200  3
   9660   9658   9661   9710     1  180.0000771  0.0000000  2
   9661   9710   9691   9693     1  0.0000000  1.2552000  3
   9662   9661   9710   9700     1  180.0000771  6.0668000  2
   9662   9661   9710   9700     1  180.0000771  1.4644000  4
   9663   9664   9666   9670     1  0.0000000  0.6508444  3
   9663   9664   9684   9685     1  0.0000000  1.0460000  1
   9663   9664   9684   9685     1  0.0000000  0.6694400  3
   9663   9674   9679   9680     1  0.0000000  1.0460000  1
   9663   9674   9679   9680     1  0.0000000  0.6694400  3
   9663   9681   9668   9671     1  0.0000000  1.6038667  3
   9664   9666   9667   9669     1  0.0000000  0.6508444  3
   9664   9666   9673   9675     1  0.0000000  1.0460000  1
   9664   9666   9673   9675     1  0.0000000  0.6694400  3
   9664   9663   9674   9677     1  0.0000000  0.6508444  3
   9664   9663   9674   9678     1  0.0000000  0.6508444  3
   9665   9663   9664   9666     1  0.0000000  0.6508444  3
   9665   9663   9664   9684     1  0.0000000  1.0460000  1
   9665   9663   9664   9684     1  0.0000000  0.0000000  3
   9665   9663   9664   9683     1  0.0000000  0.6508444  3
   9665   9663   9674   9679     1  0.0000000  1.0460000  1
   9665   9663   9674   9679     1  0.0000000  0.0000000  3
   9665   9663   9674   9677     1  0.0000000  0.6508444  3
   9665   9663   9674   9678     1  0.0000000  0.6508444  3
   9665   9663   9681   9668     1  0.0000000  1.6038667  3
   9666   9667   9668   9671     1  0.0000000  0.6508444  3
   9666   9667   9686   9676     1  0.0000000  1.2552000  3
   9666   9664   9684   9685     1  0.0000000  1.0460000  1
   9666   9664   9684   9685     1  0.0000000  0.6694400  3
   9667   9668   9672   9682     1  0.0000000  1.0460000  1
   9667   9668   9672   9682     1  0.0000000  0.6694400  3
   9667   9666   9673   9675     1  0.0000000  1.0460000  1
   9667   9666   9673   9675     1  0.0000000  0.6694400  3
   9667   9666   9664   9683     1  0.0000000  0.6508444  3
   9668   9667   9686   9676     1  0.0000000  1.2552000  3
   9668   9667   9666   9670     1  0.0000000  0.6508444  3
   9669   9667   9668   9672     1  0.0000000  1.0460000  1
   9669   9667   9668   9672     1  0.0000000  0.0000000  3
   9669   9667   9668   9681     1  0.0000000  1.0460000  1
   9669   9667   9668   9681     1  0.0000000  0.0000000  3
   9669   9667   9668   9671     1  0.0000000  0.6508444  3
   9669   9667   9686   9676     1  0.0000000  1.2552000  3
   9669   9667   9666   9673     1  0.0000000  1.0460000  1
   9669   9667   9666   9673     1  0.0000000  0.0000000  3
   9669   9667   9666   9670     1  0.0000000  0.6508444  3
   9670   9666   9667   9686     1  0.0000000  0.6508444  3
   9670   9666   9673   9675     1  0.0000000  0.6973333  3
   9670   9666   9664   9684     1  0.0000000  1.0460000  1
   9670   9666   9664   9684     1  0.0000000  0.0000000  3
   9670   9666   9664   9683     1  0.0000000  0.6508444  3
   9671   9668   9672   9682     1  0.0000000  0.6973333  3
   9671   9668   9667   9686     1  0.0000000  0.6508444  3
   9673   9666   9664   9683     1  0.0000000  1.0460000  1
   9673   9666   9664   9683     1  0.0000000  0.0000000  3
   9674   9663   9664   9683     1  0.0000000  0.6508444  3
   9677   9674   9679   9680     1  0.0000000  0.6973333  3
   9677   9674   9663   9681     1  0.0000000  1.0460000  1
   9677   9674   9663   9681     1  0.0000000  0.0000000  3
   9678   9674   9679   9680     1  0.0000000  0.6973333  3
   9678   9674   9663   9681     1  0.0000000  1.0460000  1
   9678   9674   9663   9681     1  0.0000000  0.0000000  3
   9681   9668   9672   9682     1  0.0000000  0.6973333  3
   9681   9663   9664   9683     1  0.0000000  1.0460000  1
   9681   9663   9664   9683     1  0.0000000  0.0000000  3
   9683   9664   9684   9685     1  0.0000000  0.6973333  3
   9687   9688   9690   9694     1  0.0000000  0.6508444  3
   9687   9688   9708   9709     1  0.0000000  1.0460000  1
   9687   9688   9708   9709     1  0.0000000  0.6694400  3
   9687   9698   9703   9704     1  0.0000000  1.0460000  1
   9687   9698   9703   9704     1  0.0000000  0.6694400  3
   9687   9705   9692   9695     1  0.0000000  1.6038667  3
   9688   9690   9691   9693     1  0.0000000  0.6508444  3
   9688   9690   9697   9699     1  0.0000000  1.0460000  1
   9688   9690   9697   9699     1  0.0000000  0.6694400  3
   9688   9687   9698   9701     1  0.0000000  0.6508444  3
   9688   9687   9698   9702     1  0.0000000  0.6508444  3
   9689   9687   9688   9690     1  0.0000000  0.6508444  3
   9689   9687   9688   9708     1  0.0000000  1.0460000  1
   9689   9687   9688   9708     1  0.0000000  0.0000000  3
   9689   9687   9688   9707     1  0.0000000  0.6508444  3
   9689   9687   9698   9703     1  0.0000000  1.0460000  1
   9689   9687   9698   9703     1  0.0000000  0.0000000  3
   9689   9687   9698   9701     1  0.0000000  0.6508444  3
   9689   9687   9698   9702     1  0.0000000  0.6508444  3
   9689   9687   9705   9692     1  0.0000000  1.6038667  3
   9690   9691   9692   9695     1  0.0000000  0.6508444  3
   9690   9691   9710   9700     1  0.0000000  1.2552000  3
   9690   9688   9708   9709     1  0.0000000  1.0460000  1
   9690   9688   9708   9709     1  0.0000000  0.6694400  3
   9691   9692   9696   9706     1  0.0000000  1.0460000  1
   9691   9692   9696   9706     1  0.0000000  0.6694400  3
   9691   9690   9697   9699     1  0.0000000  1.0460000  1
   9691   9690   9697   9699     1  0.0000000  0.6694400  3
   9691   9690   9688   9707     1  0.0000000  0.6508444  3
   9692   9691   9710   9700     1  0.0000000  1.2552000  3
   9692   9691   9690   9694     1  0.0000000  0.6508444  3
   9693   9691   9692   9696     1  0.0000000  1.0460000  1
   9693   9691   9692   9696     1  0.0000000  0.0000000  3
   9693   9691   9692   9705     1  0.0000000  1.0460000  1
   9693   9691   9692   9705     1  0.0000000  0.0000000  3
   9693   9691   9692   9695     1  0.0000000  0.6508444  3
   9693   9691   9710   9700     1  0.0000000  1.2552000  3
   9693   9691   9690   9697     1  0.0000000  1.0460000  1
   9693   9691   9690   9697     1  0.0000000  0.0000000  3
   9693   9691   9690   9694     1  0.0000000  0.6508444  3
   9694   9690   9691   9710     1  0.0000000  0.6508444  3
   9694   9690   9697   9699     1  0.0000000  0.6973333  3
   9694   9690   9688   9708     1  0.0000000  1.0460000  1
   9694   9690   9688   9708     1  0.0000000  0.0000000  3
   9694   9690   9688   9707     1  0.0000000  0.6508444  3
   9695   9692   9696   9706     1  0.0000000  0.6973333  3
   9695   9692   9691   9710     1  0.0000000  0.6508444  3
   9697   9690   9688   9707     1  0.0000000  1.0460000  1
   9697   9690   9688   9707     1  0.0000000  0.0000000  3
   9698   9687   9688   9707     1  0.0000000  0.6508444  3
   9701   9698   9703   9704     1  0.0000000  0.6973333  3
   9701   9698   9687   9705     1  0.0000000  1.0460000  1
   9701   9698   9687   9705     1  0.0000000  0.0000000  3
   9702   9698   9703   9704     1  0.0000000  0.6973333  3
   9702   9698   9687   9705     1  0.0000000  1.0460000  1
   9702   9698   9687   9705     1  0.0000000  0.0000000  3
   9705   9692   9696   9706     1  0.0000000  0.6973333  3
   9705   9687   9688   9707     1  0.0000000  1.0460000  1
   9705   9687   9688   9707     1  0.0000000  0.0000000  3
   9707   9688   9708   9709     1  0.0000000  0.6973333  3
   9711   9713   9715   9717     1  0.0000000  0.6508444  3
   9711   9713   9715   9718     1  0.0000000  0.6508444  3
   9712   9711   9713   9715     1  0.0000000  0.0000000  2
   9712   9711   9713   9714     1  0.0000000  0.0000000  2
   9712   9711   9713   9716     1  0.0000000  0.0000000  2
   9714   9713   9715   9719     1  0.0000000  0.6508444  3
   9714   9713   9715   9717     1  0.0000000  0.6508444  3
   9714   9713   9715   9718     1  0.0000000  0.6508444  3
   9715   9719   9720   9729     1  0.0000000  1.2552000  3
   9715   9719   9720   9730     1  0.0000000  1.2552000  3
   9715   9719   9721   9722     1  0.0000000  1.2552000  3
   9715   9719   9721   9724     1  0.0000000  1.2552000  3
   9716   9713   9715   9719     1  0.0000000  0.6508444  3
   9716   9713   9715   9717     1  0.0000000  0.6508444  3
   9716   9713   9715   9718     1  0.0000000  0.6508444  3
   9717   9715   9719   9720     1  0.0000000  1.2552000  3
   9717   9715   9719   9721     1  0.0000000  1.2552000  3
   9718   9715   9719   9720     1  0.0000000  1.2552000  3
   9718   9715   9719   9721     1  0.0000000  1.2552000  3
   9719   9720   9731   9732     1  0.0000000  0.6508444  3
   9719   9720   9731   9733     1  0.0000000  0.6508444  3
   9719   9721   9723   9725     1  0.0000000  0.6508444  3
   9719   9721   9723   9726     1  0.0000000  0.6508444  3
   9720   9719   9721   9722     1  0.0000000  1.2552000  3
   9720   9719   9721   9724     1  0.0000000  1.2552000  3
   9721   9719   9720   9729     1  0.0000000  1.2552000  3
   9721   9719   9720   9730     1  0.0000000  1.2552000  3
   9722   9721   9723   9727     1  0.0000000  0.6508444  3
   9722   9721   9723   9725     1  0.0000000  0.6508444  3
   9722   9721   9723   9726     1  0.0000000  0.6508444  3
   9723   9727   9759   9749     1  180.0000771  6.0668000  2
   9723   9727   9759   9749     1  180.0000771  1.4644000  4
   9724   9721   9723   9727     1  0.0000000  0.6508444  3
   9724   9721   9723   9725     1  0.0000000  0.6508444  3
   9724   9721   9723   9726     1  0.0000000  0.6508444  3
   9725   9723   9727   9728     1  0.0000000  3.3472000  1
   9725   9723   9727   9728     1  0.0000000  0.0000000  2
   9725   9723   9727   9728     1  180.0000771  0.3347200  3
   9725   9723   9727   9759     1  180.0000771  0.0000000  2
   9726   9723   9727   9728     1  0.0000000  3.3472000  1
   9726   9723   9727   9728     1  0.0000000  0.0000000  2
   9726   9723   9727   9728     1  180.0000771  0.3347200  3
   9726   9723   9727   9759     1  180.0000771  0.0000000  2
   9727   9759   9740   9742     1  0.0000000  1.2552000  3
   9728   9727   9759   9749     1  180.0000771  6.0668000  2
   9728   9727   9759   9749     1  180.0000771  1.4644000  4
   9729   9720   9731   9734     1  0.0000000  0.6508444  3
   9729   9720   9731   9732     1  0.0000000  0.6508444  3
   9729   9720   9731   9733     1  0.0000000  0.6508444  3
   9730   9720   9731   9734     1  0.0000000  0.6508444  3
   9730   9720   9731   9732     1  0.0000000  0.6508444  3
   9730   9720   9731   9733     1  0.0000000  0.6508444  3
   9731   9734   9783   9773     1  180.0000771  6.0668000  2
   9731   9734   9783   9773     1  180.0000771  1.4644000  4
   9732   9731   9734   9735     1  0.0000000  3.3472000  1
   9732   9731   9734   9735     1  0.0000000  0.0000000  2
   9732   9731   9734   9735     1  180.0000771  0.3347200  3
   9732   9731   9734   9783     1  180.0000771  0.0000000  2
   9733   9731   9734   9735     1  0.0000000  3.3472000  1
   9733   9731   9734   9735     1  0.0000000  0.0000000  2
   9733   9731   9734   9735     1  180.0000771  0.3347200  3
   9733   9731   9734   9783     1  180.0000771  0.0000000  2
   9734   9783   9764   9766     1  0.0000000  1.2552000  3
   9735   9734   9783   9773     1  180.0000771  6.0668000  2
   9735   9734   9783   9773     1  180.0000771  1.4644000  4
   9736   9737   9739   9743     1  0.0000000  0.6508444  3
   9736   9737   9757   9758     1  0.0000000  1.0460000  1
   9736   9737   9757   9758     1  0.0000000  0.6694400  3
   9736   9747   9752   9753     1  0.0000000  1.0460000  1
   9736   9747   9752   9753     1  0.0000000  0.6694400  3
   9736   9754   9741   9744     1  0.0000000  1.6038667  3
   9737   9736   9747   9750     1  0.0000000  0.6508444  3
   9737   9736   9747   9751     1  0.0000000  0.6508444  3
   9737   9739   9740   9742     1  0.0000000  0.6508444  3
   9737   9739   9746   9748     1  0.0000000  1.0460000  1
   9737   9739   9746   9748     1  0.0000000  0.6694400  3
   9738   9736   9737   9739     1  0.0000000  0.6508444  3
   9738   9736   9737   9757     1  0.0000000  1.0460000  1
   9738   9736   9737   9757     1  0.0000000  0.0000000  3
   9738   9736   9737   9756     1  0.0000000  0.6508444  3
   9738   9736   9747   9752     1  0.0000000  1.0460000  1
   9738   9736   9747   9752     1  0.0000000  0.0000000  3
   9738   9736   9747   9750     1  0.0000000  0.6508444  3
   9738   9736   9747   9751     1  0.0000000  0.6508444  3
   9738   9736   9754   9741     1  0.0000000  1.6038667  3
   9739   9737   9757   9758     1  0.0000000  1.0460000  1
   9739   9737   9757   9758     1  0.0000000  0.6694400  3
   9739   9740   9741   9744     1  0.0000000  0.6508444  3
   9739   9740   9759   9749     1  0.0000000  1.2552000  3
   9740   9739   9737   9756     1  0.0000000  0.6508444  3
   9740   9739   9746   9748     1  0.0000000  1.0460000  1
   9740   9739   9746   9748     1  0.0000000  0.6694400  3
   9740   9741   9745   9755     1  0.0000000  1.0460000  1
   9740   9741   9745   9755     1  0.0000000  0.6694400  3
   9741   9740   9739   9743     1  0.0000000  0.6508444  3
   9741   9740   9759   9749     1  0.0000000  1.2552000  3
   9742   9740   9739   9746     1  0.0000000  1.0460000  1
   9742   9740   9739   9746     1  0.0000000  0.0000000  3
   9742   9740   9739   9743     1  0.0000000  0.6508444  3
   9742   9740   9741   9745     1  0.0000000  1.0460000  1
   9742   9740   9741   9745     1  0.0000000  0.0000000  3
   9742   9740   9741   9754     1  0.0000000  1.0460000  1
   9742   9740   9741   9754     1  0.0000000  0.0000000  3
   9742   9740   9741   9744     1  0.0000000  0.6508444  3
   9742   9740   9759   9749     1  0.0000000  1.2552000  3
   9743   9739   9737   9757     1  0.0000000  1.0460000  1
   9743   9739   9737   9757     1  0.0000000  0.0000000  3
   9743   9739   9737   9756     1  0.0000000  0.6508444  3
   9743   9739   9740   9759     1  0.0000000  0.6508444  3
   9743   9739   9746   9748     1  0.0000000  0.6973333  3
   9744   9741   9740   9759     1  0.0000000  0.6508444  3
   9744   9741   9745   9755     1  0.0000000  0.6973333  3
   9746   9739   9737   9756     1  0.0000000  1.0460000  1
   9746   9739   9737   9756     1  0.0000000  0.0000000  3
   9747   9736   9737   9756     1  0.0000000  0.6508444  3
   9750   9747   9736   9754     1  0.0000000  1.0460000  1
   9750   9747   9736   9754     1  0.0000000  0.0000000  3
   9750   9747   9752   9753     1  0.0000000  0.6973333  3
   9751   9747   9736   9754     1  0.0000000  1.0460000  1
   9751   9747   9736   9754     1  0.0000000  0.0000000  3
   9751   9747   9752   9753     1  0.0000000  0.6973333  3
   9754   9736   9737   9756     1  0.0000000  1.0460000  1
   9754   9736   9737   9756     1  0.0000000  0.0000000  3
   9754   9741   9745   9755     1  0.0000000  0.6973333  3
   9756   9737   9757   9758     1  0.0000000  0.6973333  3
   9760   9761   9763   9767     1  0.0000000  0.6508444  3
   9760   9761   9781   9782     1  0.0000000  1.0460000  1
   9760   9761   9781   9782     1  0.0000000  0.6694400  3
   9760   9771   9776   9777     1  0.0000000  1.0460000  1
   9760   9771   9776   9777     1  0.0000000  0.6694400  3
   9760   9778   9765   9768     1  0.0000000  1.6038667  3
   9761   9760   9771   9774     1  0.0000000  0.6508444  3
   9761   9760   9771   9775     1  0.0000000  0.6508444  3
   9761   9763   9764   9766     1  0.0000000  0.6508444  3
   9761   9763   9770   9772     1  0.0000000  1.0460000  1
   9761   9763   9770   9772     1  0.0000000  0.6694400  3
   9762   9760   9761   9763     1  0.0000000  0.6508444  3
   9762   9760   9761   9781     1  0.0000000  1.0460000  1
   9762   9760   9761   9781     1  0.0000000  0.0000000  3
   9762   9760   9761   9780     1  0.0000000  0.6508444  3
   9762   9760   9771   9776     1  0.0000000  1.0460000  1
   9762   9760   9771   9776     1  0.0000000  0.0000000  3
   9762   9760   9771   9774     1  0.0000000  0.6508444  3
   9762   9760   9771   9775     1  0.0000000  0.6508444  3
   9762   9760   9778   9765     1  0.0000000  1.6038667  3
   9763   9761   9781   9782     1  0.0000000  1.0460000  1
   9763   9761   9781   9782     1  0.0000000  0.6694400  3
   9763   9764   9765   9768     1  0.0000000  0.6508444  3
   9763   9764   9783   9773     1  0.0000000  1.2552000  3
   9764   9763   9761   9780     1  0.0000000  0.6508444  3
   9764   9763   9770   9772     1  0.0000000  1.0460000  1
   9764   9763   9770   9772     1  0.0000000  0.6694400  3
   9764   9765   9769   9779     1  0.0000000  1.0460000  1
   9764   9765   9769   9779     1  0.0000000  0.6694400  3
   9765   9764   9763   9767     1  0.0000000  0.6508444  3
   9765   9764   9783   9773     1  0.0000000  1.2552000  3
   9766   9764   9763   9770     1  0.0000000  1.0460000  1
   9766   9764   9763   9770     1  0.0000000  0.0000000  3
   9766   9764   9763   9767     1  0.0000000  0.6508444  3
   9766   9764   9765   9769     1  0.0000000  1.0460000  1
   9766   9764   9765   9769     1  0.0000000  0.0000000  3
   9766   9764   9765   9778     1  0.0000000  1.0460000  1
   9766   9764   9765   9778     1  0.0000000  0.0000000  3
   9766   9764   9765   9768     1  0.0000000  0.6508444  3
   9766   9764   9783   9773     1  0.0000000  1.2552000  3
   9767   9763   9761   9781     1  0.0000000  1.0460000  1
   9767   9763   9761   9781     1  0.0000000  0.0000000  3
   9767   9763   9761   9780     1  0.0000000  0.6508444  3
   9767   9763   9764   9783     1  0.0000000  0.6508444  3
   9767   9763   9770   9772     1  0.0000000  0.6973333  3
   9768   9765   9764   9783     1  0.0000000  0.6508444  3
   9768   9765   9769   9779     1  0.0000000  0.6973333  3
   9770   9763   9761   9780     1  0.0000000  1.0460000  1
   9770   9763   9761   9780     1  0.0000000  0.0000000  3
   9771   9760   9761   9780     1  0.0000000  0.6508444  3
   9774   9771   9760   9778     1  0.0000000  1.0460000  1
   9774   9771   9760   9778     1  0.0000000  0.0000000  3
   9774   9771   9776   9777     1  0.0000000  0.6973333  3
   9775   9771   9760   9778     1  0.0000000  1.0460000  1
   9775   9771   9760   9778     1  0.0000000  0.0000000  3
   9775   9771   9776   9777     1  0.0000000  0.6973333  3
   9778   9760   9761   9780     1  0.0000000  1.0460000  1
   9778   9760   9761   9780     1  0.0000000  0.0000000  3
   9778   9765   9769   9779     1  0.0000000  0.6973333  3
   9780   9761   9781   9782     1  0.0000000  0.6973333  3
   9784   9786   9788   9790     1  0.0000000  0.6508444  3
   9784   9786   9788   9791     1  0.0000000  0.6508444  3
   9785   9784   9786   9788     1  0.0000000  0.0000000  2
   9785   9784   9786   9787     1  0.0000000  0.0000000  2
   9785   9784   9786   9789     1  0.0000000  0.0000000  2
   9787   9786   9788   9792     1  0.0000000  0.6508444  3
   9787   9786   9788   9790     1  0.0000000  0.6508444  3
   9787   9786   9788   9791     1  0.0000000  0.6508444  3
   9788   9792   9793   9802     1  0.0000000  1.2552000  3
   9788   9792   9793   9803     1  0.0000000  1.2552000  3
   9788   9792   9794   9795     1  0.0000000  1.2552000  3
   9788   9792   9794   9797     1  0.0000000  1.2552000  3
   9789   9786   9788   9792     1  0.0000000  0.6508444  3
   9789   9786   9788   9790     1  0.0000000  0.6508444  3
   9789   9786   9788   9791     1  0.0000000  0.6508444  3
   9790   9788   9792   9793     1  0.0000000  1.2552000  3
   9790   9788   9792   9794     1  0.0000000  1.2552000  3
   9791   9788   9792   9793     1  0.0000000  1.2552000  3
   9791   9788   9792   9794     1  0.0000000  1.2552000  3
   9792   9793   9804   9805     1  0.0000000  0.6508444  3
   9792   9793   9804   9806     1  0.0000000  0.6508444  3
   9792   9794   9796   9798     1  0.0000000  0.6508444  3
   9792   9794   9796   9799     1  0.0000000  0.6508444  3
   9793   9792   9794   9795     1  0.0000000  1.2552000  3
   9793   9792   9794   9797     1  0.0000000  1.2552000  3
   9794   9792   9793   9802     1  0.0000000  1.2552000  3
   9794   9792   9793   9803     1  0.0000000  1.2552000  3
   9795   9794   9796   9800     1  0.0000000  0.6508444  3
   9795   9794   9796   9798     1  0.0000000  0.6508444  3
   9795   9794   9796   9799     1  0.0000000  0.6508444  3
   9796   9800   9832   9822     1  180.0000771  6.0668000  2
   9796   9800   9832   9822     1  180.0000771  1.4644000  4
   9797   9794   9796   9800     1  0.0000000  0.6508444  3
   9797   9794   9796   9798     1  0.0000000  0.6508444  3
   9797   9794   9796   9799     1  0.0000000  0.6508444  3
   9798   9796   9800   9801     1  0.0000000  3.3472000  1
   9798   9796   9800   9801     1  0.0000000  0.0000000  2
   9798   9796   9800   9801     1  180.0000771  0.3347200  3
   9798   9796   9800   9832     1  180.0000771  0.0000000  2
   9799   9796   9800   9801     1  0.0000000  3.3472000  1
   9799   9796   9800   9801     1  0.0000000  0.0000000  2
   9799   9796   9800   9801     1  180.0000771  0.3347200  3
   9799   9796   9800   9832     1  180.0000771  0.0000000  2
   9800   9832   9813   9815     1  0.0000000  1.2552000  3
   9801   9800   9832   9822     1  180.0000771  6.0668000  2
   9801   9800   9832   9822     1  180.0000771  1.4644000  4
   9802   9793   9804   9807     1  0.0000000  0.6508444  3
   9802   9793   9804   9805     1  0.0000000  0.6508444  3
   9802   9793   9804   9806     1  0.0000000  0.6508444  3
   9803   9793   9804   9807     1  0.0000000  0.6508444  3
   9803   9793   9804   9805     1  0.0000000  0.6508444  3
   9803   9793   9804   9806     1  0.0000000  0.6508444  3
   9804   9807   9856   9846     1  180.0000771  6.0668000  2
   9804   9807   9856   9846     1  180.0000771  1.4644000  4
   9805   9804   9807   9808     1  0.0000000  3.3472000  1
   9805   9804   9807   9808     1  0.0000000  0.0000000  2
   9805   9804   9807   9808     1  180.0000771  0.3347200  3
   9805   9804   9807   9856     1  180.0000771  0.0000000  2
   9806   9804   9807   9808     1  0.0000000  3.3472000  1
   9806   9804   9807   9808     1  0.0000000  0.0000000  2
   9806   9804   9807   9808     1  180.0000771  0.3347200  3
   9806   9804   9807   9856     1  180.0000771  0.0000000  2
   9807   9856   9837   9839     1  0.0000000  1.2552000  3
   9808   9807   9856   9846     1  180.0000771  6.0668000  2
   9808   9807   9856   9846     1  180.0000771  1.4644000  4
   9809   9810   9812   9816     1  0.0000000  0.6508444  3
   9809   9810   9830   9831     1  0.0000000  1.0460000  1
   9809   9810   9830   9831     1  0.0000000  0.6694400  3
   9809   9820   9825   9826     1  0.0000000  1.0460000  1
   9809   9820   9825   9826     1  0.0000000  0.6694400  3
   9809   9827   9814   9817     1  0.0000000  1.6038667  3
   9810   9812   9813   9815     1  0.0000000  0.6508444  3
   9810   9812   9819   9821     1  0.0000000  1.0460000  1
   9810   9812   9819   9821     1  0.0000000  0.6694400  3
   9810   9809   9820   9823     1  0.0000000  0.6508444  3
   9810   9809   9820   9824     1  0.0000000  0.6508444  3
   9811   9809   9810   9812     1  0.0000000  0.6508444  3
   9811   9809   9810   9830     1  0.0000000  1.0460000  1
   9811   9809   9810   9830     1  0.0000000  0.0000000  3
   9811   9809   9810   9829     1  0.0000000  0.6508444  3
   9811   9809   9820   9825     1  0.0000000  1.0460000  1
   9811   9809   9820   9825     1  0.0000000  0.0000000  3
   9811   9809   9820   9823     1  0.0000000  0.6508444  3
   9811   9809   9820   9824     1  0.0000000  0.6508444  3
   9811   9809   9827   9814     1  0.0000000  1.6038667  3
   9812   9813   9814   9817     1  0.0000000  0.6508444  3
   9812   9813   9832   9822     1  0.0000000  1.2552000  3
   9812   9810   9830   9831     1  0.0000000  1.0460000  1
   9812   9810   9830   9831     1  0.0000000  0.6694400  3
   9813   9814   9818   9828     1  0.0000000  1.0460000  1
   9813   9814   9818   9828     1  0.0000000  0.6694400  3
   9813   9812   9819   9821     1  0.0000000  1.0460000  1
   9813   9812   9819   9821     1  0.0000000  0.6694400  3
   9813   9812   9810   9829     1  0.0000000  0.6508444  3
   9814   9813   9832   9822     1  0.0000000  1.2552000  3
   9814   9813   9812   9816     1  0.0000000  0.6508444  3
   9815   9813   9814   9818     1  0.0000000  1.0460000  1
   9815   9813   9814   9818     1  0.0000000  0.0000000  3
   9815   9813   9814   9827     1  0.0000000  1.0460000  1
   9815   9813   9814   9827     1  0.0000000  0.0000000  3
   9815   9813   9814   9817     1  0.0000000  0.6508444  3
   9815   9813   9832   9822     1  0.0000000  1.2552000  3
   9815   9813   9812   9819     1  0.0000000  1.0460000  1
   9815   9813   9812   9819     1  0.0000000  0.0000000  3
   9815   9813   9812   9816     1  0.0000000  0.6508444  3
   9816   9812   9813   9832     1  0.0000000  0.6508444  3
   9816   9812   9819   9821     1  0.0000000  0.6973333  3
   9816   9812   9810   9830     1  0.0000000  1.0460000  1
   9816   9812   9810   9830     1  0.0000000  0.0000000  3
   9816   9812   9810   9829     1  0.0000000  0.6508444  3
   9817   9814   9818   9828     1  0.0000000  0.6973333  3
   9817   9814   9813   9832     1  0.0000000  0.6508444  3
   9819   9812   9810   9829     1  0.0000000  1.0460000  1
   9819   9812   9810   9829     1  0.0000000  0.0000000  3
   9820   9809   9810   9829     1  0.0000000  0.6508444  3
   9823   9820   9825   9826     1  0.0000000  0.6973333  3
   9823   9820   9809   9827     1  0.0000000  1.0460000  1
   9823   9820   9809   9827     1  0.0000000  0.0000000  3
   9824   9820   9825   9826     1  0.0000000  0.6973333  3
   9824   9820   9809   9827     1  0.0000000  1.0460000  1
   9824   9820   9809   9827     1  0.0000000  0.0000000  3
   9827   9814   9818   9828     1  0.0000000  0.6973333  3
   9827   9809   9810   9829     1  0.0000000  1.0460000  1
   9827   9809   9810   9829     1  0.0000000  0.0000000  3
   9829   9810   9830   9831     1  0.0000000  0.6973333  3
   9833   9834   9836   9840     1  0.0000000  0.6508444  3
   9833   9834   9854   9855     1  0.0000000  1.0460000  1
   9833   9834   9854   9855     1  0.0000000  0.6694400  3
   9833   9844   9849   9850     1  0.0000000  1.0460000  1
   9833   9844   9849   9850     1  0.0000000  0.6694400  3
   9833   9851   9838   9841     1  0.0000000  1.6038667  3
   9834   9836   9837   9839     1  0.0000000  0.6508444  3
   9834   9836   9843   9845     1  0.0000000  1.0460000  1
   9834   9836   9843   9845     1  0.0000000  0.6694400  3
   9834   9833   9844   9847     1  0.0000000  0.6508444  3
   9834   9833   9844   9848     1  0.0000000  0.6508444  3
   9835   9833   9834   9836     1  0.0000000  0.6508444  3
   9835   9833   9834   9854     1  0.0000000  1.0460000  1
   9835   9833   9834   9854     1  0.0000000  0.0000000  3
   9835   9833   9834   9853     1  0.0000000  0.6508444  3
   9835   9833   9844   9849     1  0.0000000  1.0460000  1
   9835   9833   9844   9849     1  0.0000000  0.0000000  3
   9835   9833   9844   9847     1  0.0000000  0.6508444  3
   9835   9833   9844   9848     1  0.0000000  0.6508444  3
   9835   9833   9851   9838     1  0.0000000  1.6038667  3
   9836   9837   9838   9841     1  0.0000000  0.6508444  3
   9836   9837   9856   9846     1  0.0000000  1.2552000  3
   9836   9834   9854   9855     1  0.0000000  1.0460000  1
   9836   9834   9854   9855     1  0.0000000  0.6694400  3
   9837   9838   9842   9852     1  0.0000000  1.0460000  1
   9837   9838   9842   9852     1  0.0000000  0.6694400  3
   9837   9836   9843   9845     1  0.0000000  1.0460000  1
   9837   9836   9843   9845     1  0.0000000  0.6694400  3
   9837   9836   9834   9853     1  0.0000000  0.6508444  3
   9838   9837   9856   9846     1  0.0000000  1.2552000  3
   9838   9837   9836   9840     1  0.0000000  0.6508444  3
   9839   9837   9838   9842     1  0.0000000  1.0460000  1
   9839   9837   9838   9842     1  0.0000000  0.0000000  3
   9839   9837   9838   9851     1  0.0000000  1.0460000  1
   9839   9837   9838   9851     1  0.0000000  0.0000000  3
   9839   9837   9838   9841     1  0.0000000  0.6508444  3
   9839   9837   9856   9846     1  0.0000000  1.2552000  3
   9839   9837   9836   9843     1  0.0000000  1.0460000  1
   9839   9837   9836   9843     1  0.0000000  0.0000000  3
   9839   9837   9836   9840     1  0.0000000  0.6508444  3
   9840   9836   9837   9856     1  0.0000000  0.6508444  3
   9840   9836   9843   9845     1  0.0000000  0.6973333  3
   9840   9836   9834   9854     1  0.0000000  1.0460000  1
   9840   9836   9834   9854     1  0.0000000  0.0000000  3
   9840   9836   9834   9853     1  0.0000000  0.6508444  3
   9841   9838   9842   9852     1  0.0000000  0.6973333  3
   9841   9838   9837   9856     1  0.0000000  0.6508444  3
   9843   9836   9834   9853     1  0.0000000  1.0460000  1
   9843   9836   9834   9853     1  0.0000000  0.0000000  3
   9844   9833   9834   9853     1  0.0000000  0.6508444  3
   9847   9844   9849   9850     1  0.0000000  0.6973333  3
   9847   9844   9833   9851     1  0.0000000  1.0460000  1
   9847   9844   9833   9851     1  0.0000000  0.0000000  3
   9848   9844   9849   9850     1  0.0000000  0.6973333  3
   9848   9844   9833   9851     1  0.0000000  1.0460000  1
   9848   9844   9833   9851     1  0.0000000  0.0000000  3
   9851   9838   9842   9852     1  0.0000000  0.6973333  3
   9851   9833   9834   9853     1  0.0000000  1.0460000  1
   9851   9833   9834   9853     1  0.0000000  0.0000000  3
   9853   9834   9854   9855     1  0.0000000  0.6973333  3
   9857   9859   9861   9863     1  0.0000000  0.6508444  3
   9857   9859   9861   9864     1  0.0000000  0.6508444  3
   9858   9857   9859   9861     1  0.0000000  0.0000000  2
   9858   9857   9859   9860     1  0.0000000  0.0000000  2
   9858   9857   9859   9862     1  0.0000000  0.0000000  2
   9860   9859   9861   9865     1  0.0000000  0.6508444  3
   9860   9859   9861   9863     1  0.0000000  0.6508444  3
   9860   9859   9861   9864     1  0.0000000  0.6508444  3
   9861   9865   9866   9875     1  0.0000000  1.2552000  3
   9861   9865   9866   9876     1  0.0000000  1.2552000  3
   9861   9865   9867   9868     1  0.0000000  1.2552000  3
   9861   9865   9867   9870     1  0.0000000  1.2552000  3
   9862   9859   9861   9865     1  0.0000000  0.6508444  3
   9862   9859   9861   9863     1  0.0000000  0.6508444  3
   9862   9859   9861   9864     1  0.0000000  0.6508444  3
   9863   9861   9865   9866     1  0.0000000  1.2552000  3
   9863   9861   9865   9867     1  0.0000000  1.2552000  3
   9864   9861   9865   9866     1  0.0000000  1.2552000  3
   9864   9861   9865   9867     1  0.0000000  1.2552000  3
   9865   9866   9877   9878     1  0.0000000  0.6508444  3
   9865   9866   9877   9879     1  0.0000000  0.6508444  3
   9865   9867   9869   9871     1  0.0000000  0.6508444  3
   9865   9867   9869   9872     1  0.0000000  0.6508444  3
   9866   9865   9867   9868     1  0.0000000  1.2552000  3
   9866   9865   9867   9870     1  0.0000000  1.2552000  3
   9867   9865   9866   9875     1  0.0000000  1.2552000  3
   9867   9865   9866   9876     1  0.0000000  1.2552000  3
   9868   9867   9869   9873     1  0.0000000  0.6508444  3
   9868   9867   9869   9871     1  0.0000000  0.6508444  3
   9868   9867   9869   9872     1  0.0000000  0.6508444  3
   9869   9873   9905   9895     1  180.0000771  6.0668000  2
   9869   9873   9905   9895     1  180.0000771  1.4644000  4
   9870   9867   9869   9873     1  0.0000000  0.6508444  3
   9870   9867   9869   9871     1  0.0000000  0.6508444  3
   9870   9867   9869   9872     1  0.0000000  0.6508444  3
   9871   9869   9873   9874     1  0.0000000  3.3472000  1
   9871   9869   9873   9874     1  0.0000000  0.0000000  2
   9871   9869   9873   9874     1  180.0000771  0.3347200  3
   9871   9869   9873   9905     1  180.0000771  0.0000000  2
   9872   9869   9873   9874     1  0.0000000  3.3472000  1
   9872   9869   9873   9874     1  0.0000000  0.0000000  2
   9872   9869   9873   9874     1  180.0000771  0.3347200  3
   9872   9869   9873   9905     1  180.0000771  0.0000000  2
   9873   9905   9886   9888     1  0.0000000  1.2552000  3
   9874   9873   9905   9895     1  180.0000771  6.0668000  2
   9874   9873   9905   9895     1  180.0000771  1.4644000  4
   9875   9866   9877   9880     1  0.0000000  0.6508444  3
   9875   9866   9877   9878     1  0.0000000  0.6508444  3
   9875   9866   9877   9879     1  0.0000000  0.6508444  3
   9876   9866   9877   9880     1  0.0000000  0.6508444  3
   9876   9866   9877   9878     1  0.0000000  0.6508444  3
   9876   9866   9877   9879     1  0.0000000  0.6508444  3
   9877   9880   9929   9919     1  180.0000771  6.0668000  2
   9877   9880   9929   9919     1  180.0000771  1.4644000  4
   9878   9877   9880   9881     1  0.0000000  3.3472000  1
   9878   9877   9880   9881     1  0.0000000  0.0000000  2
   9878   9877   9880   9881     1  180.0000771  0.3347200  3
   9878   9877   9880   9929     1  180.0000771  0.0000000  2
   9879   9877   9880   9881     1  0.0000000  3.3472000  1
   9879   9877   9880   9881     1  0.0000000  0.0000000  2
   9879   9877   9880   9881     1  180.0000771  0.3347200  3
   9879   9877   9880   9929     1  180.0000771  0.0000000  2
   9880   9929   9910   9912     1  0.0000000  1.2552000  3
   9881   9880   9929   9919     1  180.0000771  6.0668000  2
   9881   9880   9929   9919     1  180.0000771  1.4644000  4
   9882   9883   9885   9889     1  0.0000000  0.6508444  3
   9882   9883   9903   9904     1  0.0000000  1.0460000  1
   9882   9883   9903   9904     1  0.0000000  0.6694400  3
   9882   9893   9898   9899     1  0.0000000  1.0460000  1
   9882   9893   9898   9899     1  0.0000000  0.6694400  3
   9882   9900   9887   9890     1  0.0000000  1.6038667  3
   9883   9882   9893   9896     1  0.0000000  0.6508444  3
   9883   9882   9893   9897     1  0.0000000  0.6508444  3
   9883   9885   9886   9888     1  0.0000000  0.6508444  3
   9883   9885   9892   9894     1  0.0000000  1.0460000  1
   9883   9885   9892   9894     1  0.0000000  0.6694400  3
   9884   9882   9883   9885     1  0.0000000  0.6508444  3
   9884   9882   9883   9903     1  0.0000000  1.0460000  1
   9884   9882   9883   9903     1  0.0000000  0.0000000  3
   9884   9882   9883   9902     1  0.0000000  0.6508444  3
   9884   9882   9893   9898     1  0.0000000  1.0460000  1
   9884   9882   9893   9898     1  0.0000000  0.0000000  3
   9884   9882   9893   9896     1  0.0000000  0.6508444  3
   9884   9882   9893   9897     1  0.0000000  0.6508444  3
   9884   9882   9900   9887     1  0.0000000  1.6038667  3
   9885   9883   9903   9904     1  0.0000000  1.0460000  1
   9885   9883   9903   9904     1  0.0000000  0.6694400  3
   9885   9886   9887   9890     1  0.0000000  0.6508444  3
   9885   9886   9905   9895     1  0.0000000  1.2552000  3
   9886   9885   9883   9902     1  0.0000000  0.6508444  3
   9886   9885   9892   9894     1  0.0000000  1.0460000  1
   9886   9885   9892   9894     1  0.0000000  0.6694400  3
   9886   9887   9891   9901     1  0.0000000  1.0460000  1
   9886   9887   9891   9901     1  0.0000000  0.6694400  3
   9887   9886   9885   9889     1  0.0000000  0.6508444  3
   9887   9886   9905   9895     1  0.0000000  1.2552000  3
   9888   9886   9885   9892     1  0.0000000  1.0460000  1
   9888   9886   9885   9892     1  0.0000000  0.0000000  3
   9888   9886   9885   9889     1  0.0000000  0.6508444  3
   9888   9886   9887   9891     1  0.0000000  1.0460000  1
   9888   9886   9887   9891     1  0.0000000  0.0000000  3
   9888   9886   9887   9900     1  0.0000000  1.0460000  1
   9888   9886   9887   9900     1  0.0000000  0.0000000  3
   9888   9886   9887   9890     1  0.0000000  0.6508444  3
   9888   9886   9905   9895     1  0.0000000  1.2552000  3
   9889   9885   9883   9903     1  0.0000000  1.0460000  1
   9889   9885   9883   9903     1  0.0000000  0.0000000  3
   9889   9885   9883   9902     1  0.0000000  0.6508444  3
   9889   9885   9886   9905     1  0.0000000  0.6508444  3
   9889   9885   9892   9894     1  0.0000000  0.6973333  3
   9890   9887   9886   9905     1  0.0000000  0.6508444  3
   9890   9887   9891   9901     1  0.0000000  0.6973333  3
   9892   9885   9883   9902     1  0.0000000  1.0460000  1
   9892   9885   9883   9902     1  0.0000000  0.0000000  3
   9893   9882   9883   9902     1  0.0000000  0.6508444  3
   9896   9893   9882   9900     1  0.0000000  1.0460000  1
   9896   9893   9882   9900     1  0.0000000  0.0000000  3
   9896   9893   9898   9899     1  0.0000000  0.6973333  3
   9897   9893   9882   9900     1  0.0000000  1.0460000  1
   9897   9893   9882   9900     1  0.0000000  0.0000000  3
   9897   9893   9898   9899     1  0.0000000  0.6973333  3
   9900   9882   9883   9902     1  0.0000000  1.0460000  1
   9900   9882   9883   9902     1  0.0000000  0.0000000  3
   9900   9887   9891   9901     1  0.0000000  0.6973333  3
   9902   9883   9903   9904     1  0.0000000  0.6973333  3
   9906   9907   9909   9913     1  0.0000000  0.6508444  3
   9906   9907   9927   9928     1  0.0000000  1.0460000  1
   9906   9907   9927   9928     1  0.0000000  0.6694400  3
   9906   9917   9922   9923     1  0.0000000  1.0460000  1
   9906   9917   9922   9923     1  0.0000000  0.6694400  3
   9906   9924   9911   9914     1  0.0000000  1.6038667  3
   9907   9906   9917   9920     1  0.0000000  0.6508444  3
   9907   9906   9917   9921     1  0.0000000  0.6508444  3
   9907   9909   9910   9912     1  0.0000000  0.6508444  3
   9907   9909   9916   9918     1  0.0000000  1.0460000  1
   9907   9909   9916   9918     1  0.0000000  0.6694400  3
   9908   9906   9907   9909     1  0.0000000  0.6508444  3
   9908   9906   9907   9927     1  0.0000000  1.0460000  1
   9908   9906   9907   9927     1  0.0000000  0.0000000  3
   9908   9906   9907   9926     1  0.0000000  0.6508444  3
   9908   9906   9917   9922     1  0.0000000  1.0460000  1
   9908   9906   9917   9922     1  0.0000000  0.0000000  3
   9908   9906   9917   9920     1  0.0000000  0.6508444  3
   9908   9906   9917   9921     1  0.0000000  0.6508444  3
   9908   9906   9924   9911     1  0.0000000  1.6038667  3
   9909   9907   9927   9928     1  0.0000000  1.0460000  1
   9909   9907   9927   9928     1  0.0000000  0.6694400  3
   9909   9910   9911   9914     1  0.0000000  0.6508444  3
   9909   9910   9929   9919     1  0.0000000  1.2552000  3
   9910   9909   9907   9926     1  0.0000000  0.6508444  3
   9910   9909   9916   9918     1  0.0000000  1.0460000  1
   9910   9909   9916   9918     1  0.0000000  0.6694400  3
   9910   9911   9915   9925     1  0.0000000  1.0460000  1
   9910   9911   9915   9925     1  0.0000000  0.6694400  3
   9911   9910   9909   9913     1  0.0000000  0.6508444  3
   9911   9910   9929   9919     1  0.0000000  1.2552000  3
   9912   9910   9909   9916     1  0.0000000  1.0460000  1
   9912   9910   9909   9916     1  0.0000000  0.0000000  3
   9912   9910   9909   9913     1  0.0000000  0.6508444  3
   9912   9910   9911   9915     1  0.0000000  1.0460000  1
   9912   9910   9911   9915     1  0.0000000  0.0000000  3
   9912   9910   9911   9924     1  0.0000000  1.0460000  1
   9912   9910   9911   9924     1  0.0000000  0.0000000  3
   9912   9910   9911   9914     1  0.0000000  0.6508444  3
   9912   9910   9929   9919     1  0.0000000  1.2552000  3
   9913   9909   9907   9927     1  0.0000000  1.0460000  1
   9913   9909   9907   9927     1  0.0000000  0.0000000  3
   9913   9909   9907   9926     1  0.0000000  0.6508444  3
   9913   9909   9910   9929     1  0.0000000  0.6508444  3
   9913   9909   9916   9918     1  0.0000000  0.6973333  3
   9914   9911   9910   9929     1  0.0000000  0.6508444  3
   9914   9911   9915   9925     1  0.0000000  0.6973333  3
   9916   9909   9907   9926     1  0.0000000  1.0460000  1
   9916   9909   9907   9926     1  0.0000000  0.0000000  3
   9917   9906   9907   9926     1  0.0000000  0.6508444  3
   9920   9917   9906   9924     1  0.0000000  1.0460000  1
   9920   9917   9906   9924     1  0.0000000  0.0000000  3
   9920   9917   9922   9923     1  0.0000000  0.6973333  3
   9921   9917   9906   9924     1  0.0000000  1.0460000  1
   9921   9917   9906   9924     1  0.0000000  0.0000000  3
   9921   9917   9922   9923     1  0.0000000  0.6973333  3
   9924   9906   9907   9926     1  0.0000000  1.0460000  1
   9924   9906   9907   9926     1  0.0000000  0.0000000  3
   9924   9911   9915   9925     1  0.0000000  0.6973333  3
   9926   9907   9927   9928     1  0.0000000  0.6973333  3
   9930   9932   9934   9936     1  0.0000000  0.6508444  3
   9930   9932   9934   9937     1  0.0000000  0.6508444  3
   9931   9930   9932   9934     1  0.0000000  0.0000000  2
   9931   9930   9932   9933     1  0.0000000  0.0000000  2
   9931   9930   9932   9935     1  0.0000000  0.0000000  2
   9933   9932   9934   9938     1  0.0000000  0.6508444  3
   9933   9932   9934   9936     1  0.0000000  0.6508444  3
   9933   9932   9934   9937     1  0.0000000  0.6508444  3
   9934   9938   9939   9948     1  0.0000000  1.2552000  3
   9934   9938   9939   9949     1  0.0000000  1.2552000  3
   9934   9938   9940   9941     1  0.0000000  1.2552000  3
   9934   9938   9940   9943     1  0.0000000  1.2552000  3
   9935   9932   9934   9938     1  0.0000000  0.6508444  3
   9935   9932   9934   9936     1  0.0000000  0.6508444  3
   9935   9932   9934   9937     1  0.0000000  0.6508444  3
   9936   9934   9938   9939     1  0.0000000  1.2552000  3
   9936   9934   9938   9940     1  0.0000000  1.2552000  3
   9937   9934   9938   9939     1  0.0000000  1.2552000  3
   9937   9934   9938   9940     1  0.0000000  1.2552000  3
   9938   9939   9950   9951     1  0.0000000  0.6508444  3
   9938   9939   9950   9952     1  0.0000000  0.6508444  3
   9938   9940   9942   9944     1  0.0000000  0.6508444  3
   9938   9940   9942   9945     1  0.0000000  0.6508444  3
   9939   9938   9940   9941     1  0.0000000  1.2552000  3
   9939   9938   9940   9943     1  0.0000000  1.2552000  3
   9940   9938   9939   9948     1  0.0000000  1.2552000  3
   9940   9938   9939   9949     1  0.0000000  1.2552000  3
   9941   9940   9942   9946     1  0.0000000  0.6508444  3
   9941   9940   9942   9944     1  0.0000000  0.6508444  3
   9941   9940   9942   9945     1  0.0000000  0.6508444  3
   9942   9946   9978   9968     1  180.0000771  6.0668000  2
   9942   9946   9978   9968     1  180.0000771  1.4644000  4
   9943   9940   9942   9946     1  0.0000000  0.6508444  3
   9943   9940   9942   9944     1  0.0000000  0.6508444  3
   9943   9940   9942   9945     1  0.0000000  0.6508444  3
   9944   9942   9946   9947     1  0.0000000  3.3472000  1
   9944   9942   9946   9947     1  0.0000000  0.0000000  2
   9944   9942   9946   9947     1  180.0000771  0.3347200  3
   9944   9942   9946   9978     1  180.0000771  0.0000000  2
   9945   9942   9946   9947     1  0.0000000  3.3472000  1
   9945   9942   9946   9947     1  0.0000000  0.0000000  2
   9945   9942   9946   9947     1  180.0000771  0.3347200  3
   9945   9942   9946   9978     1  180.0000771  0.0000000  2
   9946   9978   9959   9961     1  0.0000000  1.2552000  3
   9947   9946   9978   9968     1  180.0000771  6.0668000  2
   9947   9946   9978   9968     1  180.0000771  1.4644000  4
   9948   9939   9950   9953     1  0.0000000  0.6508444  3
   9948   9939   9950   9951     1  0.0000000  0.6508444  3
   9948   9939   9950   9952     1  0.0000000  0.6508444  3
   9949   9939   9950   9953     1  0.0000000  0.6508444  3
   9949   9939   9950   9951     1  0.0000000  0.6508444  3
   9949   9939   9950   9952     1  0.0000000  0.6508444  3
   9950   9953  10002   9992     1  180.0000771  6.0668000  2
   9950   9953  10002   9992     1  180.0000771  1.4644000  4
   9951   9950   9953   9954     1  0.0000000  3.3472000  1
   9951   9950   9953   9954     1  0.0000000  0.0000000  2
   9951   9950   9953   9954     1  180.0000771  0.3347200  3
   9951   9950   9953  10002     1  180.0000771  0.0000000  2
   9952   9950   9953   9954     1  0.0000000  3.3472000  1
   9952   9950   9953   9954     1  0.0000000  0.0000000  2
   9952   9950   9953   9954     1  180.0000771  0.3347200  3
   9952   9950   9953  10002     1  180.0000771  0.0000000  2
   9953  10002   9983   9985     1  0.0000000  1.2552000  3
   9954   9953  10002   9992     1  180.0000771  6.0668000  2
   9954   9953  10002   9992     1  180.0000771  1.4644000  4
   9955   9956   9958   9962     1  0.0000000  0.6508444  3
   9955   9956   9976   9977     1  0.0000000  1.0460000  1
   9955   9956   9976   9977     1  0.0000000  0.6694400  3
   9955   9966   9971   9972     1  0.0000000  1.0460000  1
   9955   9966   9971   9972     1  0.0000000  0.6694400  3
   9955   9973   9960   9963     1  0.0000000  1.6038667  3
   9956   9958   9959   9961     1  0.0000000  0.6508444  3
   9956   9958   9965   9967     1  0.0000000  1.0460000  1
   9956   9958   9965   9967     1  0.0000000  0.6694400  3
   9956   9955   9966   9969     1  0.0000000  0.6508444  3
   9956   9955   9966   9970     1  0.0000000  0.6508444  3
   9957   9955   9956   9958     1  0.0000000  0.6508444  3
   9957   9955   9956   9976     1  0.0000000  1.0460000  1
   9957   9955   9956   9976     1  0.0000000  0.0000000  3
   9957   9955   9956   9975     1  0.0000000  0.6508444  3
   9957   9955   9966   9971     1  0.0000000  1.0460000  1
   9957   9955   9966   9971     1  0.0000000  0.0000000  3
   9957   9955   9966   9969     1  0.0000000  0.6508444  3
   9957   9955   9966   9970     1  0.0000000  0.6508444  3
   9957   9955   9973   9960     1  0.0000000  1.6038667  3
   9958   9959   9960   9963     1  0.0000000  0.6508444  3
   9958   9959   9978   9968     1  0.0000000  1.2552000  3
   9958   9956   9976   9977     1  0.0000000  1.0460000  1
   9958   9956   9976   9977     1  0.0000000  0.6694400  3
   9959   9960   9964   9974     1  0.0000000  1.0460000  1
   9959   9960   9964   9974     1  0.0000000  0.6694400  3
   9959   9958   9965   9967     1  0.0000000  1.0460000  1
   9959   9958   9965   9967     1  0.0000000  0.6694400  3
   9959   9958   9956   9975     1  0.0000000  0.6508444  3
   9960   9959   9978   9968     1  0.0000000  1.2552000  3
   9960   9959   9958   9962     1  0.0000000  0.6508444  3
   9961   9959   9960   9964     1  0.0000000  1.0460000  1
   9961   9959   9960   9964     1  0.0000000  0.0000000  3
   9961   9959   9960   9973     1  0.0000000  1.0460000  1
   9961   9959   9960   9973     1  0.0000000  0.0000000  3
   9961   9959   9960   9963     1  0.0000000  0.6508444  3
   9961   9959   9978   9968     1  0.0000000  1.2552000  3
   9961   9959   9958   9965     1  0.0000000  1.0460000  1
   9961   9959   9958   9965     1  0.0000000  0.0000000  3
   9961   9959   9958   9962     1  0.0000000  0.6508444  3
   9962   9958   9959   9978     1  0.0000000  0.6508444  3
   9962   9958   9965   9967     1  0.0000000  0.6973333  3
   9962   9958   9956   9976     1  0.0000000  1.0460000  1
   9962   9958   9956   9976     1  0.0000000  0.0000000  3
   9962   9958   9956   9975     1  0.0000000  0.6508444  3
   9963   9960   9964   9974     1  0.0000000  0.6973333  3
   9963   9960   9959   9978     1  0.0000000  0.6508444  3
   9965   9958   9956   9975     1  0.0000000  1.0460000  1
   9965   9958   9956   9975     1  0.0000000  0.0000000  3
   9966   9955   9956   9975     1  0.0000000  0.6508444  3
   9969   9966   9971   9972     1  0.0000000  0.6973333  3
   9969   9966   9955   9973     1  0.0000000  1.0460000  1
   9969   9966   9955   9973     1  0.0000000  0.0000000  3
   9970   9966   9971   9972     1  0.0000000  0.6973333  3
   9970   9966   9955   9973     1  0.0000000  1.0460000  1
   9970   9966   9955   9973     1  0.0000000  0.0000000  3
   9973   9960   9964   9974     1  0.0000000  0.6973333  3
   9973   9955   9956   9975     1  0.0000000  1.0460000  1
   9973   9955   9956   9975     1  0.0000000  0.0000000  3
   9975   9956   9976   9977     1  0.0000000  0.6973333  3
   9979   9980   9982   9986     1  0.0000000  0.6508444  3
   9979   9980  10000  10001     1  0.0000000  1.0460000  1
   9979   9980  10000  10001     1  0.0000000  0.6694400  3
   9979   9990   9995   9996     1  0.0000000  1.0460000  1
   9979   9990   9995   9996     1  0.0000000  0.6694400  3
   9979   9997   9984   9987     1  0.0000000  1.6038667  3
   9980   9982   9983   9985     1  0.0000000  0.6508444  3
   9980   9982   9989   9991     1  0.0000000  1.0460000  1
   9980   9982   9989   9991     1  0.0000000  0.6694400  3
   9980   9979   9990   9993     1  0.0000000  0.6508444  3
   9980   9979   9990   9994     1  0.0000000  0.6508444  3
   9981   9979   9980   9982     1  0.0000000  0.6508444  3
   9981   9979   9980  10000     1  0.0000000  1.0460000  1
   9981   9979   9980  10000     1  0.0000000  0.0000000  3
   9981   9979   9980   9999     1  0.0000000  0.6508444  3
   9981   9979   9990   9995     1  0.0000000  1.0460000  1
   9981   9979   9990   9995     1  0.0000000  0.0000000  3
   9981   9979   9990   9993     1  0.0000000  0.6508444  3
   9981   9979   9990   9994     1  0.0000000  0.6508444  3
   9981   9979   9997   9984     1  0.0000000  1.6038667  3
   9982   9983   9984   9987     1  0.0000000  0.6508444  3
   9982   9983  10002   9992     1  0.0000000  1.2552000  3
   9982   9980  10000  10001     1  0.0000000  1.0460000  1
   9982   9980  10000  10001     1  0.0000000  0.6694400  3
   9983   9984   9988   9998     1  0.0000000  1.0460000  1
   9983   9984   9988   9998     1  0.0000000  0.6694400  3
   9983   9982   9989   9991     1  0.0000000  1.0460000  1
   9983   9982   9989   9991     1  0.0000000  0.6694400  3
   9983   9982   9980   9999     1  0.0000000  0.6508444  3
   9984   9983  10002   9992     1  0.0000000  1.2552000  3
   9984   9983   9982   9986     1  0.0000000  0.6508444  3
   9985   9983   9984   9988     1  0.0000000  1.0460000  1
   9985   9983   9984   9988     1  0.0000000  0.0000000  3
   9985   9983   9984   9997     1  0.0000000  1.0460000  1
   9985   9983   9984   9997     1  0.0000000  0.0000000  3
   9985   9983   9984   9987     1  0.0000000  0.6508444  3
   9985   9983  10002   9992     1  0.0000000  1.2552000  3
   9985   9983   9982   9989     1  0.0000000  1.0460000  1
   9985   9983   9982   9989     1  0.0000000  0.0000000  3
   9985   9983   9982   9986     1  0.0000000  0.6508444  3
   9986   9982   9983  10002     1  0.0000000  0.6508444  3
   9986   9982   9989   9991     1  0.0000000  0.6973333  3
   9986   9982   9980  10000     1  0.0000000  1.0460000  1
   9986   9982   9980  10000     1  0.0000000  0.0000000  3
   9986   9982   9980   9999     1  0.0000000  0.6508444  3
   9987   9984   9988   9998     1  0.0000000  0.6973333  3
   9987   9984   9983  10002     1  0.0000000  0.6508444  3
   9989   9982   9980   9999     1  0.0000000  1.0460000  1
   9989   9982   9980   9999     1  0.0000000  0.0000000  3
   9990   9979   9980   9999     1  0.0000000  0.6508444  3
   9993   9990   9995   9996     1  0.0000000  0.6973333  3
   9993   9990   9979   9997     1  0.0000000  1.0460000  1
   9993   9990   9979   9997     1  0.0000000  0.0000000  3
   9994   9990   9995   9996     1  0.0000000  0.6973333  3
   9994   9990   9979   9997     1  0.0000000  1.0460000  1
   9994   9990   9979   9997     1  0.0000000  0.0000000  3
   9997   9984   9988   9998     1  0.0000000  0.6973333  3
   9997   9979   9980   9999     1  0.0000000  1.0460000  1
   9997   9979   9980   9999     1  0.0000000  0.0000000  3
   9999   9980  10000  10001     1  0.0000000  0.6973333  3
  10003  10005  10007  10009     1  0.0000000  0.6508444  3
  10003  10005  10007  10010     1  0.0000000  0.6508444  3
  10004  10003  10005  10007     1  0.0000000  0.0000000  2
  10004  10003  10005  10006     1  0.0000000  0.0000000  2
  10004  10003  10005  10008     1  0.0000000  0.0000000  2
  10006  10005  10007  10011     1  0.0000000  0.6508444  3
  10006  10005  10007  10009     1  0.0000000  0.6508444  3
  10006  10005  10007  10010     1  0.0000000  0.6508444  3
  10007  10011  10012  10021     1  0.0000000  1.2552000  3
  10007  10011  10012  10022     1  0.0000000  1.2552000  3
  10007  10011  10013  10014     1  0.0000000  1.2552000  3
  10007  10011  10013  10016     1  0.0000000  1.2552000  3
  10008  10005  10007  10011     1  0.0000000  0.6508444  3
  10008  10005  10007  10009     1  0.0000000  0.6508444  3
  10008  10005  10007  10010     1  0.0000000  0.6508444  3
  10009  10007  10011  10012     1  0.0000000  1.2552000  3
  10009  10007  10011  10013     1  0.0000000  1.2552000  3
  10010  10007  10011  10012     1  0.0000000  1.2552000  3
  10010  10007  10011  10013     1  0.0000000  1.2552000  3
  10011  10012  10023  10024     1  0.0000000  0.6508444  3
  10011  10012  10023  10025     1  0.0000000  0.6508444  3
  10011  10013  10015  10017     1  0.0000000  0.6508444  3
  10011  10013  10015  10018     1  0.0000000  0.6508444  3
  10012  10011  10013  10014     1  0.0000000  1.2552000  3
  10012  10011  10013  10016     1  0.0000000  1.2552000  3
  10013  10011  10012  10021     1  0.0000000  1.2552000  3
  10013  10011  10012  10022     1  0.0000000  1.2552000  3
  10014  10013  10015  10019     1  0.0000000  0.6508444  3
  10014  10013  10015  10017     1  0.0000000  0.6508444  3
  10014  10013  10015  10018     1  0.0000000  0.6508444  3
  10015  10019  10051  10041     1  180.0000771  6.0668000  2
  10015  10019  10051  10041     1  180.0000771  1.4644000  4
  10016  10013  10015  10019     1  0.0000000  0.6508444  3
  10016  10013  10015  10017     1  0.0000000  0.6508444  3
  10016  10013  10015  10018     1  0.0000000  0.6508444  3
  10017  10015  10019  10020     1  0.0000000  3.3472000  1
  10017  10015  10019  10020     1  0.0000000  0.0000000  2
  10017  10015  10019  10020     1  180.0000771  0.3347200  3
  10017  10015  10019  10051     1  180.0000771  0.0000000  2
  10018  10015  10019  10020     1  0.0000000  3.3472000  1
  10018  10015  10019  10020     1  0.0000000  0.0000000  2
  10018  10015  10019  10020     1  180.0000771  0.3347200  3
  10018  10015  10019  10051     1  180.0000771  0.0000000  2
  10019  10051  10032  10034     1  0.0000000  1.2552000  3
  10020  10019  10051  10041     1  180.0000771  6.0668000  2
  10020  10019  10051  10041     1  180.0000771  1.4644000  4
  10021  10012  10023  10026     1  0.0000000  0.6508444  3
  10021  10012  10023  10024     1  0.0000000  0.6508444  3
  10021  10012  10023  10025     1  0.0000000  0.6508444  3
  10022  10012  10023  10026     1  0.0000000  0.6508444  3
  10022  10012  10023  10024     1  0.0000000  0.6508444  3
  10022  10012  10023  10025     1  0.0000000  0.6508444  3
  10023  10026  10075  10065     1  180.0000771  6.0668000  2
  10023  10026  10075  10065     1  180.0000771  1.4644000  4
  10024  10023  10026  10027     1  0.0000000  3.3472000  1
  10024  10023  10026  10027     1  0.0000000  0.0000000  2
  10024  10023  10026  10027     1  180.0000771  0.3347200  3
  10024  10023  10026  10075     1  180.0000771  0.0000000  2
  10025  10023  10026  10027     1  0.0000000  3.3472000  1
  10025  10023  10026  10027     1  0.0000000  0.0000000  2
  10025  10023  10026  10027     1  180.0000771  0.3347200  3
  10025  10023  10026  10075     1  180.0000771  0.0000000  2
  10026  10075  10056  10058     1  0.0000000  1.2552000  3
  10027  10026  10075  10065     1  180.0000771  6.0668000  2
  10027  10026  10075  10065     1  180.0000771  1.4644000  4
  10028  10029  10031  10035     1  0.0000000  0.6508444  3
  10028  10029  10049  10050     1  0.0000000  1.0460000  1
  10028  10029  10049  10050     1  0.0000000  0.6694400  3
  10028  10039  10044  10045     1  0.0000000  1.0460000  1
  10028  10039  10044  10045     1  0.0000000  0.6694400  3
  10028  10046  10033  10036     1  0.0000000  1.6038667  3
  10029  10028  10039  10042     1  0.0000000  0.6508444  3
  10029  10028  10039  10043     1  0.0000000  0.6508444  3
  10029  10031  10032  10034     1  0.0000000  0.6508444  3
  10029  10031  10038  10040     1  0.0000000  1.0460000  1
  10029  10031  10038  10040     1  0.0000000  0.6694400  3
  10030  10028  10029  10031     1  0.0000000  0.6508444  3
  10030  10028  10029  10049     1  0.0000000  1.0460000  1
  10030  10028  10029  10049     1  0.0000000  0.0000000  3
  10030  10028  10029  10048     1  0.0000000  0.6508444  3
  10030  10028  10039  10044     1  0.0000000  1.0460000  1
  10030  10028  10039  10044     1  0.0000000  0.0000000  3
  10030  10028  10039  10042     1  0.0000000  0.6508444  3
  10030  10028  10039  10043     1  0.0000000  0.6508444  3
  10030  10028  10046  10033     1  0.0000000  1.6038667  3
  10031  10029  10049  10050     1  0.0000000  1.0460000  1
  10031  10029  10049  10050     1  0.0000000  0.6694400  3
  10031  10032  10033  10036     1  0.0000000  0.6508444  3
  10031  10032  10051  10041     1  0.0000000  1.2552000  3
  10032  10031  10029  10048     1  0.0000000  0.6508444  3
  10032  10031  10038  10040     1  0.0000000  1.0460000  1
  10032  10031  10038  10040     1  0.0000000  0.6694400  3
  10032  10033  10037  10047     1  0.0000000  1.0460000  1
  10032  10033  10037  10047     1  0.0000000  0.6694400  3
  10033  10032  10031  10035     1  0.0000000  0.6508444  3
  10033  10032  10051  10041     1  0.0000000  1.2552000  3
  10034  10032  10031  10038     1  0.0000000  1.0460000  1
  10034  10032  10031  10038     1  0.0000000  0.0000000  3
  10034  10032  10031  10035     1  0.0000000  0.6508444  3
  10034  10032  10033  10037     1  0.0000000  1.0460000  1
  10034  10032  10033  10037     1  0.0000000  0.0000000  3
  10034  10032  10033  10046     1  0.0000000  1.0460000  1
  10034  10032  10033  10046     1  0.0000000  0.0000000  3
  10034  10032  10033  10036     1  0.0000000  0.6508444  3
  10034  10032  10051  10041     1  0.0000000  1.2552000  3
  10035  10031  10029  10049     1  0.0000000  1.0460000  1
  10035  10031  10029  10049     1  0.0000000  0.0000000  3
  10035  10031  10029  10048     1  0.0000000  0.6508444  3
  10035  10031  10032  10051     1  0.0000000  0.6508444  3
  10035  10031  10038  10040     1  0.0000000  0.6973333  3
  10036  10033  10032  10051     1  0.0000000  0.6508444  3
  10036  10033  10037  10047     1  0.0000000  0.6973333  3
  10038  10031  10029  10048     1  0.0000000  1.0460000  1
  10038  10031  10029  10048     1  0.0000000  0.0000000  3
  10039  10028  10029  10048     1  0.0000000  0.6508444  3
  10042  10039  10028  10046     1  0.0000000  1.0460000  1
  10042  10039  10028  10046     1  0.0000000  0.0000000  3
  10042  10039  10044  10045     1  0.0000000  0.6973333  3
  10043  10039  10028  10046     1  0.0000000  1.0460000  1
  10043  10039  10028  10046     1  0.0000000  0.0000000  3
  10043  10039  10044  10045     1  0.0000000  0.6973333  3
  10046  10028  10029  10048     1  0.0000000  1.0460000  1
  10046  10028  10029  10048     1  0.0000000  0.0000000  3
  10046  10033  10037  10047     1  0.0000000  0.6973333  3
  10048  10029  10049  10050     1  0.0000000  0.6973333  3
  10052  10053  10055  10059     1  0.0000000  0.6508444  3
  10052  10053  10073  10074     1  0.0000000  1.0460000  1
  10052  10053  10073  10074     1  0.0000000  0.6694400  3
  10052  10063  10068  10069     1  0.0000000  1.0460000  1
  10052  10063  10068  10069     1  0.0000000  0.6694400  3
  10052  10070  10057  10060     1  0.0000000  1.6038667  3
  10053  10052  10063  10066     1  0.0000000  0.6508444  3
  10053  10052  10063  10067     1  0.0000000  0.6508444  3
  10053  10055  10056  10058     1  0.0000000  0.6508444  3
  10053  10055  10062  10064     1  0.0000000  1.0460000  1
  10053  10055  10062  10064     1  0.0000000  0.6694400  3
  10054  10052  10053  10055     1  0.0000000  0.6508444  3
  10054  10052  10053  10073     1  0.0000000  1.0460000  1
  10054  10052  10053  10073     1  0.0000000  0.0000000  3
  10054  10052  10053  10072     1  0.0000000  0.6508444  3
  10054  10052  10063  10068     1  0.0000000  1.0460000  1
  10054  10052  10063  10068     1  0.0000000  0.0000000  3
  10054  10052  10063  10066     1  0.0000000  0.6508444  3
  10054  10052  10063  10067     1  0.0000000  0.6508444  3
  10054  10052  10070  10057     1  0.0000000  1.6038667  3
  10055  10053  10073  10074     1  0.0000000  1.0460000  1
  10055  10053  10073  10074     1  0.0000000  0.6694400  3
  10055  10056  10057  10060     1  0.0000000  0.6508444  3
  10055  10056  10075  10065     1  0.0000000  1.2552000  3
  10056  10055  10053  10072     1  0.0000000  0.6508444  3
  10056  10055  10062  10064     1  0.0000000  1.0460000  1
  10056  10055  10062  10064     1  0.0000000  0.6694400  3
  10056  10057  10061  10071     1  0.0000000  1.0460000  1
  10056  10057  10061  10071     1  0.0000000  0.6694400  3
  10057  10056  10055  10059     1  0.0000000  0.6508444  3
  10057  10056  10075  10065     1  0.0000000  1.2552000  3
  10058  10056  10055  10062     1  0.0000000  1.0460000  1
  10058  10056  10055  10062     1  0.0000000  0.0000000  3
  10058  10056  10055  10059     1  0.0000000  0.6508444  3
  10058  10056  10057  10061     1  0.0000000  1.0460000  1
  10058  10056  10057  10061     1  0.0000000  0.0000000  3
  10058  10056  10057  10070     1  0.0000000  1.0460000  1
  10058  10056  10057  10070     1  0.0000000  0.0000000  3
  10058  10056  10057  10060     1  0.0000000  0.6508444  3
  10058  10056  10075  10065     1  0.0000000  1.2552000  3
  10059  10055  10053  10073     1  0.0000000  1.0460000  1
  10059  10055  10053  10073     1  0.0000000  0.0000000  3
  10059  10055  10053  10072     1  0.0000000  0.6508444  3
  10059  10055  10056  10075     1  0.0000000  0.6508444  3
  10059  10055  10062  10064     1  0.0000000  0.6973333  3
  10060  10057  10056  10075     1  0.0000000  0.6508444  3
  10060  10057  10061  10071     1  0.0000000  0.6973333  3
  10062  10055  10053  10072     1  0.0000000  1.0460000  1
  10062  10055  10053  10072     1  0.0000000  0.0000000  3
  10063  10052  10053  10072     1  0.0000000  0.6508444  3
  10066  10063  10052  10070     1  0.0000000  1.0460000  1
  10066  10063  10052  10070     1  0.0000000  0.0000000  3
  10066  10063  10068  10069     1  0.0000000  0.6973333  3
  10067  10063  10052  10070     1  0.0000000  1.0460000  1
  10067  10063  10052  10070     1  0.0000000  0.0000000  3
  10067  10063  10068  10069     1  0.0000000  0.6973333  3
  10070  10052  10053  10072     1  0.0000000  1.0460000  1
  10070  10052  10053  10072     1  0.0000000  0.0000000  3
  10070  10057  10061  10071     1  0.0000000  0.6973333  3
  10072  10053  10073  10074     1  0.0000000  0.6973333  3
  10076  10078  10080  10082     1  0.0000000  0.6508444  3
  10076  10078  10080  10083     1  0.0000000  0.6508444  3
  10077  10076  10078  10080     1  0.0000000  0.0000000  2
  10077  10076  10078  10079     1  0.0000000  0.0000000  2
  10077  10076  10078  10081     1  0.0000000  0.0000000  2
  10079  10078  10080  10084     1  0.0000000  0.6508444  3
  10079  10078  10080  10082     1  0.0000000  0.6508444  3
  10079  10078  10080  10083     1  0.0000000  0.6508444  3
  10080  10084  10085  10094     1  0.0000000  1.2552000  3
  10080  10084  10085  10095     1  0.0000000  1.2552000  3
  10080  10084  10086  10087     1  0.0000000  1.2552000  3
  10080  10084  10086  10089     1  0.0000000  1.2552000  3
  10081  10078  10080  10084     1  0.0000000  0.6508444  3
  10081  10078  10080  10082     1  0.0000000  0.6508444  3
  10081  10078  10080  10083     1  0.0000000  0.6508444  3
  10082  10080  10084  10085     1  0.0000000  1.2552000  3
  10082  10080  10084  10086     1  0.0000000  1.2552000  3
  10083  10080  10084  10085     1  0.0000000  1.2552000  3
  10083  10080  10084  10086     1  0.0000000  1.2552000  3
  10084  10085  10096  10097     1  0.0000000  0.6508444  3
  10084  10085  10096  10098     1  0.0000000  0.6508444  3
  10084  10086  10088  10090     1  0.0000000  0.6508444  3
  10084  10086  10088  10091     1  0.0000000  0.6508444  3
  10085  10084  10086  10087     1  0.0000000  1.2552000  3
  10085  10084  10086  10089     1  0.0000000  1.2552000  3
  10086  10084  10085  10094     1  0.0000000  1.2552000  3
  10086  10084  10085  10095     1  0.0000000  1.2552000  3
  10087  10086  10088  10092     1  0.0000000  0.6508444  3
  10087  10086  10088  10090     1  0.0000000  0.6508444  3
  10087  10086  10088  10091     1  0.0000000  0.6508444  3
  10088  10092  10124  10114     1  180.0000771  6.0668000  2
  10088  10092  10124  10114     1  180.0000771  1.4644000  4
  10089  10086  10088  10092     1  0.0000000  0.6508444  3
  10089  10086  10088  10090     1  0.0000000  0.6508444  3
  10089  10086  10088  10091     1  0.0000000  0.6508444  3
  10090  10088  10092  10093     1  0.0000000  3.3472000  1
  10090  10088  10092  10093     1  0.0000000  0.0000000  2
  10090  10088  10092  10093     1  180.0000771  0.3347200  3
  10090  10088  10092  10124     1  180.0000771  0.0000000  2
  10091  10088  10092  10093     1  0.0000000  3.3472000  1
  10091  10088  10092  10093     1  0.0000000  0.0000000  2
  10091  10088  10092  10093     1  180.0000771  0.3347200  3
  10091  10088  10092  10124     1  180.0000771  0.0000000  2
  10092  10124  10105  10107     1  0.0000000  1.2552000  3
  10093  10092  10124  10114     1  180.0000771  6.0668000  2
  10093  10092  10124  10114     1  180.0000771  1.4644000  4
  10094  10085  10096  10099     1  0.0000000  0.6508444  3
  10094  10085  10096  10097     1  0.0000000  0.6508444  3
  10094  10085  10096  10098     1  0.0000000  0.6508444  3
  10095  10085  10096  10099     1  0.0000000  0.6508444  3
  10095  10085  10096  10097     1  0.0000000  0.6508444  3
  10095  10085  10096  10098     1  0.0000000  0.6508444  3
  10096  10099  10148  10138     1  180.0000771  6.0668000  2
  10096  10099  10148  10138     1  180.0000771  1.4644000  4
  10097  10096  10099  10100     1  0.0000000  3.3472000  1
  10097  10096  10099  10100     1  0.0000000  0.0000000  2
  10097  10096  10099  10100     1  180.0000771  0.3347200  3
  10097  10096  10099  10148     1  180.0000771  0.0000000  2
  10098  10096  10099  10100     1  0.0000000  3.3472000  1
  10098  10096  10099  10100     1  0.0000000  0.0000000  2
  10098  10096  10099  10100     1  180.0000771  0.3347200  3
  10098  10096  10099  10148     1  180.0000771  0.0000000  2
  10099  10148  10129  10131     1  0.0000000  1.2552000  3
  10100  10099  10148  10138     1  180.0000771  6.0668000  2
  10100  10099  10148  10138     1  180.0000771  1.4644000  4
  10101  10102  10104  10108     1  0.0000000  0.6508444  3
  10101  10102  10122  10123     1  0.0000000  1.0460000  1
  10101  10102  10122  10123     1  0.0000000  0.6694400  3
  10101  10112  10117  10118     1  0.0000000  1.0460000  1
  10101  10112  10117  10118     1  0.0000000  0.6694400  3
  10101  10119  10106  10109     1  0.0000000  1.6038667  3
  10102  10104  10105  10107     1  0.0000000  0.6508444  3
  10102  10104  10111  10113     1  0.0000000  1.0460000  1
  10102  10104  10111  10113     1  0.0000000  0.6694400  3
  10102  10101  10112  10115     1  0.0000000  0.6508444  3
  10102  10101  10112  10116     1  0.0000000  0.6508444  3
  10103  10101  10102  10104     1  0.0000000  0.6508444  3
  10103  10101  10102  10122     1  0.0000000  1.0460000  1
  10103  10101  10102  10122     1  0.0000000  0.0000000  3
  10103  10101  10102  10121     1  0.0000000  0.6508444  3
  10103  10101  10112  10117     1  0.0000000  1.0460000  1
  10103  10101  10112  10117     1  0.0000000  0.0000000  3
  10103  10101  10112  10115     1  0.0000000  0.6508444  3
  10103  10101  10112  10116     1  0.0000000  0.6508444  3
  10103  10101  10119  10106     1  0.0000000  1.6038667  3
  10104  10105  10106  10109     1  0.0000000  0.6508444  3
  10104  10105  10124  10114     1  0.0000000  1.2552000  3
  10104  10102  10122  10123     1  0.0000000  1.0460000  1
  10104  10102  10122  10123     1  0.0000000  0.6694400  3
  10105  10106  10110  10120     1  0.0000000  1.0460000  1
  10105  10106  10110  10120     1  0.0000000  0.6694400  3
  10105  10104  10111  10113     1  0.0000000  1.0460000  1
  10105  10104  10111  10113     1  0.0000000  0.6694400  3
  10105  10104  10102  10121     1  0.0000000  0.6508444  3
  10106  10105  10124  10114     1  0.0000000  1.2552000  3
  10106  10105  10104  10108     1  0.0000000  0.6508444  3
  10107  10105  10106  10110     1  0.0000000  1.0460000  1
  10107  10105  10106  10110     1  0.0000000  0.0000000  3
  10107  10105  10106  10119     1  0.0000000  1.0460000  1
  10107  10105  10106  10119     1  0.0000000  0.0000000  3
  10107  10105  10106  10109     1  0.0000000  0.6508444  3
  10107  10105  10124  10114     1  0.0000000  1.2552000  3
  10107  10105  10104  10111     1  0.0000000  1.0460000  1
  10107  10105  10104  10111     1  0.0000000  0.0000000  3
  10107  10105  10104  10108     1  0.0000000  0.6508444  3
  10108  10104  10105  10124     1  0.0000000  0.6508444  3
  10108  10104  10111  10113     1  0.0000000  0.6973333  3
  10108  10104  10102  10122     1  0.0000000  1.0460000  1
  10108  10104  10102  10122     1  0.0000000  0.0000000  3
  10108  10104  10102  10121     1  0.0000000  0.6508444  3
  10109  10106  10110  10120     1  0.0000000  0.6973333  3
  10109  10106  10105  10124     1  0.0000000  0.6508444  3
  10111  10104  10102  10121     1  0.0000000  1.0460000  1
  10111  10104  10102  10121     1  0.0000000  0.0000000  3
  10112  10101  10102  10121     1  0.0000000  0.6508444  3
  10115  10112  10117  10118     1  0.0000000  0.6973333  3
  10115  10112  10101  10119     1  0.0000000  1.0460000  1
  10115  10112  10101  10119     1  0.0000000  0.0000000  3
  10116  10112  10117  10118     1  0.0000000  0.6973333  3
  10116  10112  10101  10119     1  0.0000000  1.0460000  1
  10116  10112  10101  10119     1  0.0000000  0.0000000  3
  10119  10106  10110  10120     1  0.0000000  0.6973333  3
  10119  10101  10102  10121     1  0.0000000  1.0460000  1
  10119  10101  10102  10121     1  0.0000000  0.0000000  3
  10121  10102  10122  10123     1  0.0000000  0.6973333  3
  10125  10126  10128  10132     1  0.0000000  0.6508444  3
  10125  10126  10146  10147     1  0.0000000  1.0460000  1
  10125  10126  10146  10147     1  0.0000000  0.6694400  3
  10125  10136  10141  10142     1  0.0000000  1.0460000  1
  10125  10136  10141  10142     1  0.0000000  0.6694400  3
  10125  10143  10130  10133     1  0.0000000  1.6038667  3
  10126  10128  10129  10131     1  0.0000000  0.6508444  3
  10126  10128  10135  10137     1  0.0000000  1.0460000  1
  10126  10128  10135  10137     1  0.0000000  0.6694400  3
  10126  10125  10136  10139     1  0.0000000  0.6508444  3
  10126  10125  10136  10140     1  0.0000000  0.6508444  3
  10127  10125  10126  10128     1  0.0000000  0.6508444  3
  10127  10125  10126  10146     1  0.0000000  1.0460000  1
  10127  10125  10126  10146     1  0.0000000  0.0000000  3
  10127  10125  10126  10145     1  0.0000000  0.6508444  3
  10127  10125  10136  10141     1  0.0000000  1.0460000  1
  10127  10125  10136  10141     1  0.0000000  0.0000000  3
  10127  10125  10136  10139     1  0.0000000  0.6508444  3
  10127  10125  10136  10140     1  0.0000000  0.6508444  3
  10127  10125  10143  10130     1  0.0000000  1.6038667  3
  10128  10129  10130  10133     1  0.0000000  0.6508444  3
  10128  10129  10148  10138     1  0.0000000  1.2552000  3
  10128  10126  10146  10147     1  0.0000000  1.0460000  1
  10128  10126  10146  10147     1  0.0000000  0.6694400  3
  10129  10130  10134  10144     1  0.0000000  1.0460000  1
  10129  10130  10134  10144     1  0.0000000  0.6694400  3
  10129  10128  10135  10137     1  0.0000000  1.0460000  1
  10129  10128  10135  10137     1  0.0000000  0.6694400  3
  10129  10128  10126  10145     1  0.0000000  0.6508444  3
  10130  10129  10148  10138     1  0.0000000  1.2552000  3
  10130  10129  10128  10132     1  0.0000000  0.6508444  3
  10131  10129  10130  10134     1  0.0000000  1.0460000  1
  10131  10129  10130  10134     1  0.0000000  0.0000000  3
  10131  10129  10130  10143     1  0.0000000  1.0460000  1
  10131  10129  10130  10143     1  0.0000000  0.0000000  3
  10131  10129  10130  10133     1  0.0000000  0.6508444  3
  10131  10129  10148  10138     1  0.0000000  1.2552000  3
  10131  10129  10128  10135     1  0.0000000  1.0460000  1
  10131  10129  10128  10135     1  0.0000000  0.0000000  3
  10131  10129  10128  10132     1  0.0000000  0.6508444  3
  10132  10128  10129  10148     1  0.0000000  0.6508444  3
  10132  10128  10135  10137     1  0.0000000  0.6973333  3
  10132  10128  10126  10146     1  0.0000000  1.0460000  1
  10132  10128  10126  10146     1  0.0000000  0.0000000  3
  10132  10128  10126  10145     1  0.0000000  0.6508444  3
  10133  10130  10134  10144     1  0.0000000  0.6973333  3
  10133  10130  10129  10148     1  0.0000000  0.6508444  3
  10135  10128  10126  10145     1  0.0000000  1.0460000  1
  10135  10128  10126  10145     1  0.0000000  0.0000000  3
  10136  10125  10126  10145     1  0.0000000  0.6508444  3
  10139  10136  10141  10142     1  0.0000000  0.6973333  3
  10139  10136  10125  10143     1  0.0000000  1.0460000  1
  10139  10136  10125  10143     1  0.0000000  0.0000000  3
  10140  10136  10141  10142     1  0.0000000  0.6973333  3
  10140  10136  10125  10143     1  0.0000000  1.0460000  1
  10140  10136  10125  10143     1  0.0000000  0.0000000  3
  10143  10130  10134  10144     1  0.0000000  0.6973333  3
  10143  10125  10126  10145     1  0.0000000  1.0460000  1
  10143  10125  10126  10145     1  0.0000000  0.0000000  3
  10145  10126  10146  10147     1  0.0000000  0.6973333  3
  10149  10151  10153  10155     1  0.0000000  0.6508444  3
  10149  10151  10153  10156     1  0.0000000  0.6508444  3
  10150  10149  10151  10153     1  0.0000000  0.0000000  2
  10150  10149  10151  10152     1  0.0000000  0.0000000  2
  10150  10149  10151  10154     1  0.0000000  0.0000000  2
  10152  10151  10153  10157     1  0.0000000  0.6508444  3
  10152  10151  10153  10155     1  0.0000000  0.6508444  3
  10152  10151  10153  10156     1  0.0000000  0.6508444  3
  10153  10157  10158  10167     1  0.0000000  1.2552000  3
  10153  10157  10158  10168     1  0.0000000  1.2552000  3
  10153  10157  10159  10160     1  0.0000000  1.2552000  3
  10153  10157  10159  10162     1  0.0000000  1.2552000  3
  10154  10151  10153  10157     1  0.0000000  0.6508444  3
  10154  10151  10153  10155     1  0.0000000  0.6508444  3
  10154  10151  10153  10156     1  0.0000000  0.6508444  3
  10155  10153  10157  10158     1  0.0000000  1.2552000  3
  10155  10153  10157  10159     1  0.0000000  1.2552000  3
  10156  10153  10157  10158     1  0.0000000  1.2552000  3
  10156  10153  10157  10159     1  0.0000000  1.2552000  3
  10157  10158  10169  10170     1  0.0000000  0.6508444  3
  10157  10158  10169  10171     1  0.0000000  0.6508444  3
  10157  10159  10161  10163     1  0.0000000  0.6508444  3
  10157  10159  10161  10164     1  0.0000000  0.6508444  3
  10158  10157  10159  10160     1  0.0000000  1.2552000  3
  10158  10157  10159  10162     1  0.0000000  1.2552000  3
  10159  10157  10158  10167     1  0.0000000  1.2552000  3
  10159  10157  10158  10168     1  0.0000000  1.2552000  3
  10160  10159  10161  10165     1  0.0000000  0.6508444  3
  10160  10159  10161  10163     1  0.0000000  0.6508444  3
  10160  10159  10161  10164     1  0.0000000  0.6508444  3
  10161  10165  10197  10187     1  180.0000771  6.0668000  2
  10161  10165  10197  10187     1  180.0000771  1.4644000  4
  10162  10159  10161  10165     1  0.0000000  0.6508444  3
  10162  10159  10161  10163     1  0.0000000  0.6508444  3
  10162  10159  10161  10164     1  0.0000000  0.6508444  3
  10163  10161  10165  10166     1  0.0000000  3.3472000  1
  10163  10161  10165  10166     1  0.0000000  0.0000000  2
  10163  10161  10165  10166     1  180.0000771  0.3347200  3
  10163  10161  10165  10197     1  180.0000771  0.0000000  2
  10164  10161  10165  10166     1  0.0000000  3.3472000  1
  10164  10161  10165  10166     1  0.0000000  0.0000000  2
  10164  10161  10165  10166     1  180.0000771  0.3347200  3
  10164  10161  10165  10197     1  180.0000771  0.0000000  2
  10165  10197  10178  10180     1  0.0000000  1.2552000  3
  10166  10165  10197  10187     1  180.0000771  6.0668000  2
  10166  10165  10197  10187     1  180.0000771  1.4644000  4
  10167  10158  10169  10172     1  0.0000000  0.6508444  3
  10167  10158  10169  10170     1  0.0000000  0.6508444  3
  10167  10158  10169  10171     1  0.0000000  0.6508444  3
  10168  10158  10169  10172     1  0.0000000  0.6508444  3
  10168  10158  10169  10170     1  0.0000000  0.6508444  3
  10168  10158  10169  10171     1  0.0000000  0.6508444  3
  10169  10172  10221  10211     1  180.0000771  6.0668000  2
  10169  10172  10221  10211     1  180.0000771  1.4644000  4
  10170  10169  10172  10173     1  0.0000000  3.3472000  1
  10170  10169  10172  10173     1  0.0000000  0.0000000  2
  10170  10169  10172  10173     1  180.0000771  0.3347200  3
  10170  10169  10172  10221     1  180.0000771  0.0000000  2
  10171  10169  10172  10173     1  0.0000000  3.3472000  1
  10171  10169  10172  10173     1  0.0000000  0.0000000  2
  10171  10169  10172  10173     1  180.0000771  0.3347200  3
  10171  10169  10172  10221     1  180.0000771  0.0000000  2
  10172  10221  10202  10204     1  0.0000000  1.2552000  3
  10173  10172  10221  10211     1  180.0000771  6.0668000  2
  10173  10172  10221  10211     1  180.0000771  1.4644000  4
  10174  10175  10177  10181     1  0.0000000  0.6508444  3
  10174  10175  10195  10196     1  0.0000000  1.0460000  1
  10174  10175  10195  10196     1  0.0000000  0.6694400  3
  10174  10185  10190  10191     1  0.0000000  1.0460000  1
  10174  10185  10190  10191     1  0.0000000  0.6694400  3
  10174  10192  10179  10182     1  0.0000000  1.6038667  3
  10175  10174  10185  10188     1  0.0000000  0.6508444  3
  10175  10174  10185  10189     1  0.0000000  0.6508444  3
  10175  10177  10178  10180     1  0.0000000  0.6508444  3
  10175  10177  10184  10186     1  0.0000000  1.0460000  1
  10175  10177  10184  10186     1  0.0000000  0.6694400  3
  10176  10174  10175  10177     1  0.0000000  0.6508444  3
  10176  10174  10175  10195     1  0.0000000  1.0460000  1
  10176  10174  10175  10195     1  0.0000000  0.0000000  3
  10176  10174  10175  10194     1  0.0000000  0.6508444  3
  10176  10174  10185  10190     1  0.0000000  1.0460000  1
  10176  10174  10185  10190     1  0.0000000  0.0000000  3
  10176  10174  10185  10188     1  0.0000000  0.6508444  3
  10176  10174  10185  10189     1  0.0000000  0.6508444  3
  10176  10174  10192  10179     1  0.0000000  1.6038667  3
  10177  10175  10195  10196     1  0.0000000  1.0460000  1
  10177  10175  10195  10196     1  0.0000000  0.6694400  3
  10177  10178  10179  10182     1  0.0000000  0.6508444  3
  10177  10178  10197  10187     1  0.0000000  1.2552000  3
  10178  10177  10175  10194     1  0.0000000  0.6508444  3
  10178  10177  10184  10186     1  0.0000000  1.0460000  1
  10178  10177  10184  10186     1  0.0000000  0.6694400  3
  10178  10179  10183  10193     1  0.0000000  1.0460000  1
  10178  10179  10183  10193     1  0.0000000  0.6694400  3
  10179  10178  10177  10181     1  0.0000000  0.6508444  3
  10179  10178  10197  10187     1  0.0000000  1.2552000  3
  10180  10178  10177  10184     1  0.0000000  1.0460000  1
  10180  10178  10177  10184     1  0.0000000  0.0000000  3
  10180  10178  10177  10181     1  0.0000000  0.6508444  3
  10180  10178  10179  10183     1  0.0000000  1.0460000  1
  10180  10178  10179  10183     1  0.0000000  0.0000000  3
  10180  10178  10179  10192     1  0.0000000  1.0460000  1
  10180  10178  10179  10192     1  0.0000000  0.0000000  3
  10180  10178  10179  10182     1  0.0000000  0.6508444  3
  10180  10178  10197  10187     1  0.0000000  1.2552000  3
  10181  10177  10175  10195     1  0.0000000  1.0460000  1
  10181  10177  10175  10195     1  0.0000000  0.0000000  3
  10181  10177  10175  10194     1  0.0000000  0.6508444  3
  10181  10177  10178  10197     1  0.0000000  0.6508444  3
  10181  10177  10184  10186     1  0.0000000  0.6973333  3
  10182  10179  10178  10197     1  0.0000000  0.6508444  3
  10182  10179  10183  10193     1  0.0000000  0.6973333  3
  10184  10177  10175  10194     1  0.0000000  1.0460000  1
  10184  10177  10175  10194     1  0.0000000  0.0000000  3
  10185  10174  10175  10194     1  0.0000000  0.6508444  3
  10188  10185  10174  10192     1  0.0000000  1.0460000  1
  10188  10185  10174  10192     1  0.0000000  0.0000000  3
  10188  10185  10190  10191     1  0.0000000  0.6973333  3
  10189  10185  10174  10192     1  0.0000000  1.0460000  1
  10189  10185  10174  10192     1  0.0000000  0.0000000  3
  10189  10185  10190  10191     1  0.0000000  0.6973333  3
  10192  10174  10175  10194     1  0.0000000  1.0460000  1
  10192  10174  10175  10194     1  0.0000000  0.0000000  3
  10192  10179  10183  10193     1  0.0000000  0.6973333  3
  10194  10175  10195  10196     1  0.0000000  0.6973333  3
  10198  10199  10201  10205     1  0.0000000  0.6508444  3
  10198  10199  10219  10220     1  0.0000000  1.0460000  1
  10198  10199  10219  10220     1  0.0000000  0.6694400  3
  10198  10209  10214  10215     1  0.0000000  1.0460000  1
  10198  10209  10214  10215     1  0.0000000  0.6694400  3
  10198  10216  10203  10206     1  0.0000000  1.6038667  3
  10199  10198  10209  10212     1  0.0000000  0.6508444  3
  10199  10198  10209  10213     1  0.0000000  0.6508444  3
  10199  10201  10202  10204     1  0.0000000  0.6508444  3
  10199  10201  10208  10210     1  0.0000000  1.0460000  1
  10199  10201  10208  10210     1  0.0000000  0.6694400  3
  10200  10198  10199  10201     1  0.0000000  0.6508444  3
  10200  10198  10199  10219     1  0.0000000  1.0460000  1
  10200  10198  10199  10219     1  0.0000000  0.0000000  3
  10200  10198  10199  10218     1  0.0000000  0.6508444  3
  10200  10198  10209  10214     1  0.0000000  1.0460000  1
  10200  10198  10209  10214     1  0.0000000  0.0000000  3
  10200  10198  10209  10212     1  0.0000000  0.6508444  3
  10200  10198  10209  10213     1  0.0000000  0.6508444  3
  10200  10198  10216  10203     1  0.0000000  1.6038667  3
  10201  10199  10219  10220     1  0.0000000  1.0460000  1
  10201  10199  10219  10220     1  0.0000000  0.6694400  3
  10201  10202  10203  10206     1  0.0000000  0.6508444  3
  10201  10202  10221  10211     1  0.0000000  1.2552000  3
  10202  10201  10199  10218     1  0.0000000  0.6508444  3
  10202  10201  10208  10210     1  0.0000000  1.0460000  1
  10202  10201  10208  10210     1  0.0000000  0.6694400  3
  10202  10203  10207  10217     1  0.0000000  1.0460000  1
  10202  10203  10207  10217     1  0.0000000  0.6694400  3
  10203  10202  10201  10205     1  0.0000000  0.6508444  3
  10203  10202  10221  10211     1  0.0000000  1.2552000  3
  10204  10202  10201  10208     1  0.0000000  1.0460000  1
  10204  10202  10201  10208     1  0.0000000  0.0000000  3
  10204  10202  10201  10205     1  0.0000000  0.6508444  3
  10204  10202  10203  10207     1  0.0000000  1.0460000  1
  10204  10202  10203  10207     1  0.0000000  0.0000000  3
  10204  10202  10203  10216     1  0.0000000  1.0460000  1
  10204  10202  10203  10216     1  0.0000000  0.0000000  3
  10204  10202  10203  10206     1  0.0000000  0.6508444  3
  10204  10202  10221  10211     1  0.0000000  1.2552000  3
  10205  10201  10199  10219     1  0.0000000  1.0460000  1
  10205  10201  10199  10219     1  0.0000000  0.0000000  3
  10205  10201  10199  10218     1  0.0000000  0.6508444  3
  10205  10201  10202  10221     1  0.0000000  0.6508444  3
  10205  10201  10208  10210     1  0.0000000  0.6973333  3
  10206  10203  10202  10221     1  0.0000000  0.6508444  3
  10206  10203  10207  10217     1  0.0000000  0.6973333  3
  10208  10201  10199  10218     1  0.0000000  1.0460000  1
  10208  10201  10199  10218     1  0.0000000  0.0000000  3
  10209  10198  10199  10218     1  0.0000000  0.6508444  3
  10212  10209  10198  10216     1  0.0000000  1.0460000  1
  10212  10209  10198  10216     1  0.0000000  0.0000000  3
  10212  10209  10214  10215     1  0.0000000  0.6973333  3
  10213  10209  10198  10216     1  0.0000000  1.0460000  1
  10213  10209  10198  10216     1  0.0000000  0.0000000  3
  10213  10209  10214  10215     1  0.0000000  0.6973333  3
  10216  10198  10199  10218     1  0.0000000  1.0460000  1
  10216  10198  10199  10218     1  0.0000000  0.0000000  3
  10216  10203  10207  10217     1  0.0000000  0.6973333  3
  10218  10199  10219  10220     1  0.0000000  0.6973333  3
  10222  10224  10226  10228     1  0.0000000  0.6508444  3
  10222  10224  10226  10229     1  0.0000000  0.6508444  3
  10223  10222  10224  10226     1  0.0000000  0.0000000  2
  10223  10222  10224  10225     1  0.0000000  0.0000000  2
  10223  10222  10224  10227     1  0.0000000  0.0000000  2
  10225  10224  10226  10230     1  0.0000000  0.6508444  3
  10225  10224  10226  10228     1  0.0000000  0.6508444  3
  10225  10224  10226  10229     1  0.0000000  0.6508444  3
  10226  10230  10231  10240     1  0.0000000  1.2552000  3
  10226  10230  10231  10241     1  0.0000000  1.2552000  3
  10226  10230  10232  10233     1  0.0000000  1.2552000  3
  10226  10230  10232  10235     1  0.0000000  1.2552000  3
  10227  10224  10226  10230     1  0.0000000  0.6508444  3
  10227  10224  10226  10228     1  0.0000000  0.6508444  3
  10227  10224  10226  10229     1  0.0000000  0.6508444  3
  10228  10226  10230  10231     1  0.0000000  1.2552000  3
  10228  10226  10230  10232     1  0.0000000  1.2552000  3
  10229  10226  10230  10231     1  0.0000000  1.2552000  3
  10229  10226  10230  10232     1  0.0000000  1.2552000  3
  10230  10231  10242  10243     1  0.0000000  0.6508444  3
  10230  10231  10242  10244     1  0.0000000  0.6508444  3
  10230  10232  10234  10236     1  0.0000000  0.6508444  3
  10230  10232  10234  10237     1  0.0000000  0.6508444  3
  10231  10230  10232  10233     1  0.0000000  1.2552000  3
  10231  10230  10232  10235     1  0.0000000  1.2552000  3
  10232  10230  10231  10240     1  0.0000000  1.2552000  3
  10232  10230  10231  10241     1  0.0000000  1.2552000  3
  10233  10232  10234  10238     1  0.0000000  0.6508444  3
  10233  10232  10234  10236     1  0.0000000  0.6508444  3
  10233  10232  10234  10237     1  0.0000000  0.6508444  3
  10234  10238  10270  10260     1  180.0000771  6.0668000  2
  10234  10238  10270  10260     1  180.0000771  1.4644000  4
  10235  10232  10234  10238     1  0.0000000  0.6508444  3
  10235  10232  10234  10236     1  0.0000000  0.6508444  3
  10235  10232  10234  10237     1  0.0000000  0.6508444  3
  10236  10234  10238  10239     1  0.0000000  3.3472000  1
  10236  10234  10238  10239     1  0.0000000  0.0000000  2
  10236  10234  10238  10239     1  180.0000771  0.3347200  3
  10236  10234  10238  10270     1  180.0000771  0.0000000  2
  10237  10234  10238  10239     1  0.0000000  3.3472000  1
  10237  10234  10238  10239     1  0.0000000  0.0000000  2
  10237  10234  10238  10239     1  180.0000771  0.3347200  3
  10237  10234  10238  10270     1  180.0000771  0.0000000  2
  10238  10270  10251  10253     1  0.0000000  1.2552000  3
  10239  10238  10270  10260     1  180.0000771  6.0668000  2
  10239  10238  10270  10260     1  180.0000771  1.4644000  4
  10240  10231  10242  10245     1  0.0000000  0.6508444  3
  10240  10231  10242  10243     1  0.0000000  0.6508444  3
  10240  10231  10242  10244     1  0.0000000  0.6508444  3
  10241  10231  10242  10245     1  0.0000000  0.6508444  3
  10241  10231  10242  10243     1  0.0000000  0.6508444  3
  10241  10231  10242  10244     1  0.0000000  0.6508444  3
  10242  10245  10294  10284     1  180.0000771  6.0668000  2
  10242  10245  10294  10284     1  180.0000771  1.4644000  4
  10243  10242  10245  10246     1  0.0000000  3.3472000  1
  10243  10242  10245  10246     1  0.0000000  0.0000000  2
  10243  10242  10245  10246     1  180.0000771  0.3347200  3
  10243  10242  10245  10294     1  180.0000771  0.0000000  2
  10244  10242  10245  10246     1  0.0000000  3.3472000  1
  10244  10242  10245  10246     1  0.0000000  0.0000000  2
  10244  10242  10245  10246     1  180.0000771  0.3347200  3
  10244  10242  10245  10294     1  180.0000771  0.0000000  2
  10245  10294  10275  10277     1  0.0000000  1.2552000  3
  10246  10245  10294  10284     1  180.0000771  6.0668000  2
  10246  10245  10294  10284     1  180.0000771  1.4644000  4
  10247  10248  10250  10254     1  0.0000000  0.6508444  3
  10247  10248  10268  10269     1  0.0000000  1.0460000  1
  10247  10248  10268  10269     1  0.0000000  0.6694400  3
  10247  10258  10263  10264     1  0.0000000  1.0460000  1
  10247  10258  10263  10264     1  0.0000000  0.6694400  3
  10247  10265  10252  10255     1  0.0000000  1.6038667  3
  10248  10250  10251  10253     1  0.0000000  0.6508444  3
  10248  10250  10257  10259     1  0.0000000  1.0460000  1
  10248  10250  10257  10259     1  0.0000000  0.6694400  3
  10248  10247  10258  10261     1  0.0000000  0.6508444  3
  10248  10247  10258  10262     1  0.0000000  0.6508444  3
  10249  10247  10248  10250     1  0.0000000  0.6508444  3
  10249  10247  10248  10268     1  0.0000000  1.0460000  1
  10249  10247  10248  10268     1  0.0000000  0.0000000  3
  10249  10247  10248  10267     1  0.0000000  0.6508444  3
  10249  10247  10258  10263     1  0.0000000  1.0460000  1
  10249  10247  10258  10263     1  0.0000000  0.0000000  3
  10249  10247  10258  10261     1  0.0000000  0.6508444  3
  10249  10247  10258  10262     1  0.0000000  0.6508444  3
  10249  10247  10265  10252     1  0.0000000  1.6038667  3
  10250  10251  10252  10255     1  0.0000000  0.6508444  3
  10250  10251  10270  10260     1  0.0000000  1.2552000  3
  10250  10248  10268  10269     1  0.0000000  1.0460000  1
  10250  10248  10268  10269     1  0.0000000  0.6694400  3
  10251  10252  10256  10266     1  0.0000000  1.0460000  1
  10251  10252  10256  10266     1  0.0000000  0.6694400  3
  10251  10250  10257  10259     1  0.0000000  1.0460000  1
  10251  10250  10257  10259     1  0.0000000  0.6694400  3
  10251  10250  10248  10267     1  0.0000000  0.6508444  3
  10252  10251  10270  10260     1  0.0000000  1.2552000  3
  10252  10251  10250  10254     1  0.0000000  0.6508444  3
  10253  10251  10252  10256     1  0.0000000  1.0460000  1
  10253  10251  10252  10256     1  0.0000000  0.0000000  3
  10253  10251  10252  10265     1  0.0000000  1.0460000  1
  10253  10251  10252  10265     1  0.0000000  0.0000000  3
  10253  10251  10252  10255     1  0.0000000  0.6508444  3
  10253  10251  10270  10260     1  0.0000000  1.2552000  3
  10253  10251  10250  10257     1  0.0000000  1.0460000  1
  10253  10251  10250  10257     1  0.0000000  0.0000000  3
  10253  10251  10250  10254     1  0.0000000  0.6508444  3
  10254  10250  10251  10270     1  0.0000000  0.6508444  3
  10254  10250  10257  10259     1  0.0000000  0.6973333  3
  10254  10250  10248  10268     1  0.0000000  1.0460000  1
  10254  10250  10248  10268     1  0.0000000  0.0000000  3
  10254  10250  10248  10267     1  0.0000000  0.6508444  3
  10255  10252  10256  10266     1  0.0000000  0.6973333  3
  10255  10252  10251  10270     1  0.0000000  0.6508444  3
  10257  10250  10248  10267     1  0.0000000  1.0460000  1
  10257  10250  10248  10267     1  0.0000000  0.0000000  3
  10258  10247  10248  10267     1  0.0000000  0.6508444  3
  10261  10258  10263  10264     1  0.0000000  0.6973333  3
  10261  10258  10247  10265     1  0.0000000  1.0460000  1
  10261  10258  10247  10265     1  0.0000000  0.0000000  3
  10262  10258  10263  10264     1  0.0000000  0.6973333  3
  10262  10258  10247  10265     1  0.0000000  1.0460000  1
  10262  10258  10247  10265     1  0.0000000  0.0000000  3
  10265  10252  10256  10266     1  0.0000000  0.6973333  3
  10265  10247  10248  10267     1  0.0000000  1.0460000  1
  10265  10247  10248  10267     1  0.0000000  0.0000000  3
  10267  10248  10268  10269     1  0.0000000  0.6973333  3
  10271  10272  10274  10278     1  0.0000000  0.6508444  3
  10271  10272  10292  10293     1  0.0000000  1.0460000  1
  10271  10272  10292  10293     1  0.0000000  0.6694400  3
  10271  10282  10287  10288     1  0.0000000  1.0460000  1
  10271  10282  10287  10288     1  0.0000000  0.6694400  3
  10271  10289  10276  10279     1  0.0000000  1.6038667  3
  10272  10274  10275  10277     1  0.0000000  0.6508444  3
  10272  10274  10281  10283     1  0.0000000  1.0460000  1
  10272  10274  10281  10283     1  0.0000000  0.6694400  3
  10272  10271  10282  10285     1  0.0000000  0.6508444  3
  10272  10271  10282  10286     1  0.0000000  0.6508444  3
  10273  10271  10272  10274     1  0.0000000  0.6508444  3
  10273  10271  10272  10292     1  0.0000000  1.0460000  1
  10273  10271  10272  10292     1  0.0000000  0.0000000  3
  10273  10271  10272  10291     1  0.0000000  0.6508444  3
  10273  10271  10282  10287     1  0.0000000  1.0460000  1
  10273  10271  10282  10287     1  0.0000000  0.0000000  3
  10273  10271  10282  10285     1  0.0000000  0.6508444  3
  10273  10271  10282  10286     1  0.0000000  0.6508444  3
  10273  10271  10289  10276     1  0.0000000  1.6038667  3
  10274  10275  10276  10279     1  0.0000000  0.6508444  3
  10274  10275  10294  10284     1  0.0000000  1.2552000  3
  10274  10272  10292  10293     1  0.0000000  1.0460000  1
  10274  10272  10292  10293     1  0.0000000  0.6694400  3
  10275  10276  10280  10290     1  0.0000000  1.0460000  1
  10275  10276  10280  10290     1  0.0000000  0.6694400  3
  10275  10274  10281  10283     1  0.0000000  1.0460000  1
  10275  10274  10281  10283     1  0.0000000  0.6694400  3
  10275  10274  10272  10291     1  0.0000000  0.6508444  3
  10276  10275  10294  10284     1  0.0000000  1.2552000  3
  10276  10275  10274  10278     1  0.0000000  0.6508444  3
  10277  10275  10276  10280     1  0.0000000  1.0460000  1
  10277  10275  10276  10280     1  0.0000000  0.0000000  3
  10277  10275  10276  10289     1  0.0000000  1.0460000  1
  10277  10275  10276  10289     1  0.0000000  0.0000000  3
  10277  10275  10276  10279     1  0.0000000  0.6508444  3
  10277  10275  10294  10284     1  0.0000000  1.2552000  3
  10277  10275  10274  10281     1  0.0000000  1.0460000  1
  10277  10275  10274  10281     1  0.0000000  0.0000000  3
  10277  10275  10274  10278     1  0.0000000  0.6508444  3
  10278  10274  10275  10294     1  0.0000000  0.6508444  3
  10278  10274  10281  10283     1  0.0000000  0.6973333  3
  10278  10274  10272  10292     1  0.0000000  1.0460000  1
  10278  10274  10272  10292     1  0.0000000  0.0000000  3
  10278  10274  10272  10291     1  0.0000000  0.6508444  3
  10279  10276  10280  10290     1  0.0000000  0.6973333  3
  10279  10276  10275  10294     1  0.0000000  0.6508444  3
  10281  10274  10272  10291     1  0.0000000  1.0460000  1
  10281  10274  10272  10291     1  0.0000000  0.0000000  3
  10282  10271  10272  10291     1  0.0000000  0.6508444  3
  10285  10282  10287  10288     1  0.0000000  0.6973333  3
  10285  10282  10271  10289     1  0.0000000  1.0460000  1
  10285  10282  10271  10289     1  0.0000000  0.0000000  3
  10286  10282  10287  10288     1  0.0000000  0.6973333  3
  10286  10282  10271  10289     1  0.0000000  1.0460000  1
  10286  10282  10271  10289     1  0.0000000  0.0000000  3
  10289  10276  10280  10290     1  0.0000000  0.6973333  3
  10289  10271  10272  10291     1  0.0000000  1.0460000  1
  10289  10271  10272  10291     1  0.0000000  0.0000000  3
  10291  10272  10292  10293     1  0.0000000  0.6973333  3
  10295  10297  10299  10301     1  0.0000000  0.6508444  3
  10295  10297  10299  10302     1  0.0000000  0.6508444  3
  10296  10295  10297  10299     1  0.0000000  0.0000000  2
  10296  10295  10297  10298     1  0.0000000  0.0000000  2
  10296  10295  10297  10300     1  0.0000000  0.0000000  2
  10298  10297  10299  10303     1  0.0000000  0.6508444  3
  10298  10297  10299  10301     1  0.0000000  0.6508444  3
  10298  10297  10299  10302     1  0.0000000  0.6508444  3
  10299  10303  10304  10313     1  0.0000000  1.2552000  3
  10299  10303  10304  10314     1  0.0000000  1.2552000  3
  10299  10303  10305  10306     1  0.0000000  1.2552000  3
  10299  10303  10305  10308     1  0.0000000  1.2552000  3
  10300  10297  10299  10303     1  0.0000000  0.6508444  3
  10300  10297  10299  10301     1  0.0000000  0.6508444  3
  10300  10297  10299  10302     1  0.0000000  0.6508444  3
  10301  10299  10303  10304     1  0.0000000  1.2552000  3
  10301  10299  10303  10305     1  0.0000000  1.2552000  3
  10302  10299  10303  10304     1  0.0000000  1.2552000  3
  10302  10299  10303  10305     1  0.0000000  1.2552000  3
  10303  10304  10315  10316     1  0.0000000  0.6508444  3
  10303  10304  10315  10317     1  0.0000000  0.6508444  3
  10303  10305  10307  10309     1  0.0000000  0.6508444  3
  10303  10305  10307  10310     1  0.0000000  0.6508444  3
  10304  10303  10305  10306     1  0.0000000  1.2552000  3
  10304  10303  10305  10308     1  0.0000000  1.2552000  3
  10305  10303  10304  10313     1  0.0000000  1.2552000  3
  10305  10303  10304  10314     1  0.0000000  1.2552000  3
  10306  10305  10307  10311     1  0.0000000  0.6508444  3
  10306  10305  10307  10309     1  0.0000000  0.6508444  3
  10306  10305  10307  10310     1  0.0000000  0.6508444  3
  10307  10311  10343  10333     1  180.0000771  6.0668000  2
  10307  10311  10343  10333     1  180.0000771  1.4644000  4
  10308  10305  10307  10311     1  0.0000000  0.6508444  3
  10308  10305  10307  10309     1  0.0000000  0.6508444  3
  10308  10305  10307  10310     1  0.0000000  0.6508444  3
  10309  10307  10311  10312     1  0.0000000  3.3472000  1
  10309  10307  10311  10312     1  0.0000000  0.0000000  2
  10309  10307  10311  10312     1  180.0000771  0.3347200  3
  10309  10307  10311  10343     1  180.0000771  0.0000000  2
  10310  10307  10311  10312     1  0.0000000  3.3472000  1
  10310  10307  10311  10312     1  0.0000000  0.0000000  2
  10310  10307  10311  10312     1  180.0000771  0.3347200  3
  10310  10307  10311  10343     1  180.0000771  0.0000000  2
  10311  10343  10324  10326     1  0.0000000  1.2552000  3
  10312  10311  10343  10333     1  180.0000771  6.0668000  2
  10312  10311  10343  10333     1  180.0000771  1.4644000  4
  10313  10304  10315  10318     1  0.0000000  0.6508444  3
  10313  10304  10315  10316     1  0.0000000  0.6508444  3
  10313  10304  10315  10317     1  0.0000000  0.6508444  3
  10314  10304  10315  10318     1  0.0000000  0.6508444  3
  10314  10304  10315  10316     1  0.0000000  0.6508444  3
  10314  10304  10315  10317     1  0.0000000  0.6508444  3
  10315  10318  10367  10357     1  180.0000771  6.0668000  2
  10315  10318  10367  10357     1  180.0000771  1.4644000  4
  10316  10315  10318  10319     1  0.0000000  3.3472000  1
  10316  10315  10318  10319     1  0.0000000  0.0000000  2
  10316  10315  10318  10319     1  180.0000771  0.3347200  3
  10316  10315  10318  10367     1  180.0000771  0.0000000  2
  10317  10315  10318  10319     1  0.0000000  3.3472000  1
  10317  10315  10318  10319     1  0.0000000  0.0000000  2
  10317  10315  10318  10319     1  180.0000771  0.3347200  3
  10317  10315  10318  10367     1  180.0000771  0.0000000  2
  10318  10367  10348  10350     1  0.0000000  1.2552000  3
  10319  10318  10367  10357     1  180.0000771  6.0668000  2
  10319  10318  10367  10357     1  180.0000771  1.4644000  4
  10320  10321  10323  10327     1  0.0000000  0.6508444  3
  10320  10321  10341  10342     1  0.0000000  1.0460000  1
  10320  10321  10341  10342     1  0.0000000  0.6694400  3
  10320  10331  10336  10337     1  0.0000000  1.0460000  1
  10320  10331  10336  10337     1  0.0000000  0.6694400  3
  10320  10338  10325  10328     1  0.0000000  1.6038667  3
  10321  10320  10331  10334     1  0.0000000  0.6508444  3
  10321  10320  10331  10335     1  0.0000000  0.6508444  3
  10321  10323  10324  10326     1  0.0000000  0.6508444  3
  10321  10323  10330  10332     1  0.0000000  1.0460000  1
  10321  10323  10330  10332     1  0.0000000  0.6694400  3
  10322  10320  10321  10323     1  0.0000000  0.6508444  3
  10322  10320  10321  10341     1  0.0000000  1.0460000  1
  10322  10320  10321  10341     1  0.0000000  0.0000000  3
  10322  10320  10321  10340     1  0.0000000  0.6508444  3
  10322  10320  10331  10336     1  0.0000000  1.0460000  1
  10322  10320  10331  10336     1  0.0000000  0.0000000  3
  10322  10320  10331  10334     1  0.0000000  0.6508444  3
  10322  10320  10331  10335     1  0.0000000  0.6508444  3
  10322  10320  10338  10325     1  0.0000000  1.6038667  3
  10323  10321  10341  10342     1  0.0000000  1.0460000  1
  10323  10321  10341  10342     1  0.0000000  0.6694400  3
  10323  10324  10325  10328     1  0.0000000  0.6508444  3
  10323  10324  10343  10333     1  0.0000000  1.2552000  3
  10324  10323  10321  10340     1  0.0000000  0.6508444  3
  10324  10323  10330  10332     1  0.0000000  1.0460000  1
  10324  10323  10330  10332     1  0.0000000  0.6694400  3
  10324  10325  10329  10339     1  0.0000000  1.0460000  1
  10324  10325  10329  10339     1  0.0000000  0.6694400  3
  10325  10324  10323  10327     1  0.0000000  0.6508444  3
  10325  10324  10343  10333     1  0.0000000  1.2552000  3
  10326  10324  10323  10330     1  0.0000000  1.0460000  1
  10326  10324  10323  10330     1  0.0000000  0.0000000  3
  10326  10324  10323  10327     1  0.0000000  0.6508444  3
  10326  10324  10325  10329     1  0.0000000  1.0460000  1
  10326  10324  10325  10329     1  0.0000000  0.0000000  3
  10326  10324  10325  10338     1  0.0000000  1.0460000  1
  10326  10324  10325  10338     1  0.0000000  0.0000000  3
  10326  10324  10325  10328     1  0.0000000  0.6508444  3
  10326  10324  10343  10333     1  0.0000000  1.2552000  3
  10327  10323  10321  10341     1  0.0000000  1.0460000  1
  10327  10323  10321  10341     1  0.0000000  0.0000000  3
  10327  10323  10321  10340     1  0.0000000  0.6508444  3
  10327  10323  10324  10343     1  0.0000000  0.6508444  3
  10327  10323  10330  10332     1  0.0000000  0.6973333  3
  10328  10325  10324  10343     1  0.0000000  0.6508444  3
  10328  10325  10329  10339     1  0.0000000  0.6973333  3
  10330  10323  10321  10340     1  0.0000000  1.0460000  1
  10330  10323  10321  10340     1  0.0000000  0.0000000  3
  10331  10320  10321  10340     1  0.0000000  0.6508444  3
  10334  10331  10320  10338     1  0.0000000  1.0460000  1
  10334  10331  10320  10338     1  0.0000000  0.0000000  3
  10334  10331  10336  10337     1  0.0000000  0.6973333  3
  10335  10331  10320  10338     1  0.0000000  1.0460000  1
  10335  10331  10320  10338     1  0.0000000  0.0000000  3
  10335  10331  10336  10337     1  0.0000000  0.6973333  3
  10338  10320  10321  10340     1  0.0000000  1.0460000  1
  10338  10320  10321  10340     1  0.0000000  0.0000000  3
  10338  10325  10329  10339     1  0.0000000  0.6973333  3
  10340  10321  10341  10342     1  0.0000000  0.6973333  3
  10344  10345  10347  10351     1  0.0000000  0.6508444  3
  10344  10345  10365  10366     1  0.0000000  1.0460000  1
  10344  10345  10365  10366     1  0.0000000  0.6694400  3
  10344  10355  10360  10361     1  0.0000000  1.0460000  1
  10344  10355  10360  10361     1  0.0000000  0.6694400  3
  10344  10362  10349  10352     1  0.0000000  1.6038667  3
  10345  10344  10355  10358     1  0.0000000  0.6508444  3
  10345  10344  10355  10359     1  0.0000000  0.6508444  3
  10345  10347  10348  10350     1  0.0000000  0.6508444  3
  10345  10347  10354  10356     1  0.0000000  1.0460000  1
  10345  10347  10354  10356     1  0.0000000  0.6694400  3
  10346  10344  10345  10347     1  0.0000000  0.6508444  3
  10346  10344  10345  10365     1  0.0000000  1.0460000  1
  10346  10344  10345  10365     1  0.0000000  0.0000000  3
  10346  10344  10345  10364     1  0.0000000  0.6508444  3
  10346  10344  10355  10360     1  0.0000000  1.0460000  1
  10346  10344  10355  10360     1  0.0000000  0.0000000  3
  10346  10344  10355  10358     1  0.0000000  0.6508444  3
  10346  10344  10355  10359     1  0.0000000  0.6508444  3
  10346  10344  10362  10349     1  0.0000000  1.6038667  3
  10347  10345  10365  10366     1  0.0000000  1.0460000  1
  10347  10345  10365  10366     1  0.0000000  0.6694400  3
  10347  10348  10349  10352     1  0.0000000  0.6508444  3
  10347  10348  10367  10357     1  0.0000000  1.2552000  3
  10348  10347  10345  10364     1  0.0000000  0.6508444  3
  10348  10347  10354  10356     1  0.0000000  1.0460000  1
  10348  10347  10354  10356     1  0.0000000  0.6694400  3
  10348  10349  10353  10363     1  0.0000000  1.0460000  1
  10348  10349  10353  10363     1  0.0000000  0.6694400  3
  10349  10348  10347  10351     1  0.0000000  0.6508444  3
  10349  10348  10367  10357     1  0.0000000  1.2552000  3
  10350  10348  10347  10354     1  0.0000000  1.0460000  1
  10350  10348  10347  10354     1  0.0000000  0.0000000  3
  10350  10348  10347  10351     1  0.0000000  0.6508444  3
  10350  10348  10349  10353     1  0.0000000  1.0460000  1
  10350  10348  10349  10353     1  0.0000000  0.0000000  3
  10350  10348  10349  10362     1  0.0000000  1.0460000  1
  10350  10348  10349  10362     1  0.0000000  0.0000000  3
  10350  10348  10349  10352     1  0.0000000  0.6508444  3
  10350  10348  10367  10357     1  0.0000000  1.2552000  3
  10351  10347  10345  10365     1  0.0000000  1.0460000  1
  10351  10347  10345  10365     1  0.0000000  0.0000000  3
  10351  10347  10345  10364     1  0.0000000  0.6508444  3
  10351  10347  10348  10367     1  0.0000000  0.6508444  3
  10351  10347  10354  10356     1  0.0000000  0.6973333  3
  10352  10349  10348  10367     1  0.0000000  0.6508444  3
  10352  10349  10353  10363     1  0.0000000  0.6973333  3
  10354  10347  10345  10364     1  0.0000000  1.0460000  1
  10354  10347  10345  10364     1  0.0000000  0.0000000  3
  10355  10344  10345  10364     1  0.0000000  0.6508444  3
  10358  10355  10344  10362     1  0.0000000  1.0460000  1
  10358  10355  10344  10362     1  0.0000000  0.0000000  3
  10358  10355  10360  10361     1  0.0000000  0.6973333  3
  10359  10355  10344  10362     1  0.0000000  1.0460000  1
  10359  10355  10344  10362     1  0.0000000  0.0000000  3
  10359  10355  10360  10361     1  0.0000000  0.6973333  3
  10362  10344  10345  10364     1  0.0000000  1.0460000  1
  10362  10344  10345  10364     1  0.0000000  0.0000000  3
  10362  10349  10353  10363     1  0.0000000  0.6973333  3
  10364  10345  10365  10366     1  0.0000000  0.6973333  3
  10368  10370  10372  10374     1  0.0000000  0.6508444  3
  10368  10370  10372  10375     1  0.0000000  0.6508444  3
  10369  10368  10370  10372     1  0.0000000  0.0000000  2
  10369  10368  10370  10371     1  0.0000000  0.0000000  2
  10369  10368  10370  10373     1  0.0000000  0.0000000  2
  10371  10370  10372  10376     1  0.0000000  0.6508444  3
  10371  10370  10372  10374     1  0.0000000  0.6508444  3
  10371  10370  10372  10375     1  0.0000000  0.6508444  3
  10372  10376  10377  10386     1  0.0000000  1.2552000  3
  10372  10376  10377  10387     1  0.0000000  1.2552000  3
  10372  10376  10378  10379     1  0.0000000  1.2552000  3
  10372  10376  10378  10381     1  0.0000000  1.2552000  3
  10373  10370  10372  10376     1  0.0000000  0.6508444  3
  10373  10370  10372  10374     1  0.0000000  0.6508444  3
  10373  10370  10372  10375     1  0.0000000  0.6508444  3
  10374  10372  10376  10377     1  0.0000000  1.2552000  3
  10374  10372  10376  10378     1  0.0000000  1.2552000  3
  10375  10372  10376  10377     1  0.0000000  1.2552000  3
  10375  10372  10376  10378     1  0.0000000  1.2552000  3
  10376  10377  10388  10389     1  0.0000000  0.6508444  3
  10376  10377  10388  10390     1  0.0000000  0.6508444  3
  10376  10378  10380  10382     1  0.0000000  0.6508444  3
  10376  10378  10380  10383     1  0.0000000  0.6508444  3
  10377  10376  10378  10379     1  0.0000000  1.2552000  3
  10377  10376  10378  10381     1  0.0000000  1.2552000  3
  10378  10376  10377  10386     1  0.0000000  1.2552000  3
  10378  10376  10377  10387     1  0.0000000  1.2552000  3
  10379  10378  10380  10384     1  0.0000000  0.6508444  3
  10379  10378  10380  10382     1  0.0000000  0.6508444  3
  10379  10378  10380  10383     1  0.0000000  0.6508444  3
  10380  10384  10416  10406     1  180.0000771  6.0668000  2
  10380  10384  10416  10406     1  180.0000771  1.4644000  4
  10381  10378  10380  10384     1  0.0000000  0.6508444  3
  10381  10378  10380  10382     1  0.0000000  0.6508444  3
  10381  10378  10380  10383     1  0.0000000  0.6508444  3
  10382  10380  10384  10385     1  0.0000000  3.3472000  1
  10382  10380  10384  10385     1  0.0000000  0.0000000  2
  10382  10380  10384  10385     1  180.0000771  0.3347200  3
  10382  10380  10384  10416     1  180.0000771  0.0000000  2
  10383  10380  10384  10385     1  0.0000000  3.3472000  1
  10383  10380  10384  10385     1  0.0000000  0.0000000  2
  10383  10380  10384  10385     1  180.0000771  0.3347200  3
  10383  10380  10384  10416     1  180.0000771  0.0000000  2
  10384  10416  10397  10399     1  0.0000000  1.2552000  3
  10385  10384  10416  10406     1  180.0000771  6.0668000  2
  10385  10384  10416  10406     1  180.0000771  1.4644000  4
  10386  10377  10388  10391     1  0.0000000  0.6508444  3
  10386  10377  10388  10389     1  0.0000000  0.6508444  3
  10386  10377  10388  10390     1  0.0000000  0.6508444  3
  10387  10377  10388  10391     1  0.0000000  0.6508444  3
  10387  10377  10388  10389     1  0.0000000  0.6508444  3
  10387  10377  10388  10390     1  0.0000000  0.6508444  3
  10388  10391  10440  10430     1  180.0000771  6.0668000  2
  10388  10391  10440  10430     1  180.0000771  1.4644000  4
  10389  10388  10391  10392     1  0.0000000  3.3472000  1
  10389  10388  10391  10392     1  0.0000000  0.0000000  2
  10389  10388  10391  10392     1  180.0000771  0.3347200  3
  10389  10388  10391  10440     1  180.0000771  0.0000000  2
  10390  10388  10391  10392     1  0.0000000  3.3472000  1
  10390  10388  10391  10392     1  0.0000000  0.0000000  2
  10390  10388  10391  10392     1  180.0000771  0.3347200  3
  10390  10388  10391  10440     1  180.0000771  0.0000000  2
  10391  10440  10421  10423     1  0.0000000  1.2552000  3
  10392  10391  10440  10430     1  180.0000771  6.0668000  2
  10392  10391  10440  10430     1  180.0000771  1.4644000  4
  10393  10394  10396  10400     1  0.0000000  0.6508444  3
  10393  10394  10414  10415     1  0.0000000  1.0460000  1
  10393  10394  10414  10415     1  0.0000000  0.6694400  3
  10393  10404  10409  10410     1  0.0000000  1.0460000  1
  10393  10404  10409  10410     1  0.0000000  0.6694400  3
  10393  10411  10398  10401     1  0.0000000  1.6038667  3
  10394  10396  10397  10399     1  0.0000000  0.6508444  3
  10394  10396  10403  10405     1  0.0000000  1.0460000  1
  10394  10396  10403  10405     1  0.0000000  0.6694400  3
  10394  10393  10404  10407     1  0.0000000  0.6508444  3
  10394  10393  10404  10408     1  0.0000000  0.6508444  3
  10395  10393  10394  10396     1  0.0000000  0.6508444  3
  10395  10393  10394  10414     1  0.0000000  1.0460000  1
  10395  10393  10394  10414     1  0.0000000  0.0000000  3
  10395  10393  10394  10413     1  0.0000000  0.6508444  3
  10395  10393  10404  10409     1  0.0000000  1.0460000  1
  10395  10393  10404  10409     1  0.0000000  0.0000000  3
  10395  10393  10404  10407     1  0.0000000  0.6508444  3
  10395  10393  10404  10408     1  0.0000000  0.6508444  3
  10395  10393  10411  10398     1  0.0000000  1.6038667  3
  10396  10397  10398  10401     1  0.0000000  0.6508444  3
  10396  10397  10416  10406     1  0.0000000  1.2552000  3
  10396  10394  10414  10415     1  0.0000000  1.0460000  1
  10396  10394  10414  10415     1  0.0000000  0.6694400  3
  10397  10398  10402  10412     1  0.0000000  1.0460000  1
  10397  10398  10402  10412     1  0.0000000  0.6694400  3
  10397  10396  10403  10405     1  0.0000000  1.0460000  1
  10397  10396  10403  10405     1  0.0000000  0.6694400  3
  10397  10396  10394  10413     1  0.0000000  0.6508444  3
  10398  10397  10416  10406     1  0.0000000  1.2552000  3
  10398  10397  10396  10400     1  0.0000000  0.6508444  3
  10399  10397  10398  10402     1  0.0000000  1.0460000  1
  10399  10397  10398  10402     1  0.0000000  0.0000000  3
  10399  10397  10398  10411     1  0.0000000  1.0460000  1
  10399  10397  10398  10411     1  0.0000000  0.0000000  3
  10399  10397  10398  10401     1  0.0000000  0.6508444  3
  10399  10397  10416  10406     1  0.0000000  1.2552000  3
  10399  10397  10396  10403     1  0.0000000  1.0460000  1
  10399  10397  10396  10403     1  0.0000000  0.0000000  3
  10399  10397  10396  10400     1  0.0000000  0.6508444  3
  10400  10396  10397  10416     1  0.0000000  0.6508444  3
  10400  10396  10403  10405     1  0.0000000  0.6973333  3
  10400  10396  10394  10414     1  0.0000000  1.0460000  1
  10400  10396  10394  10414     1  0.0000000  0.0000000  3
  10400  10396  10394  10413     1  0.0000000  0.6508444  3
  10401  10398  10402  10412     1  0.0000000  0.6973333  3
  10401  10398  10397  10416     1  0.0000000  0.6508444  3
  10403  10396  10394  10413     1  0.0000000  1.0460000  1
  10403  10396  10394  10413     1  0.0000000  0.0000000  3
  10404  10393  10394  10413     1  0.0000000  0.6508444  3
  10407  10404  10409  10410     1  0.0000000  0.6973333  3
  10407  10404  10393  10411     1  0.0000000  1.0460000  1
  10407  10404  10393  10411     1  0.0000000  0.0000000  3
  10408  10404  10409  10410     1  0.0000000  0.6973333  3
  10408  10404  10393  10411     1  0.0000000  1.0460000  1
  10408  10404  10393  10411     1  0.0000000  0.0000000  3
  10411  10398  10402  10412     1  0.0000000  0.6973333  3
  10411  10393  10394  10413     1  0.0000000  1.0460000  1
  10411  10393  10394  10413     1  0.0000000  0.0000000  3
  10413  10394  10414  10415     1  0.0000000  0.6973333  3
  10417  10418  10420  10424     1  0.0000000  0.6508444  3
  10417  10418  10438  10439     1  0.0000000  1.0460000  1
  10417  10418  10438  10439     1  0.0000000  0.6694400  3
  10417  10428  10433  10434     1  0.0000000  1.0460000  1
  10417  10428  10433  10434     1  0.0000000  0.6694400  3
  10417  10435  10422  10425     1  0.0000000  1.6038667  3
  10418  10420  10421  10423     1  0.0000000  0.6508444  3
  10418  10420  10427  10429     1  0.0000000  1.0460000  1
  10418  10420  10427  10429     1  0.0000000  0.6694400  3
  10418  10417  10428  10431     1  0.0000000  0.6508444  3
  10418  10417  10428  10432     1  0.0000000  0.6508444  3
  10419  10417  10418  10420     1  0.0000000  0.6508444  3
  10419  10417  10418  10438     1  0.0000000  1.0460000  1
  10419  10417  10418  10438     1  0.0000000  0.0000000  3
  10419  10417  10418  10437     1  0.0000000  0.6508444  3
  10419  10417  10428  10433     1  0.0000000  1.0460000  1
  10419  10417  10428  10433     1  0.0000000  0.0000000  3
  10419  10417  10428  10431     1  0.0000000  0.6508444  3
  10419  10417  10428  10432     1  0.0000000  0.6508444  3
  10419  10417  10435  10422     1  0.0000000  1.6038667  3
  10420  10421  10422  10425     1  0.0000000  0.6508444  3
  10420  10421  10440  10430     1  0.0000000  1.2552000  3
  10420  10418  10438  10439     1  0.0000000  1.0460000  1
  10420  10418  10438  10439     1  0.0000000  0.6694400  3
  10421  10422  10426  10436     1  0.0000000  1.0460000  1
  10421  10422  10426  10436     1  0.0000000  0.6694400  3
  10421  10420  10427  10429     1  0.0000000  1.0460000  1
  10421  10420  10427  10429     1  0.0000000  0.6694400  3
  10421  10420  10418  10437     1  0.0000000  0.6508444  3
  10422  10421  10440  10430     1  0.0000000  1.2552000  3
  10422  10421  10420  10424     1  0.0000000  0.6508444  3
  10423  10421  10422  10426     1  0.0000000  1.0460000  1
  10423  10421  10422  10426     1  0.0000000  0.0000000  3
  10423  10421  10422  10435     1  0.0000000  1.0460000  1
  10423  10421  10422  10435     1  0.0000000  0.0000000  3
  10423  10421  10422  10425     1  0.0000000  0.6508444  3
  10423  10421  10440  10430     1  0.0000000  1.2552000  3
  10423  10421  10420  10427     1  0.0000000  1.0460000  1
  10423  10421  10420  10427     1  0.0000000  0.0000000  3
  10423  10421  10420  10424     1  0.0000000  0.6508444  3
  10424  10420  10421  10440     1  0.0000000  0.6508444  3
  10424  10420  10427  10429     1  0.0000000  0.6973333  3
  10424  10420  10418  10438     1  0.0000000  1.0460000  1
  10424  10420  10418  10438     1  0.0000000  0.0000000  3
  10424  10420  10418  10437     1  0.0000000  0.6508444  3
  10425  10422  10426  10436     1  0.0000000  0.6973333  3
  10425  10422  10421  10440     1  0.0000000  0.6508444  3
  10427  10420  10418  10437     1  0.0000000  1.0460000  1
  10427  10420  10418  10437     1  0.0000000  0.0000000  3
  10428  10417  10418  10437     1  0.0000000  0.6508444  3
  10431  10428  10433  10434     1  0.0000000  0.6973333  3
  10431  10428  10417  10435     1  0.0000000  1.0460000  1
  10431  10428  10417  10435     1  0.0000000  0.0000000  3
  10432  10428  10433  10434     1  0.0000000  0.6973333  3
  10432  10428  10417  10435     1  0.0000000  1.0460000  1
  10432  10428  10417  10435     1  0.0000000  0.0000000  3
  10435  10422  10426  10436     1  0.0000000  0.6973333  3
  10435  10417  10418  10437     1  0.0000000  1.0460000  1
  10435  10417  10418  10437     1  0.0000000  0.0000000  3
  10437  10418  10438  10439     1  0.0000000  0.6973333  3
  10441  10443  10445  10447     1  0.0000000  0.6508444  3
  10441  10443  10445  10448     1  0.0000000  0.6508444  3
  10442  10441  10443  10445     1  0.0000000  0.0000000  2
  10442  10441  10443  10444     1  0.0000000  0.0000000  2
  10442  10441  10443  10446     1  0.0000000  0.0000000  2
  10444  10443  10445  10449     1  0.0000000  0.6508444  3
  10444  10443  10445  10447     1  0.0000000  0.6508444  3
  10444  10443  10445  10448     1  0.0000000  0.6508444  3
  10445  10449  10450  10459     1  0.0000000  1.2552000  3
  10445  10449  10450  10460     1  0.0000000  1.2552000  3
  10445  10449  10451  10452     1  0.0000000  1.2552000  3
  10445  10449  10451  10454     1  0.0000000  1.2552000  3
  10446  10443  10445  10449     1  0.0000000  0.6508444  3
  10446  10443  10445  10447     1  0.0000000  0.6508444  3
  10446  10443  10445  10448     1  0.0000000  0.6508444  3
  10447  10445  10449  10450     1  0.0000000  1.2552000  3
  10447  10445  10449  10451     1  0.0000000  1.2552000  3
  10448  10445  10449  10450     1  0.0000000  1.2552000  3
  10448  10445  10449  10451     1  0.0000000  1.2552000  3
  10449  10450  10461  10462     1  0.0000000  0.6508444  3
  10449  10450  10461  10463     1  0.0000000  0.6508444  3
  10449  10451  10453  10455     1  0.0000000  0.6508444  3
  10449  10451  10453  10456     1  0.0000000  0.6508444  3
  10450  10449  10451  10452     1  0.0000000  1.2552000  3
  10450  10449  10451  10454     1  0.0000000  1.2552000  3
  10451  10449  10450  10459     1  0.0000000  1.2552000  3
  10451  10449  10450  10460     1  0.0000000  1.2552000  3
  10452  10451  10453  10457     1  0.0000000  0.6508444  3
  10452  10451  10453  10455     1  0.0000000  0.6508444  3
  10452  10451  10453  10456     1  0.0000000  0.6508444  3
  10453  10457  10489  10479     1  180.0000771  6.0668000  2
  10453  10457  10489  10479     1  180.0000771  1.4644000  4
  10454  10451  10453  10457     1  0.0000000  0.6508444  3
  10454  10451  10453  10455     1  0.0000000  0.6508444  3
  10454  10451  10453  10456     1  0.0000000  0.6508444  3
  10455  10453  10457  10458     1  0.0000000  3.3472000  1
  10455  10453  10457  10458     1  0.0000000  0.0000000  2
  10455  10453  10457  10458     1  180.0000771  0.3347200  3
  10455  10453  10457  10489     1  180.0000771  0.0000000  2
  10456  10453  10457  10458     1  0.0000000  3.3472000  1
  10456  10453  10457  10458     1  0.0000000  0.0000000  2
  10456  10453  10457  10458     1  180.0000771  0.3347200  3
  10456  10453  10457  10489     1  180.0000771  0.0000000  2
  10457  10489  10470  10472     1  0.0000000  1.2552000  3
  10458  10457  10489  10479     1  180.0000771  6.0668000  2
  10458  10457  10489  10479     1  180.0000771  1.4644000  4
  10459  10450  10461  10464     1  0.0000000  0.6508444  3
  10459  10450  10461  10462     1  0.0000000  0.6508444  3
  10459  10450  10461  10463     1  0.0000000  0.6508444  3
  10460  10450  10461  10464     1  0.0000000  0.6508444  3
  10460  10450  10461  10462     1  0.0000000  0.6508444  3
  10460  10450  10461  10463     1  0.0000000  0.6508444  3
  10461  10464  10513  10503     1  180.0000771  6.0668000  2
  10461  10464  10513  10503     1  180.0000771  1.4644000  4
  10462  10461  10464  10465     1  0.0000000  3.3472000  1
  10462  10461  10464  10465     1  0.0000000  0.0000000  2
  10462  10461  10464  10465     1  180.0000771  0.3347200  3
  10462  10461  10464  10513     1  180.0000771  0.0000000  2
  10463  10461  10464  10465     1  0.0000000  3.3472000  1
  10463  10461  10464  10465     1  0.0000000  0.0000000  2
  10463  10461  10464  10465     1  180.0000771  0.3347200  3
  10463  10461  10464  10513     1  180.0000771  0.0000000  2
  10464  10513  10494  10496     1  0.0000000  1.2552000  3
  10465  10464  10513  10503     1  180.0000771  6.0668000  2
  10465  10464  10513  10503     1  180.0000771  1.4644000  4
  10466  10467  10469  10473     1  0.0000000  0.6508444  3
  10466  10467  10487  10488     1  0.0000000  1.0460000  1
  10466  10467  10487  10488     1  0.0000000  0.6694400  3
  10466  10477  10482  10483     1  0.0000000  1.0460000  1
  10466  10477  10482  10483     1  0.0000000  0.6694400  3
  10466  10484  10471  10474     1  0.0000000  1.6038667  3
  10467  10466  10477  10480     1  0.0000000  0.6508444  3
  10467  10466  10477  10481     1  0.0000000  0.6508444  3
  10467  10469  10470  10472     1  0.0000000  0.6508444  3
  10467  10469  10476  10478     1  0.0000000  1.0460000  1
  10467  10469  10476  10478     1  0.0000000  0.6694400  3
  10468  10466  10467  10469     1  0.0000000  0.6508444  3
  10468  10466  10467  10487     1  0.0000000  1.0460000  1
  10468  10466  10467  10487     1  0.0000000  0.0000000  3
  10468  10466  10467  10486     1  0.0000000  0.6508444  3
  10468  10466  10477  10482     1  0.0000000  1.0460000  1
  10468  10466  10477  10482     1  0.0000000  0.0000000  3
  10468  10466  10477  10480     1  0.0000000  0.6508444  3
  10468  10466  10477  10481     1  0.0000000  0.6508444  3
  10468  10466  10484  10471     1  0.0000000  1.6038667  3
  10469  10467  10487  10488     1  0.0000000  1.0460000  1
  10469  10467  10487  10488     1  0.0000000  0.6694400  3
  10469  10470  10471  10474     1  0.0000000  0.6508444  3
  10469  10470  10489  10479     1  0.0000000  1.2552000  3
  10470  10469  10467  10486     1  0.0000000  0.6508444  3
  10470  10469  10476  10478     1  0.0000000  1.0460000  1
  10470  10469  10476  10478     1  0.0000000  0.6694400  3
  10470  10471  10475  10485     1  0.0000000  1.0460000  1
  10470  10471  10475  10485     1  0.0000000  0.6694400  3
  10471  10470  10469  10473     1  0.0000000  0.6508444  3
  10471  10470  10489  10479     1  0.0000000  1.2552000  3
  10472  10470  10469  10476     1  0.0000000  1.0460000  1
  10472  10470  10469  10476     1  0.0000000  0.0000000  3
  10472  10470  10469  10473     1  0.0000000  0.6508444  3
  10472  10470  10471  10475     1  0.0000000  1.0460000  1
  10472  10470  10471  10475     1  0.0000000  0.0000000  3
  10472  10470  10471  10484     1  0.0000000  1.0460000  1
  10472  10470  10471  10484     1  0.0000000  0.0000000  3
  10472  10470  10471  10474     1  0.0000000  0.6508444  3
  10472  10470  10489  10479     1  0.0000000  1.2552000  3
  10473  10469  10467  10487     1  0.0000000  1.0460000  1
  10473  10469  10467  10487     1  0.0000000  0.0000000  3
  10473  10469  10467  10486     1  0.0000000  0.6508444  3
  10473  10469  10470  10489     1  0.0000000  0.6508444  3
  10473  10469  10476  10478     1  0.0000000  0.6973333  3
  10474  10471  10470  10489     1  0.0000000  0.6508444  3
  10474  10471  10475  10485     1  0.0000000  0.6973333  3
  10476  10469  10467  10486     1  0.0000000  1.0460000  1
  10476  10469  10467  10486     1  0.0000000  0.0000000  3
  10477  10466  10467  10486     1  0.0000000  0.6508444  3
  10480  10477  10466  10484     1  0.0000000  1.0460000  1
  10480  10477  10466  10484     1  0.0000000  0.0000000  3
  10480  10477  10482  10483     1  0.0000000  0.6973333  3
  10481  10477  10466  10484     1  0.0000000  1.0460000  1
  10481  10477  10466  10484     1  0.0000000  0.0000000  3
  10481  10477  10482  10483     1  0.0000000  0.6973333  3
  10484  10466  10467  10486     1  0.0000000  1.0460000  1
  10484  10466  10467  10486     1  0.0000000  0.0000000  3
  10484  10471  10475  10485     1  0.0000000  0.6973333  3
  10486  10467  10487  10488     1  0.0000000  0.6973333  3
  10490  10491  10493  10497     1  0.0000000  0.6508444  3
  10490  10491  10511  10512     1  0.0000000  1.0460000  1
  10490  10491  10511  10512     1  0.0000000  0.6694400  3
  10490  10501  10506  10507     1  0.0000000  1.0460000  1
  10490  10501  10506  10507     1  0.0000000  0.6694400  3
  10490  10508  10495  10498     1  0.0000000  1.6038667  3
  10491  10490  10501  10504     1  0.0000000  0.6508444  3
  10491  10490  10501  10505     1  0.0000000  0.6508444  3
  10491  10493  10494  10496     1  0.0000000  0.6508444  3
  10491  10493  10500  10502     1  0.0000000  1.0460000  1
  10491  10493  10500  10502     1  0.0000000  0.6694400  3
  10492  10490  10491  10493     1  0.0000000  0.6508444  3
  10492  10490  10491  10511     1  0.0000000  1.0460000  1
  10492  10490  10491  10511     1  0.0000000  0.0000000  3
  10492  10490  10491  10510     1  0.0000000  0.6508444  3
  10492  10490  10501  10506     1  0.0000000  1.0460000  1
  10492  10490  10501  10506     1  0.0000000  0.0000000  3
  10492  10490  10501  10504     1  0.0000000  0.6508444  3
  10492  10490  10501  10505     1  0.0000000  0.6508444  3
  10492  10490  10508  10495     1  0.0000000  1.6038667  3
  10493  10491  10511  10512     1  0.0000000  1.0460000  1
  10493  10491  10511  10512     1  0.0000000  0.6694400  3
  10493  10494  10495  10498     1  0.0000000  0.6508444  3
  10493  10494  10513  10503     1  0.0000000  1.2552000  3
  10494  10493  10491  10510     1  0.0000000  0.6508444  3
  10494  10493  10500  10502     1  0.0000000  1.0460000  1
  10494  10493  10500  10502     1  0.0000000  0.6694400  3
  10494  10495  10499  10509     1  0.0000000  1.0460000  1
  10494  10495  10499  10509     1  0.0000000  0.6694400  3
  10495  10494  10493  10497     1  0.0000000  0.6508444  3
  10495  10494  10513  10503     1  0.0000000  1.2552000  3
  10496  10494  10493  10500     1  0.0000000  1.0460000  1
  10496  10494  10493  10500     1  0.0000000  0.0000000  3
  10496  10494  10493  10497     1  0.0000000  0.6508444  3
  10496  10494  10495  10499     1  0.0000000  1.0460000  1
  10496  10494  10495  10499     1  0.0000000  0.0000000  3
  10496  10494  10495  10508     1  0.0000000  1.0460000  1
  10496  10494  10495  10508     1  0.0000000  0.0000000  3
  10496  10494  10495  10498     1  0.0000000  0.6508444  3
  10496  10494  10513  10503     1  0.0000000  1.2552000  3
  10497  10493  10491  10511     1  0.0000000  1.0460000  1
  10497  10493  10491  10511     1  0.0000000  0.0000000  3
  10497  10493  10491  10510     1  0.0000000  0.6508444  3
  10497  10493  10494  10513     1  0.0000000  0.6508444  3
  10497  10493  10500  10502     1  0.0000000  0.6973333  3
  10498  10495  10494  10513     1  0.0000000  0.6508444  3
  10498  10495  10499  10509     1  0.0000000  0.6973333  3
  10500  10493  10491  10510     1  0.0000000  1.0460000  1
  10500  10493  10491  10510     1  0.0000000  0.0000000  3
  10501  10490  10491  10510     1  0.0000000  0.6508444  3
  10504  10501  10490  10508     1  0.0000000  1.0460000  1
  10504  10501  10490  10508     1  0.0000000  0.0000000  3
  10504  10501  10506  10507     1  0.0000000  0.6973333  3
  10505  10501  10490  10508     1  0.0000000  1.0460000  1
  10505  10501  10490  10508     1  0.0000000  0.0000000  3
  10505  10501  10506  10507     1  0.0000000  0.6973333  3
  10508  10490  10491  10510     1  0.0000000  1.0460000  1
  10508  10490  10491  10510     1  0.0000000  0.0000000  3
  10508  10495  10499  10509     1  0.0000000  0.6973333  3
  10510  10491  10511  10512     1  0.0000000  0.6973333  3
  10514  10516  10518  10520     1  0.0000000  0.6508444  3
  10514  10516  10518  10521     1  0.0000000  0.6508444  3
  10515  10514  10516  10518     1  0.0000000  0.0000000  2
  10515  10514  10516  10517     1  0.0000000  0.0000000  2
  10515  10514  10516  10519     1  0.0000000  0.0000000  2
  10517  10516  10518  10522     1  0.0000000  0.6508444  3
  10517  10516  10518  10520     1  0.0000000  0.6508444  3
  10517  10516  10518  10521     1  0.0000000  0.6508444  3
  10518  10522  10523  10532     1  0.0000000  1.2552000  3
  10518  10522  10523  10533     1  0.0000000  1.2552000  3
  10518  10522  10524  10525     1  0.0000000  1.2552000  3
  10518  10522  10524  10527     1  0.0000000  1.2552000  3
  10519  10516  10518  10522     1  0.0000000  0.6508444  3
  10519  10516  10518  10520     1  0.0000000  0.6508444  3
  10519  10516  10518  10521     1  0.0000000  0.6508444  3
  10520  10518  10522  10523     1  0.0000000  1.2552000  3
  10520  10518  10522  10524     1  0.0000000  1.2552000  3
  10521  10518  10522  10523     1  0.0000000  1.2552000  3
  10521  10518  10522  10524     1  0.0000000  1.2552000  3
  10522  10523  10534  10535     1  0.0000000  0.6508444  3
  10522  10523  10534  10536     1  0.0000000  0.6508444  3
  10522  10524  10526  10528     1  0.0000000  0.6508444  3
  10522  10524  10526  10529     1  0.0000000  0.6508444  3
  10523  10522  10524  10525     1  0.0000000  1.2552000  3
  10523  10522  10524  10527     1  0.0000000  1.2552000  3
  10524  10522  10523  10532     1  0.0000000  1.2552000  3
  10524  10522  10523  10533     1  0.0000000  1.2552000  3
  10525  10524  10526  10530     1  0.0000000  0.6508444  3
  10525  10524  10526  10528     1  0.0000000  0.6508444  3
  10525  10524  10526  10529     1  0.0000000  0.6508444  3
  10526  10530  10562  10552     1  180.0000771  6.0668000  2
  10526  10530  10562  10552     1  180.0000771  1.4644000  4
  10527  10524  10526  10530     1  0.0000000  0.6508444  3
  10527  10524  10526  10528     1  0.0000000  0.6508444  3
  10527  10524  10526  10529     1  0.0000000  0.6508444  3
  10528  10526  10530  10531     1  0.0000000  3.3472000  1
  10528  10526  10530  10531     1  0.0000000  0.0000000  2
  10528  10526  10530  10531     1  180.0000771  0.3347200  3
  10528  10526  10530  10562     1  180.0000771  0.0000000  2
  10529  10526  10530  10531     1  0.0000000  3.3472000  1
  10529  10526  10530  10531     1  0.0000000  0.0000000  2
  10529  10526  10530  10531     1  180.0000771  0.3347200  3
  10529  10526  10530  10562     1  180.0000771  0.0000000  2
  10530  10562  10543  10545     1  0.0000000  1.2552000  3
  10531  10530  10562  10552     1  180.0000771  6.0668000  2
  10531  10530  10562  10552     1  180.0000771  1.4644000  4
  10532  10523  10534  10537     1  0.0000000  0.6508444  3
  10532  10523  10534  10535     1  0.0000000  0.6508444  3
  10532  10523  10534  10536     1  0.0000000  0.6508444  3
  10533  10523  10534  10537     1  0.0000000  0.6508444  3
  10533  10523  10534  10535     1  0.0000000  0.6508444  3
  10533  10523  10534  10536     1  0.0000000  0.6508444  3
  10534  10537  10586  10576     1  180.0000771  6.0668000  2
  10534  10537  10586  10576     1  180.0000771  1.4644000  4
  10535  10534  10537  10538     1  0.0000000  3.3472000  1
  10535  10534  10537  10538     1  0.0000000  0.0000000  2
  10535  10534  10537  10538     1  180.0000771  0.3347200  3
  10535  10534  10537  10586     1  180.0000771  0.0000000  2
  10536  10534  10537  10538     1  0.0000000  3.3472000  1
  10536  10534  10537  10538     1  0.0000000  0.0000000  2
  10536  10534  10537  10538     1  180.0000771  0.3347200  3
  10536  10534  10537  10586     1  180.0000771  0.0000000  2
  10537  10586  10567  10569     1  0.0000000  1.2552000  3
  10538  10537  10586  10576     1  180.0000771  6.0668000  2
  10538  10537  10586  10576     1  180.0000771  1.4644000  4
  10539  10540  10542  10546     1  0.0000000  0.6508444  3
  10539  10540  10560  10561     1  0.0000000  1.0460000  1
  10539  10540  10560  10561     1  0.0000000  0.6694400  3
  10539  10550  10555  10556     1  0.0000000  1.0460000  1
  10539  10550  10555  10556     1  0.0000000  0.6694400  3
  10539  10557  10544  10547     1  0.0000000  1.6038667  3
  10540  10542  10543  10545     1  0.0000000  0.6508444  3
  10540  10542  10549  10551     1  0.0000000  1.0460000  1
  10540  10542  10549  10551     1  0.0000000  0.6694400  3
  10540  10539  10550  10553     1  0.0000000  0.6508444  3
  10540  10539  10550  10554     1  0.0000000  0.6508444  3
  10541  10539  10540  10542     1  0.0000000  0.6508444  3
  10541  10539  10540  10560     1  0.0000000  1.0460000  1
  10541  10539  10540  10560     1  0.0000000  0.0000000  3
  10541  10539  10540  10559     1  0.0000000  0.6508444  3
  10541  10539  10550  10555     1  0.0000000  1.0460000  1
  10541  10539  10550  10555     1  0.0000000  0.0000000  3
  10541  10539  10550  10553     1  0.0000000  0.6508444  3
  10541  10539  10550  10554     1  0.0000000  0.6508444  3
  10541  10539  10557  10544     1  0.0000000  1.6038667  3
  10542  10543  10544  10547     1  0.0000000  0.6508444  3
  10542  10543  10562  10552     1  0.0000000  1.2552000  3
  10542  10540  10560  10561     1  0.0000000  1.0460000  1
  10542  10540  10560  10561     1  0.0000000  0.6694400  3
  10543  10544  10548  10558     1  0.0000000  1.0460000  1
  10543  10544  10548  10558     1  0.0000000  0.6694400  3
  10543  10542  10549  10551     1  0.0000000  1.0460000  1
  10543  10542  10549  10551     1  0.0000000  0.6694400  3
  10543  10542  10540  10559     1  0.0000000  0.6508444  3
  10544  10543  10562  10552     1  0.0000000  1.2552000  3
  10544  10543  10542  10546     1  0.0000000  0.6508444  3
  10545  10543  10544  10548     1  0.0000000  1.0460000  1
  10545  10543  10544  10548     1  0.0000000  0.0000000  3
  10545  10543  10544  10557     1  0.0000000  1.0460000  1
  10545  10543  10544  10557     1  0.0000000  0.0000000  3
  10545  10543  10544  10547     1  0.0000000  0.6508444  3
  10545  10543  10562  10552     1  0.0000000  1.2552000  3
  10545  10543  10542  10549     1  0.0000000  1.0460000  1
  10545  10543  10542  10549     1  0.0000000  0.0000000  3
  10545  10543  10542  10546     1  0.0000000  0.6508444  3
  10546  10542  10543  10562     1  0.0000000  0.6508444  3
  10546  10542  10549  10551     1  0.0000000  0.6973333  3
  10546  10542  10540  10560     1  0.0000000  1.0460000  1
  10546  10542  10540  10560     1  0.0000000  0.0000000  3
  10546  10542  10540  10559     1  0.0000000  0.6508444  3
  10547  10544  10548  10558     1  0.0000000  0.6973333  3
  10547  10544  10543  10562     1  0.0000000  0.6508444  3
  10549  10542  10540  10559     1  0.0000000  1.0460000  1
  10549  10542  10540  10559     1  0.0000000  0.0000000  3
  10550  10539  10540  10559     1  0.0000000  0.6508444  3
  10553  10550  10555  10556     1  0.0000000  0.6973333  3
  10553  10550  10539  10557     1  0.0000000  1.0460000  1
  10553  10550  10539  10557     1  0.0000000  0.0000000  3
  10554  10550  10555  10556     1  0.0000000  0.6973333  3
  10554  10550  10539  10557     1  0.0000000  1.0460000  1
  10554  10550  10539  10557     1  0.0000000  0.0000000  3
  10557  10544  10548  10558     1  0.0000000  0.6973333  3
  10557  10539  10540  10559     1  0.0000000  1.0460000  1
  10557  10539  10540  10559     1  0.0000000  0.0000000  3
  10559  10540  10560  10561     1  0.0000000  0.6973333  3
  10563  10564  10566  10570     1  0.0000000  0.6508444  3
  10563  10564  10584  10585     1  0.0000000  1.0460000  1
  10563  10564  10584  10585     1  0.0000000  0.6694400  3
  10563  10574  10579  10580     1  0.0000000  1.0460000  1
  10563  10574  10579  10580     1  0.0000000  0.6694400  3
  10563  10581  10568  10571     1  0.0000000  1.6038667  3
  10564  10566  10567  10569     1  0.0000000  0.6508444  3
  10564  10566  10573  10575     1  0.0000000  1.0460000  1
  10564  10566  10573  10575     1  0.0000000  0.6694400  3
  10564  10563  10574  10577     1  0.0000000  0.6508444  3
  10564  10563  10574  10578     1  0.0000000  0.6508444  3
  10565  10563  10564  10566     1  0.0000000  0.6508444  3
  10565  10563  10564  10584     1  0.0000000  1.0460000  1
  10565  10563  10564  10584     1  0.0000000  0.0000000  3
  10565  10563  10564  10583     1  0.0000000  0.6508444  3
  10565  10563  10574  10579     1  0.0000000  1.0460000  1
  10565  10563  10574  10579     1  0.0000000  0.0000000  3
  10565  10563  10574  10577     1  0.0000000  0.6508444  3
  10565  10563  10574  10578     1  0.0000000  0.6508444  3
  10565  10563  10581  10568     1  0.0000000  1.6038667  3
  10566  10567  10568  10571     1  0.0000000  0.6508444  3
  10566  10567  10586  10576     1  0.0000000  1.2552000  3
  10566  10564  10584  10585     1  0.0000000  1.0460000  1
  10566  10564  10584  10585     1  0.0000000  0.6694400  3
  10567  10568  10572  10582     1  0.0000000  1.0460000  1
  10567  10568  10572  10582     1  0.0000000  0.6694400  3
  10567  10566  10573  10575     1  0.0000000  1.0460000  1
  10567  10566  10573  10575     1  0.0000000  0.6694400  3
  10567  10566  10564  10583     1  0.0000000  0.6508444  3
  10568  10567  10586  10576     1  0.0000000  1.2552000  3
  10568  10567  10566  10570     1  0.0000000  0.6508444  3
  10569  10567  10568  10572     1  0.0000000  1.0460000  1
  10569  10567  10568  10572     1  0.0000000  0.0000000  3
  10569  10567  10568  10581     1  0.0000000  1.0460000  1
  10569  10567  10568  10581     1  0.0000000  0.0000000  3
  10569  10567  10568  10571     1  0.0000000  0.6508444  3
  10569  10567  10586  10576     1  0.0000000  1.2552000  3
  10569  10567  10566  10573     1  0.0000000  1.0460000  1
  10569  10567  10566  10573     1  0.0000000  0.0000000  3
  10569  10567  10566  10570     1  0.0000000  0.6508444  3
  10570  10566  10567  10586     1  0.0000000  0.6508444  3
  10570  10566  10573  10575     1  0.0000000  0.6973333  3
  10570  10566  10564  10584     1  0.0000000  1.0460000  1
  10570  10566  10564  10584     1  0.0000000  0.0000000  3
  10570  10566  10564  10583     1  0.0000000  0.6508444  3
  10571  10568  10572  10582     1  0.0000000  0.6973333  3
  10571  10568  10567  10586     1  0.0000000  0.6508444  3
  10573  10566  10564  10583     1  0.0000000  1.0460000  1
  10573  10566  10564  10583     1  0.0000000  0.0000000  3
  10574  10563  10564  10583     1  0.0000000  0.6508444  3
  10577  10574  10579  10580     1  0.0000000  0.6973333  3
  10577  10574  10563  10581     1  0.0000000  1.0460000  1
  10577  10574  10563  10581     1  0.0000000  0.0000000  3
  10578  10574  10579  10580     1  0.0000000  0.6973333  3
  10578  10574  10563  10581     1  0.0000000  1.0460000  1
  10578  10574  10563  10581     1  0.0000000  0.0000000  3
  10581  10568  10572  10582     1  0.0000000  0.6973333  3
  10581  10563  10564  10583     1  0.0000000  1.0460000  1
  10581  10563  10564  10583     1  0.0000000  0.0000000  3
  10583  10564  10584  10585     1  0.0000000  0.6973333  3
  10587  10589  10591  10593     1  0.0000000  0.6508444  3
  10587  10589  10591  10594     1  0.0000000  0.6508444  3
  10588  10587  10589  10591     1  0.0000000  0.0000000  2
  10588  10587  10589  10590     1  0.0000000  0.0000000  2
  10588  10587  10589  10592     1  0.0000000  0.0000000  2
  10590  10589  10591  10595     1  0.0000000  0.6508444  3
  10590  10589  10591  10593     1  0.0000000  0.6508444  3
  10590  10589  10591  10594     1  0.0000000  0.6508444  3
  10591  10595  10596  10605     1  0.0000000  1.2552000  3
  10591  10595  10596  10606     1  0.0000000  1.2552000  3
  10591  10595  10597  10598     1  0.0000000  1.2552000  3
  10591  10595  10597  10600     1  0.0000000  1.2552000  3
  10592  10589  10591  10595     1  0.0000000  0.6508444  3
  10592  10589  10591  10593     1  0.0000000  0.6508444  3
  10592  10589  10591  10594     1  0.0000000  0.6508444  3
  10593  10591  10595  10596     1  0.0000000  1.2552000  3
  10593  10591  10595  10597     1  0.0000000  1.2552000  3
  10594  10591  10595  10596     1  0.0000000  1.2552000  3
  10594  10591  10595  10597     1  0.0000000  1.2552000  3
  10595  10596  10607  10608     1  0.0000000  0.6508444  3
  10595  10596  10607  10609     1  0.0000000  0.6508444  3
  10595  10597  10599  10601     1  0.0000000  0.6508444  3
  10595  10597  10599  10602     1  0.0000000  0.6508444  3
  10596  10595  10597  10598     1  0.0000000  1.2552000  3
  10596  10595  10597  10600     1  0.0000000  1.2552000  3
  10597  10595  10596  10605     1  0.0000000  1.2552000  3
  10597  10595  10596  10606     1  0.0000000  1.2552000  3
  10598  10597  10599  10603     1  0.0000000  0.6508444  3
  10598  10597  10599  10601     1  0.0000000  0.6508444  3
  10598  10597  10599  10602     1  0.0000000  0.6508444  3
  10599  10603  10635  10625     1  180.0000771  6.0668000  2
  10599  10603  10635  10625     1  180.0000771  1.4644000  4
  10600  10597  10599  10603     1  0.0000000  0.6508444  3
  10600  10597  10599  10601     1  0.0000000  0.6508444  3
  10600  10597  10599  10602     1  0.0000000  0.6508444  3
  10601  10599  10603  10604     1  0.0000000  3.3472000  1
  10601  10599  10603  10604     1  0.0000000  0.0000000  2
  10601  10599  10603  10604     1  180.0000771  0.3347200  3
  10601  10599  10603  10635     1  180.0000771  0.0000000  2
  10602  10599  10603  10604     1  0.0000000  3.3472000  1
  10602  10599  10603  10604     1  0.0000000  0.0000000  2
  10602  10599  10603  10604     1  180.0000771  0.3347200  3
  10602  10599  10603  10635     1  180.0000771  0.0000000  2
  10603  10635  10616  10618     1  0.0000000  1.2552000  3
  10604  10603  10635  10625     1  180.0000771  6.0668000  2
  10604  10603  10635  10625     1  180.0000771  1.4644000  4
  10605  10596  10607  10610     1  0.0000000  0.6508444  3
  10605  10596  10607  10608     1  0.0000000  0.6508444  3
  10605  10596  10607  10609     1  0.0000000  0.6508444  3
  10606  10596  10607  10610     1  0.0000000  0.6508444  3
  10606  10596  10607  10608     1  0.0000000  0.6508444  3
  10606  10596  10607  10609     1  0.0000000  0.6508444  3
  10607  10610  10659  10649     1  180.0000771  6.0668000  2
  10607  10610  10659  10649     1  180.0000771  1.4644000  4
  10608  10607  10610  10611     1  0.0000000  3.3472000  1
  10608  10607  10610  10611     1  0.0000000  0.0000000  2
  10608  10607  10610  10611     1  180.0000771  0.3347200  3
  10608  10607  10610  10659     1  180.0000771  0.0000000  2
  10609  10607  10610  10611     1  0.0000000  3.3472000  1
  10609  10607  10610  10611     1  0.0000000  0.0000000  2
  10609  10607  10610  10611     1  180.0000771  0.3347200  3
  10609  10607  10610  10659     1  180.0000771  0.0000000  2
  10610  10659  10640  10642     1  0.0000000  1.2552000  3
  10611  10610  10659  10649     1  180.0000771  6.0668000  2
  10611  10610  10659  10649     1  180.0000771  1.4644000  4
  10612  10613  10615  10619     1  0.0000000  0.6508444  3
  10612  10613  10633  10634     1  0.0000000  1.0460000  1
  10612  10613  10633  10634     1  0.0000000  0.6694400  3
  10612  10623  10628  10629     1  0.0000000  1.0460000  1
  10612  10623  10628  10629     1  0.0000000  0.6694400  3
  10612  10630  10617  10620     1  0.0000000  1.6038667  3
  10613  10612  10623  10626     1  0.0000000  0.6508444  3
  10613  10612  10623  10627     1  0.0000000  0.6508444  3
  10613  10615  10616  10618     1  0.0000000  0.6508444  3
  10613  10615  10622  10624     1  0.0000000  1.0460000  1
  10613  10615  10622  10624     1  0.0000000  0.6694400  3
  10614  10612  10613  10615     1  0.0000000  0.6508444  3
  10614  10612  10613  10633     1  0.0000000  1.0460000  1
  10614  10612  10613  10633     1  0.0000000  0.0000000  3
  10614  10612  10613  10632     1  0.0000000  0.6508444  3
  10614  10612  10623  10628     1  0.0000000  1.0460000  1
  10614  10612  10623  10628     1  0.0000000  0.0000000  3
  10614  10612  10623  10626     1  0.0000000  0.6508444  3
  10614  10612  10623  10627     1  0.0000000  0.6508444  3
  10614  10612  10630  10617     1  0.0000000  1.6038667  3
  10615  10613  10633  10634     1  0.0000000  1.0460000  1
  10615  10613  10633  10634     1  0.0000000  0.6694400  3
  10615  10616  10617  10620     1  0.0000000  0.6508444  3
  10615  10616  10635  10625     1  0.0000000  1.2552000  3
  10616  10615  10613  10632     1  0.0000000  0.6508444  3
  10616  10615  10622  10624     1  0.0000000  1.0460000  1
  10616  10615  10622  10624     1  0.0000000  0.6694400  3
  10616  10617  10621  10631     1  0.0000000  1.0460000  1
  10616  10617  10621  10631     1  0.0000000  0.6694400  3
  10617  10616  10615  10619     1  0.0000000  0.6508444  3
  10617  10616  10635  10625     1  0.0000000  1.2552000  3
  10618  10616  10615  10622     1  0.0000000  1.0460000  1
  10618  10616  10615  10622     1  0.0000000  0.0000000  3
  10618  10616  10615  10619     1  0.0000000  0.6508444  3
  10618  10616  10617  10621     1  0.0000000  1.0460000  1
  10618  10616  10617  10621     1  0.0000000  0.0000000  3
  10618  10616  10617  10630     1  0.0000000  1.0460000  1
  10618  10616  10617  10630     1  0.0000000  0.0000000  3
  10618  10616  10617  10620     1  0.0000000  0.6508444  3
  10618  10616  10635  10625     1  0.0000000  1.2552000  3
  10619  10615  10613  10633     1  0.0000000  1.0460000  1
  10619  10615  10613  10633     1  0.0000000  0.0000000  3
  10619  10615  10613  10632     1  0.0000000  0.6508444  3
  10619  10615  10616  10635     1  0.0000000  0.6508444  3
  10619  10615  10622  10624     1  0.0000000  0.6973333  3
  10620  10617  10616  10635     1  0.0000000  0.6508444  3
  10620  10617  10621  10631     1  0.0000000  0.6973333  3
  10622  10615  10613  10632     1  0.0000000  1.0460000  1
  10622  10615  10613  10632     1  0.0000000  0.0000000  3
  10623  10612  10613  10632     1  0.0000000  0.6508444  3
  10626  10623  10612  10630     1  0.0000000  1.0460000  1
  10626  10623  10612  10630     1  0.0000000  0.0000000  3
  10626  10623  10628  10629     1  0.0000000  0.6973333  3
  10627  10623  10612  10630     1  0.0000000  1.0460000  1
  10627  10623  10612  10630     1  0.0000000  0.0000000  3
  10627  10623  10628  10629     1  0.0000000  0.6973333  3
  10630  10612  10613  10632     1  0.0000000  1.0460000  1
  10630  10612  10613  10632     1  0.0000000  0.0000000  3
  10630  10617  10621  10631     1  0.0000000  0.6973333  3
  10632  10613  10633  10634     1  0.0000000  0.6973333  3
  10636  10637  10639  10643     1  0.0000000  0.6508444  3
  10636  10637  10657  10658     1  0.0000000  1.0460000  1
  10636  10637  10657  10658     1  0.0000000  0.6694400  3
  10636  10647  10652  10653     1  0.0000000  1.0460000  1
  10636  10647  10652  10653     1  0.0000000  0.6694400  3
  10636  10654  10641  10644     1  0.0000000  1.6038667  3
  10637  10636  10647  10650     1  0.0000000  0.6508444  3
  10637  10636  10647  10651     1  0.0000000  0.6508444  3
  10637  10639  10640  10642     1  0.0000000  0.6508444  3
  10637  10639  10646  10648     1  0.0000000  1.0460000  1
  10637  10639  10646  10648     1  0.0000000  0.6694400  3
  10638  10636  10637  10639     1  0.0000000  0.6508444  3
  10638  10636  10637  10657     1  0.0000000  1.0460000  1
  10638  10636  10637  10657     1  0.0000000  0.0000000  3
  10638  10636  10637  10656     1  0.0000000  0.6508444  3
  10638  10636  10647  10652     1  0.0000000  1.0460000  1
  10638  10636  10647  10652     1  0.0000000  0.0000000  3
  10638  10636  10647  10650     1  0.0000000  0.6508444  3
  10638  10636  10647  10651     1  0.0000000  0.6508444  3
  10638  10636  10654  10641     1  0.0000000  1.6038667  3
  10639  10637  10657  10658     1  0.0000000  1.0460000  1
  10639  10637  10657  10658     1  0.0000000  0.6694400  3
  10639  10640  10641  10644     1  0.0000000  0.6508444  3
  10639  10640  10659  10649     1  0.0000000  1.2552000  3
  10640  10639  10637  10656     1  0.0000000  0.6508444  3
  10640  10639  10646  10648     1  0.0000000  1.0460000  1
  10640  10639  10646  10648     1  0.0000000  0.6694400  3
  10640  10641  10645  10655     1  0.0000000  1.0460000  1
  10640  10641  10645  10655     1  0.0000000  0.6694400  3
  10641  10640  10639  10643     1  0.0000000  0.6508444  3
  10641  10640  10659  10649     1  0.0000000  1.2552000  3
  10642  10640  10639  10646     1  0.0000000  1.0460000  1
  10642  10640  10639  10646     1  0.0000000  0.0000000  3
  10642  10640  10639  10643     1  0.0000000  0.6508444  3
  10642  10640  10641  10645     1  0.0000000  1.0460000  1
  10642  10640  10641  10645     1  0.0000000  0.0000000  3
  10642  10640  10641  10654     1  0.0000000  1.0460000  1
  10642  10640  10641  10654     1  0.0000000  0.0000000  3
  10642  10640  10641  10644     1  0.0000000  0.6508444  3
  10642  10640  10659  10649     1  0.0000000  1.2552000  3
  10643  10639  10637  10657     1  0.0000000  1.0460000  1
  10643  10639  10637  10657     1  0.0000000  0.0000000  3
  10643  10639  10637  10656     1  0.0000000  0.6508444  3
  10643  10639  10640  10659     1  0.0000000  0.6508444  3
  10643  10639  10646  10648     1  0.0000000  0.6973333  3
  10644  10641  10640  10659     1  0.0000000  0.6508444  3
  10644  10641  10645  10655     1  0.0000000  0.6973333  3
  10646  10639  10637  10656     1  0.0000000  1.0460000  1
  10646  10639  10637  10656     1  0.0000000  0.0000000  3
  10647  10636  10637  10656     1  0.0000000  0.6508444  3
  10650  10647  10636  10654     1  0.0000000  1.0460000  1
  10650  10647  10636  10654     1  0.0000000  0.0000000  3
  10650  10647  10652  10653     1  0.0000000  0.6973333  3
  10651  10647  10636  10654     1  0.0000000  1.0460000  1
  10651  10647  10636  10654     1  0.0000000  0.0000000  3
  10651  10647  10652  10653     1  0.0000000  0.6973333  3
  10654  10636  10637  10656     1  0.0000000  1.0460000  1
  10654  10636  10637  10656     1  0.0000000  0.0000000  3
  10654  10641  10645  10655     1  0.0000000  0.6973333  3
  10656  10637  10657  10658     1  0.0000000  0.6973333  3
  10660  10662  10664  10666     1  0.0000000  0.6508444  3
  10660  10662  10664  10667     1  0.0000000  0.6508444  3
  10661  10660  10662  10664     1  0.0000000  0.0000000  2
  10661  10660  10662  10663     1  0.0000000  0.0000000  2
  10661  10660  10662  10665     1  0.0000000  0.0000000  2
  10663  10662  10664  10668     1  0.0000000  0.6508444  3
  10663  10662  10664  10666     1  0.0000000  0.6508444  3
  10663  10662  10664  10667     1  0.0000000  0.6508444  3
  10664  10668  10669  10678     1  0.0000000  1.2552000  3
  10664  10668  10669  10679     1  0.0000000  1.2552000  3
  10664  10668  10670  10671     1  0.0000000  1.2552000  3
  10664  10668  10670  10673     1  0.0000000  1.2552000  3
  10665  10662  10664  10668     1  0.0000000  0.6508444  3
  10665  10662  10664  10666     1  0.0000000  0.6508444  3
  10665  10662  10664  10667     1  0.0000000  0.6508444  3
  10666  10664  10668  10669     1  0.0000000  1.2552000  3
  10666  10664  10668  10670     1  0.0000000  1.2552000  3
  10667  10664  10668  10669     1  0.0000000  1.2552000  3
  10667  10664  10668  10670     1  0.0000000  1.2552000  3
  10668  10669  10680  10681     1  0.0000000  0.6508444  3
  10668  10669  10680  10682     1  0.0000000  0.6508444  3
  10668  10670  10672  10674     1  0.0000000  0.6508444  3
  10668  10670  10672  10675     1  0.0000000  0.6508444  3
  10669  10668  10670  10671     1  0.0000000  1.2552000  3
  10669  10668  10670  10673     1  0.0000000  1.2552000  3
  10670  10668  10669  10678     1  0.0000000  1.2552000  3
  10670  10668  10669  10679     1  0.0000000  1.2552000  3
  10671  10670  10672  10676     1  0.0000000  0.6508444  3
  10671  10670  10672  10674     1  0.0000000  0.6508444  3
  10671  10670  10672  10675     1  0.0000000  0.6508444  3
  10672  10676  10708  10698     1  180.0000771  6.0668000  2
  10672  10676  10708  10698     1  180.0000771  1.4644000  4
  10673  10670  10672  10676     1  0.0000000  0.6508444  3
  10673  10670  10672  10674     1  0.0000000  0.6508444  3
  10673  10670  10672  10675     1  0.0000000  0.6508444  3
  10674  10672  10676  10677     1  0.0000000  3.3472000  1
  10674  10672  10676  10677     1  0.0000000  0.0000000  2
  10674  10672  10676  10677     1  180.0000771  0.3347200  3
  10674  10672  10676  10708     1  180.0000771  0.0000000  2
  10675  10672  10676  10677     1  0.0000000  3.3472000  1
  10675  10672  10676  10677     1  0.0000000  0.0000000  2
  10675  10672  10676  10677     1  180.0000771  0.3347200  3
  10675  10672  10676  10708     1  180.0000771  0.0000000  2
  10676  10708  10689  10691     1  0.0000000  1.2552000  3
  10677  10676  10708  10698     1  180.0000771  6.0668000  2
  10677  10676  10708  10698     1  180.0000771  1.4644000  4
  10678  10669  10680  10683     1  0.0000000  0.6508444  3
  10678  10669  10680  10681     1  0.0000000  0.6508444  3
  10678  10669  10680  10682     1  0.0000000  0.6508444  3
  10679  10669  10680  10683     1  0.0000000  0.6508444  3
  10679  10669  10680  10681     1  0.0000000  0.6508444  3
  10679  10669  10680  10682     1  0.0000000  0.6508444  3
  10680  10683  10732  10722     1  180.0000771  6.0668000  2
  10680  10683  10732  10722     1  180.0000771  1.4644000  4
  10681  10680  10683  10684     1  0.0000000  3.3472000  1
  10681  10680  10683  10684     1  0.0000000  0.0000000  2
  10681  10680  10683  10684     1  180.0000771  0.3347200  3
  10681  10680  10683  10732     1  180.0000771  0.0000000  2
  10682  10680  10683  10684     1  0.0000000  3.3472000  1
  10682  10680  10683  10684     1  0.0000000  0.0000000  2
  10682  10680  10683  10684     1  180.0000771  0.3347200  3
  10682  10680  10683  10732     1  180.0000771  0.0000000  2
  10683  10732  10713  10715     1  0.0000000  1.2552000  3
  10684  10683  10732  10722     1  180.0000771  6.0668000  2
  10684  10683  10732  10722     1  180.0000771  1.4644000  4
  10685  10686  10688  10692     1  0.0000000  0.6508444  3
  10685  10686  10706  10707     1  0.0000000  1.0460000  1
  10685  10686  10706  10707     1  0.0000000  0.6694400  3
  10685  10696  10701  10702     1  0.0000000  1.0460000  1
  10685  10696  10701  10702     1  0.0000000  0.6694400  3
  10685  10703  10690  10693     1  0.0000000  1.6038667  3
  10686  10688  10689  10691     1  0.0000000  0.6508444  3
  10686  10688  10695  10697     1  0.0000000  1.0460000  1
  10686  10688  10695  10697     1  0.0000000  0.6694400  3
  10686  10685  10696  10699     1  0.0000000  0.6508444  3
  10686  10685  10696  10700     1  0.0000000  0.6508444  3
  10687  10685  10686  10688     1  0.0000000  0.6508444  3
  10687  10685  10686  10706     1  0.0000000  1.0460000  1
  10687  10685  10686  10706     1  0.0000000  0.0000000  3
  10687  10685  10686  10705     1  0.0000000  0.6508444  3
  10687  10685  10696  10701     1  0.0000000  1.0460000  1
  10687  10685  10696  10701     1  0.0000000  0.0000000  3
  10687  10685  10696  10699     1  0.0000000  0.6508444  3
  10687  10685  10696  10700     1  0.0000000  0.6508444  3
  10687  10685  10703  10690     1  0.0000000  1.6038667  3
  10688  10689  10690  10693     1  0.0000000  0.6508444  3
  10688  10689  10708  10698     1  0.0000000  1.2552000  3
  10688  10686  10706  10707     1  0.0000000  1.0460000  1
  10688  10686  10706  10707     1  0.0000000  0.6694400  3
  10689  10690  10694  10704     1  0.0000000  1.0460000  1
  10689  10690  10694  10704     1  0.0000000  0.6694400  3
  10689  10688  10695  10697     1  0.0000000  1.0460000  1
  10689  10688  10695  10697     1  0.0000000  0.6694400  3
  10689  10688  10686  10705     1  0.0000000  0.6508444  3
  10690  10689  10708  10698     1  0.0000000  1.2552000  3
  10690  10689  10688  10692     1  0.0000000  0.6508444  3
  10691  10689  10690  10694     1  0.0000000  1.0460000  1
  10691  10689  10690  10694     1  0.0000000  0.0000000  3
  10691  10689  10690  10703     1  0.0000000  1.0460000  1
  10691  10689  10690  10703     1  0.0000000  0.0000000  3
  10691  10689  10690  10693     1  0.0000000  0.6508444  3
  10691  10689  10708  10698     1  0.0000000  1.2552000  3
  10691  10689  10688  10695     1  0.0000000  1.0460000  1
  10691  10689  10688  10695     1  0.0000000  0.0000000  3
  10691  10689  10688  10692     1  0.0000000  0.6508444  3
  10692  10688  10689  10708     1  0.0000000  0.6508444  3
  10692  10688  10695  10697     1  0.0000000  0.6973333  3
  10692  10688  10686  10706     1  0.0000000  1.0460000  1
  10692  10688  10686  10706     1  0.0000000  0.0000000  3
  10692  10688  10686  10705     1  0.0000000  0.6508444  3
  10693  10690  10694  10704     1  0.0000000  0.6973333  3
  10693  10690  10689  10708     1  0.0000000  0.6508444  3
  10695  10688  10686  10705     1  0.0000000  1.0460000  1
  10695  10688  10686  10705     1  0.0000000  0.0000000  3
  10696  10685  10686  10705     1  0.0000000  0.6508444  3
  10699  10696  10701  10702     1  0.0000000  0.6973333  3
  10699  10696  10685  10703     1  0.0000000  1.0460000  1
  10699  10696  10685  10703     1  0.0000000  0.0000000  3
  10700  10696  10701  10702     1  0.0000000  0.6973333  3
  10700  10696  10685  10703     1  0.0000000  1.0460000  1
  10700  10696  10685  10703     1  0.0000000  0.0000000  3
  10703  10690  10694  10704     1  0.0000000  0.6973333  3
  10703  10685  10686  10705     1  0.0000000  1.0460000  1
  10703  10685  10686  10705     1  0.0000000  0.0000000  3
  10705  10686  10706  10707     1  0.0000000  0.6973333  3
  10709  10710  10712  10716     1  0.0000000  0.6508444  3
  10709  10710  10730  10731     1  0.0000000  1.0460000  1
  10709  10710  10730  10731     1  0.0000000  0.6694400  3
  10709  10720  10725  10726     1  0.0000000  1.0460000  1
  10709  10720  10725  10726     1  0.0000000  0.6694400  3
  10709  10727  10714  10717     1  0.0000000  1.6038667  3
  10710  10712  10713  10715     1  0.0000000  0.6508444  3
  10710  10712  10719  10721     1  0.0000000  1.0460000  1
  10710  10712  10719  10721     1  0.0000000  0.6694400  3
  10710  10709  10720  10723     1  0.0000000  0.6508444  3
  10710  10709  10720  10724     1  0.0000000  0.6508444  3
  10711  10709  10710  10712     1  0.0000000  0.6508444  3
  10711  10709  10710  10730     1  0.0000000  1.0460000  1
  10711  10709  10710  10730     1  0.0000000  0.0000000  3
  10711  10709  10710  10729     1  0.0000000  0.6508444  3
  10711  10709  10720  10725     1  0.0000000  1.0460000  1
  10711  10709  10720  10725     1  0.0000000  0.0000000  3
  10711  10709  10720  10723     1  0.0000000  0.6508444  3
  10711  10709  10720  10724     1  0.0000000  0.6508444  3
  10711  10709  10727  10714     1  0.0000000  1.6038667  3
  10712  10713  10714  10717     1  0.0000000  0.6508444  3
  10712  10713  10732  10722     1  0.0000000  1.2552000  3
  10712  10710  10730  10731     1  0.0000000  1.0460000  1
  10712  10710  10730  10731     1  0.0000000  0.6694400  3
  10713  10714  10718  10728     1  0.0000000  1.0460000  1
  10713  10714  10718  10728     1  0.0000000  0.6694400  3
  10713  10712  10719  10721     1  0.0000000  1.0460000  1
  10713  10712  10719  10721     1  0.0000000  0.6694400  3
  10713  10712  10710  10729     1  0.0000000  0.6508444  3
  10714  10713  10732  10722     1  0.0000000  1.2552000  3
  10714  10713  10712  10716     1  0.0000000  0.6508444  3
  10715  10713  10714  10718     1  0.0000000  1.0460000  1
  10715  10713  10714  10718     1  0.0000000  0.0000000  3
  10715  10713  10714  10727     1  0.0000000  1.0460000  1
  10715  10713  10714  10727     1  0.0000000  0.0000000  3
  10715  10713  10714  10717     1  0.0000000  0.6508444  3
  10715  10713  10732  10722     1  0.0000000  1.2552000  3
  10715  10713  10712  10719     1  0.0000000  1.0460000  1
  10715  10713  10712  10719     1  0.0000000  0.0000000  3
  10715  10713  10712  10716     1  0.0000000  0.6508444  3
  10716  10712  10713  10732     1  0.0000000  0.6508444  3
  10716  10712  10719  10721     1  0.0000000  0.6973333  3
  10716  10712  10710  10730     1  0.0000000  1.0460000  1
  10716  10712  10710  10730     1  0.0000000  0.0000000  3
  10716  10712  10710  10729     1  0.0000000  0.6508444  3
  10717  10714  10718  10728     1  0.0000000  0.6973333  3
  10717  10714  10713  10732     1  0.0000000  0.6508444  3
  10719  10712  10710  10729     1  0.0000000  1.0460000  1
  10719  10712  10710  10729     1  0.0000000  0.0000000  3
  10720  10709  10710  10729     1  0.0000000  0.6508444  3
  10723  10720  10725  10726     1  0.0000000  0.6973333  3
  10723  10720  10709  10727     1  0.0000000  1.0460000  1
  10723  10720  10709  10727     1  0.0000000  0.0000000  3
  10724  10720  10725  10726     1  0.0000000  0.6973333  3
  10724  10720  10709  10727     1  0.0000000  1.0460000  1
  10724  10720  10709  10727     1  0.0000000  0.0000000  3
  10727  10714  10718  10728     1  0.0000000  0.6973333  3
  10727  10709  10710  10729     1  0.0000000  1.0460000  1
  10727  10709  10710  10729     1  0.0000000  0.0000000  3
  10729  10710  10730  10731     1  0.0000000  0.6973333  3
  10733  10735  10737  10739     1  0.0000000  0.6508444  3
  10733  10735  10737  10740     1  0.0000000  0.6508444  3
  10734  10733  10735  10737     1  0.0000000  0.0000000  2
  10734  10733  10735  10736     1  0.0000000  0.0000000  2
  10734  10733  10735  10738     1  0.0000000  0.0000000  2
  10736  10735  10737  10741     1  0.0000000  0.6508444  3
  10736  10735  10737  10739     1  0.0000000  0.6508444  3
  10736  10735  10737  10740     1  0.0000000  0.6508444  3
  10737  10741  10742  10751     1  0.0000000  1.2552000  3
  10737  10741  10742  10752     1  0.0000000  1.2552000  3
  10737  10741  10743  10744     1  0.0000000  1.2552000  3
  10737  10741  10743  10746     1  0.0000000  1.2552000  3
  10738  10735  10737  10741     1  0.0000000  0.6508444  3
  10738  10735  10737  10739     1  0.0000000  0.6508444  3
  10738  10735  10737  10740     1  0.0000000  0.6508444  3
  10739  10737  10741  10742     1  0.0000000  1.2552000  3
  10739  10737  10741  10743     1  0.0000000  1.2552000  3
  10740  10737  10741  10742     1  0.0000000  1.2552000  3
  10740  10737  10741  10743     1  0.0000000  1.2552000  3
  10741  10742  10753  10754     1  0.0000000  0.6508444  3
  10741  10742  10753  10755     1  0.0000000  0.6508444  3
  10741  10743  10745  10747     1  0.0000000  0.6508444  3
  10741  10743  10745  10748     1  0.0000000  0.6508444  3
  10742  10741  10743  10744     1  0.0000000  1.2552000  3
  10742  10741  10743  10746     1  0.0000000  1.2552000  3
  10743  10741  10742  10751     1  0.0000000  1.2552000  3
  10743  10741  10742  10752     1  0.0000000  1.2552000  3
  10744  10743  10745  10749     1  0.0000000  0.6508444  3
  10744  10743  10745  10747     1  0.0000000  0.6508444  3
  10744  10743  10745  10748     1  0.0000000  0.6508444  3
  10745  10749  10781  10771     1  180.0000771  6.0668000  2
  10745  10749  10781  10771     1  180.0000771  1.4644000  4
  10746  10743  10745  10749     1  0.0000000  0.6508444  3
  10746  10743  10745  10747     1  0.0000000  0.6508444  3
  10746  10743  10745  10748     1  0.0000000  0.6508444  3
  10747  10745  10749  10750     1  0.0000000  3.3472000  1
  10747  10745  10749  10750     1  0.0000000  0.0000000  2
  10747  10745  10749  10750     1  180.0000771  0.3347200  3
  10747  10745  10749  10781     1  180.0000771  0.0000000  2
  10748  10745  10749  10750     1  0.0000000  3.3472000  1
  10748  10745  10749  10750     1  0.0000000  0.0000000  2
  10748  10745  10749  10750     1  180.0000771  0.3347200  3
  10748  10745  10749  10781     1  180.0000771  0.0000000  2
  10749  10781  10762  10764     1  0.0000000  1.2552000  3
  10750  10749  10781  10771     1  180.0000771  6.0668000  2
  10750  10749  10781  10771     1  180.0000771  1.4644000  4
  10751  10742  10753  10756     1  0.0000000  0.6508444  3
  10751  10742  10753  10754     1  0.0000000  0.6508444  3
  10751  10742  10753  10755     1  0.0000000  0.6508444  3
  10752  10742  10753  10756     1  0.0000000  0.6508444  3
  10752  10742  10753  10754     1  0.0000000  0.6508444  3
  10752  10742  10753  10755     1  0.0000000  0.6508444  3
  10753  10756  10805  10795     1  180.0000771  6.0668000  2
  10753  10756  10805  10795     1  180.0000771  1.4644000  4
  10754  10753  10756  10757     1  0.0000000  3.3472000  1
  10754  10753  10756  10757     1  0.0000000  0.0000000  2
  10754  10753  10756  10757     1  180.0000771  0.3347200  3
  10754  10753  10756  10805     1  180.0000771  0.0000000  2
  10755  10753  10756  10757     1  0.0000000  3.3472000  1
  10755  10753  10756  10757     1  0.0000000  0.0000000  2
  10755  10753  10756  10757     1  180.0000771  0.3347200  3
  10755  10753  10756  10805     1  180.0000771  0.0000000  2
  10756  10805  10786  10788     1  0.0000000  1.2552000  3
  10757  10756  10805  10795     1  180.0000771  6.0668000  2
  10757  10756  10805  10795     1  180.0000771  1.4644000  4
  10758  10759  10761  10765     1  0.0000000  0.6508444  3
  10758  10759  10779  10780     1  0.0000000  1.0460000  1
  10758  10759  10779  10780     1  0.0000000  0.6694400  3
  10758  10769  10774  10775     1  0.0000000  1.0460000  1
  10758  10769  10774  10775     1  0.0000000  0.6694400  3
  10758  10776  10763  10766     1  0.0000000  1.6038667  3
  10759  10758  10769  10772     1  0.0000000  0.6508444  3
  10759  10758  10769  10773     1  0.0000000  0.6508444  3
  10759  10761  10762  10764     1  0.0000000  0.6508444  3
  10759  10761  10768  10770     1  0.0000000  1.0460000  1
  10759  10761  10768  10770     1  0.0000000  0.6694400  3
  10760  10758  10759  10761     1  0.0000000  0.6508444  3
  10760  10758  10759  10779     1  0.0000000  1.0460000  1
  10760  10758  10759  10779     1  0.0000000  0.0000000  3
  10760  10758  10759  10778     1  0.0000000  0.6508444  3
  10760  10758  10769  10774     1  0.0000000  1.0460000  1
  10760  10758  10769  10774     1  0.0000000  0.0000000  3
  10760  10758  10769  10772     1  0.0000000  0.6508444  3
  10760  10758  10769  10773     1  0.0000000  0.6508444  3
  10760  10758  10776  10763     1  0.0000000  1.6038667  3
  10761  10759  10779  10780     1  0.0000000  1.0460000  1
  10761  10759  10779  10780     1  0.0000000  0.6694400  3
  10761  10762  10763  10766     1  0.0000000  0.6508444  3
  10761  10762  10781  10771     1  0.0000000  1.2552000  3
  10762  10761  10759  10778     1  0.0000000  0.6508444  3
  10762  10761  10768  10770     1  0.0000000  1.0460000  1
  10762  10761  10768  10770     1  0.0000000  0.6694400  3
  10762  10763  10767  10777     1  0.0000000  1.0460000  1
  10762  10763  10767  10777     1  0.0000000  0.6694400  3
  10763  10762  10761  10765     1  0.0000000  0.6508444  3
  10763  10762  10781  10771     1  0.0000000  1.2552000  3
  10764  10762  10761  10768     1  0.0000000  1.0460000  1
  10764  10762  10761  10768     1  0.0000000  0.0000000  3
  10764  10762  10761  10765     1  0.0000000  0.6508444  3
  10764  10762  10763  10767     1  0.0000000  1.0460000  1
  10764  10762  10763  10767     1  0.0000000  0.0000000  3
  10764  10762  10763  10776     1  0.0000000  1.0460000  1
  10764  10762  10763  10776     1  0.0000000  0.0000000  3
  10764  10762  10763  10766     1  0.0000000  0.6508444  3
  10764  10762  10781  10771     1  0.0000000  1.2552000  3
  10765  10761  10759  10779     1  0.0000000  1.0460000  1
  10765  10761  10759  10779     1  0.0000000  0.0000000  3
  10765  10761  10759  10778     1  0.0000000  0.6508444  3
  10765  10761  10762  10781     1  0.0000000  0.6508444  3
  10765  10761  10768  10770     1  0.0000000  0.6973333  3
  10766  10763  10762  10781     1  0.0000000  0.6508444  3
  10766  10763  10767  10777     1  0.0000000  0.6973333  3
  10768  10761  10759  10778     1  0.0000000  1.0460000  1
  10768  10761  10759  10778     1  0.0000000  0.0000000  3
  10769  10758  10759  10778     1  0.0000000  0.6508444  3
  10772  10769  10758  10776     1  0.0000000  1.0460000  1
  10772  10769  10758  10776     1  0.0000000  0.0000000  3
  10772  10769  10774  10775     1  0.0000000  0.6973333  3
  10773  10769  10758  10776     1  0.0000000  1.0460000  1
  10773  10769  10758  10776     1  0.0000000  0.0000000  3
  10773  10769  10774  10775     1  0.0000000  0.6973333  3
  10776  10758  10759  10778     1  0.0000000  1.0460000  1
  10776  10758  10759  10778     1  0.0000000  0.0000000  3
  10776  10763  10767  10777     1  0.0000000  0.6973333  3
  10778  10759  10779  10780     1  0.0000000  0.6973333  3
  10782  10783  10785  10789     1  0.0000000  0.6508444  3
  10782  10783  10803  10804     1  0.0000000  1.0460000  1
  10782  10783  10803  10804     1  0.0000000  0.6694400  3
  10782  10793  10798  10799     1  0.0000000  1.0460000  1
  10782  10793  10798  10799     1  0.0000000  0.6694400  3
  10782  10800  10787  10790     1  0.0000000  1.6038667  3
  10783  10782  10793  10796     1  0.0000000  0.6508444  3
  10783  10782  10793  10797     1  0.0000000  0.6508444  3
  10783  10785  10786  10788     1  0.0000000  0.6508444  3
  10783  10785  10792  10794     1  0.0000000  1.0460000  1
  10783  10785  10792  10794     1  0.0000000  0.6694400  3
  10784  10782  10783  10785     1  0.0000000  0.6508444  3
  10784  10782  10783  10803     1  0.0000000  1.0460000  1
  10784  10782  10783  10803     1  0.0000000  0.0000000  3
  10784  10782  10783  10802     1  0.0000000  0.6508444  3
  10784  10782  10793  10798     1  0.0000000  1.0460000  1
  10784  10782  10793  10798     1  0.0000000  0.0000000  3
  10784  10782  10793  10796     1  0.0000000  0.6508444  3
  10784  10782  10793  10797     1  0.0000000  0.6508444  3
  10784  10782  10800  10787     1  0.0000000  1.6038667  3
  10785  10783  10803  10804     1  0.0000000  1.0460000  1
  10785  10783  10803  10804     1  0.0000000  0.6694400  3
  10785  10786  10787  10790     1  0.0000000  0.6508444  3
  10785  10786  10805  10795     1  0.0000000  1.2552000  3
  10786  10785  10783  10802     1  0.0000000  0.6508444  3
  10786  10785  10792  10794     1  0.0000000  1.0460000  1
  10786  10785  10792  10794     1  0.0000000  0.6694400  3
  10786  10787  10791  10801     1  0.0000000  1.0460000  1
  10786  10787  10791  10801     1  0.0000000  0.6694400  3
  10787  10786  10785  10789     1  0.0000000  0.6508444  3
  10787  10786  10805  10795     1  0.0000000  1.2552000  3
  10788  10786  10785  10792     1  0.0000000  1.0460000  1
  10788  10786  10785  10792     1  0.0000000  0.0000000  3
  10788  10786  10785  10789     1  0.0000000  0.6508444  3
  10788  10786  10787  10791     1  0.0000000  1.0460000  1
  10788  10786  10787  10791     1  0.0000000  0.0000000  3
  10788  10786  10787  10800     1  0.0000000  1.0460000  1
  10788  10786  10787  10800     1  0.0000000  0.0000000  3
  10788  10786  10787  10790     1  0.0000000  0.6508444  3
  10788  10786  10805  10795     1  0.0000000  1.2552000  3
  10789  10785  10783  10803     1  0.0000000  1.0460000  1
  10789  10785  10783  10803     1  0.0000000  0.0000000  3
  10789  10785  10783  10802     1  0.0000000  0.6508444  3
  10789  10785  10786  10805     1  0.0000000  0.6508444  3
  10789  10785  10792  10794     1  0.0000000  0.6973333  3
  10790  10787  10786  10805     1  0.0000000  0.6508444  3
  10790  10787  10791  10801     1  0.0000000  0.6973333  3
  10792  10785  10783  10802     1  0.0000000  1.0460000  1
  10792  10785  10783  10802     1  0.0000000  0.0000000  3
  10793  10782  10783  10802     1  0.0000000  0.6508444  3
  10796  10793  10782  10800     1  0.0000000  1.0460000  1
  10796  10793  10782  10800     1  0.0000000  0.0000000  3
  10796  10793  10798  10799     1  0.0000000  0.6973333  3
  10797  10793  10782  10800     1  0.0000000  1.0460000  1
  10797  10793  10782  10800     1  0.0000000  0.0000000  3
  10797  10793  10798  10799     1  0.0000000  0.6973333  3
  10800  10782  10783  10802     1  0.0000000  1.0460000  1
  10800  10782  10783  10802     1  0.0000000  0.0000000  3
  10800  10787  10791  10801     1  0.0000000  0.6973333  3
  10802  10783  10803  10804     1  0.0000000  0.6973333  3
  10806  10808  10810  10812     1  0.0000000  0.6508444  3
  10806  10808  10810  10813     1  0.0000000  0.6508444  3
  10807  10806  10808  10810     1  0.0000000  0.0000000  2
  10807  10806  10808  10809     1  0.0000000  0.0000000  2
  10807  10806  10808  10811     1  0.0000000  0.0000000  2
  10809  10808  10810  10814     1  0.0000000  0.6508444  3
  10809  10808  10810  10812     1  0.0000000  0.6508444  3
  10809  10808  10810  10813     1  0.0000000  0.6508444  3
  10810  10814  10815  10824     1  0.0000000  1.2552000  3
  10810  10814  10815  10825     1  0.0000000  1.2552000  3
  10810  10814  10816  10817     1  0.0000000  1.2552000  3
  10810  10814  10816  10819     1  0.0000000  1.2552000  3
  10811  10808  10810  10814     1  0.0000000  0.6508444  3
  10811  10808  10810  10812     1  0.0000000  0.6508444  3
  10811  10808  10810  10813     1  0.0000000  0.6508444  3
  10812  10810  10814  10815     1  0.0000000  1.2552000  3
  10812  10810  10814  10816     1  0.0000000  1.2552000  3
  10813  10810  10814  10815     1  0.0000000  1.2552000  3
  10813  10810  10814  10816     1  0.0000000  1.2552000  3
  10814  10815  10826  10827     1  0.0000000  0.6508444  3
  10814  10815  10826  10828     1  0.0000000  0.6508444  3
  10814  10816  10818  10820     1  0.0000000  0.6508444  3
  10814  10816  10818  10821     1  0.0000000  0.6508444  3
  10815  10814  10816  10817     1  0.0000000  1.2552000  3
  10815  10814  10816  10819     1  0.0000000  1.2552000  3
  10816  10814  10815  10824     1  0.0000000  1.2552000  3
  10816  10814  10815  10825     1  0.0000000  1.2552000  3
  10817  10816  10818  10822     1  0.0000000  0.6508444  3
  10817  10816  10818  10820     1  0.0000000  0.6508444  3
  10817  10816  10818  10821     1  0.0000000  0.6508444  3
  10818  10822  10854  10844     1  180.0000771  6.0668000  2
  10818  10822  10854  10844     1  180.0000771  1.4644000  4
  10819  10816  10818  10822     1  0.0000000  0.6508444  3
  10819  10816  10818  10820     1  0.0000000  0.6508444  3
  10819  10816  10818  10821     1  0.0000000  0.6508444  3
  10820  10818  10822  10823     1  0.0000000  3.3472000  1
  10820  10818  10822  10823     1  0.0000000  0.0000000  2
  10820  10818  10822  10823     1  180.0000771  0.3347200  3
  10820  10818  10822  10854     1  180.0000771  0.0000000  2
  10821  10818  10822  10823     1  0.0000000  3.3472000  1
  10821  10818  10822  10823     1  0.0000000  0.0000000  2
  10821  10818  10822  10823     1  180.0000771  0.3347200  3
  10821  10818  10822  10854     1  180.0000771  0.0000000  2
  10822  10854  10835  10837     1  0.0000000  1.2552000  3
  10823  10822  10854  10844     1  180.0000771  6.0668000  2
  10823  10822  10854  10844     1  180.0000771  1.4644000  4
  10824  10815  10826  10829     1  0.0000000  0.6508444  3
  10824  10815  10826  10827     1  0.0000000  0.6508444  3
  10824  10815  10826  10828     1  0.0000000  0.6508444  3
  10825  10815  10826  10829     1  0.0000000  0.6508444  3
  10825  10815  10826  10827     1  0.0000000  0.6508444  3
  10825  10815  10826  10828     1  0.0000000  0.6508444  3
  10826  10829  10878  10868     1  180.0000771  6.0668000  2
  10826  10829  10878  10868     1  180.0000771  1.4644000  4
  10827  10826  10829  10830     1  0.0000000  3.3472000  1
  10827  10826  10829  10830     1  0.0000000  0.0000000  2
  10827  10826  10829  10830     1  180.0000771  0.3347200  3
  10827  10826  10829  10878     1  180.0000771  0.0000000  2
  10828  10826  10829  10830     1  0.0000000  3.3472000  1
  10828  10826  10829  10830     1  0.0000000  0.0000000  2
  10828  10826  10829  10830     1  180.0000771  0.3347200  3
  10828  10826  10829  10878     1  180.0000771  0.0000000  2
  10829  10878  10859  10861     1  0.0000000  1.2552000  3
  10830  10829  10878  10868     1  180.0000771  6.0668000  2
  10830  10829  10878  10868     1  180.0000771  1.4644000  4
  10831  10832  10834  10838     1  0.0000000  0.6508444  3
  10831  10832  10852  10853     1  0.0000000  1.0460000  1
  10831  10832  10852  10853     1  0.0000000  0.6694400  3
  10831  10842  10847  10848     1  0.0000000  1.0460000  1
  10831  10842  10847  10848     1  0.0000000  0.6694400  3
  10831  10849  10836  10839     1  0.0000000  1.6038667  3
  10832  10834  10835  10837     1  0.0000000  0.6508444  3
  10832  10834  10841  10843     1  0.0000000  1.0460000  1
  10832  10834  10841  10843     1  0.0000000  0.6694400  3
  10832  10831  10842  10845     1  0.0000000  0.6508444  3
  10832  10831  10842  10846     1  0.0000000  0.6508444  3
  10833  10831  10832  10834     1  0.0000000  0.6508444  3
  10833  10831  10832  10852     1  0.0000000  1.0460000  1
  10833  10831  10832  10852     1  0.0000000  0.0000000  3
  10833  10831  10832  10851     1  0.0000000  0.6508444  3
  10833  10831  10842  10847     1  0.0000000  1.0460000  1
  10833  10831  10842  10847     1  0.0000000  0.0000000  3
  10833  10831  10842  10845     1  0.0000000  0.6508444  3
  10833  10831  10842  10846     1  0.0000000  0.6508444  3
  10833  10831  10849  10836     1  0.0000000  1.6038667  3
  10834  10835  10836  10839     1  0.0000000  0.6508444  3
  10834  10835  10854  10844     1  0.0000000  1.2552000  3
  10834  10832  10852  10853     1  0.0000000  1.0460000  1
  10834  10832  10852  10853     1  0.0000000  0.6694400  3
  10835  10836  10840  10850     1  0.0000000  1.0460000  1
  10835  10836  10840  10850     1  0.0000000  0.6694400  3
  10835  10834  10841  10843     1  0.0000000  1.0460000  1
  10835  10834  10841  10843     1  0.0000000  0.6694400  3
  10835  10834  10832  10851     1  0.0000000  0.6508444  3
  10836  10835  10854  10844     1  0.0000000  1.2552000  3
  10836  10835  10834  10838     1  0.0000000  0.6508444  3
  10837  10835  10836  10840     1  0.0000000  1.0460000  1
  10837  10835  10836  10840     1  0.0000000  0.0000000  3
  10837  10835  10836  10849     1  0.0000000  1.0460000  1
  10837  10835  10836  10849     1  0.0000000  0.0000000  3
  10837  10835  10836  10839     1  0.0000000  0.6508444  3
  10837  10835  10854  10844     1  0.0000000  1.2552000  3
  10837  10835  10834  10841     1  0.0000000  1.0460000  1
  10837  10835  10834  10841     1  0.0000000  0.0000000  3
  10837  10835  10834  10838     1  0.0000000  0.6508444  3
  10838  10834  10835  10854     1  0.0000000  0.6508444  3
  10838  10834  10841  10843     1  0.0000000  0.6973333  3
  10838  10834  10832  10852     1  0.0000000  1.0460000  1
  10838  10834  10832  10852     1  0.0000000  0.0000000  3
  10838  10834  10832  10851     1  0.0000000  0.6508444  3
  10839  10836  10840  10850     1  0.0000000  0.6973333  3
  10839  10836  10835  10854     1  0.0000000  0.6508444  3
  10841  10834  10832  10851     1  0.0000000  1.0460000  1
  10841  10834  10832  10851     1  0.0000000  0.0000000  3
  10842  10831  10832  10851     1  0.0000000  0.6508444  3
  10845  10842  10847  10848     1  0.0000000  0.6973333  3
  10845  10842  10831  10849     1  0.0000000  1.0460000  1
  10845  10842  10831  10849     1  0.0000000  0.0000000  3
  10846  10842  10847  10848     1  0.0000000  0.6973333  3
  10846  10842  10831  10849     1  0.0000000  1.0460000  1
  10846  10842  10831  10849     1  0.0000000  0.0000000  3
  10849  10836  10840  10850     1  0.0000000  0.6973333  3
  10849  10831  10832  10851     1  0.0000000  1.0460000  1
  10849  10831  10832  10851     1  0.0000000  0.0000000  3
  10851  10832  10852  10853     1  0.0000000  0.6973333  3
  10855  10856  10858  10862     1  0.0000000  0.6508444  3
  10855  10856  10876  10877     1  0.0000000  1.0460000  1
  10855  10856  10876  10877     1  0.0000000  0.6694400  3
  10855  10866  10871  10872     1  0.0000000  1.0460000  1
  10855  10866  10871  10872     1  0.0000000  0.6694400  3
  10855  10873  10860  10863     1  0.0000000  1.6038667  3
  10856  10858  10859  10861     1  0.0000000  0.6508444  3
  10856  10858  10865  10867     1  0.0000000  1.0460000  1
  10856  10858  10865  10867     1  0.0000000  0.6694400  3
  10856  10855  10866  10869     1  0.0000000  0.6508444  3
  10856  10855  10866  10870     1  0.0000000  0.6508444  3
  10857  10855  10856  10858     1  0.0000000  0.6508444  3
  10857  10855  10856  10876     1  0.0000000  1.0460000  1
  10857  10855  10856  10876     1  0.0000000  0.0000000  3
  10857  10855  10856  10875     1  0.0000000  0.6508444  3
  10857  10855  10866  10871     1  0.0000000  1.0460000  1
  10857  10855  10866  10871     1  0.0000000  0.0000000  3
  10857  10855  10866  10869     1  0.0000000  0.6508444  3
  10857  10855  10866  10870     1  0.0000000  0.6508444  3
  10857  10855  10873  10860     1  0.0000000  1.6038667  3
  10858  10859  10860  10863     1  0.0000000  0.6508444  3
  10858  10859  10878  10868     1  0.0000000  1.2552000  3
  10858  10856  10876  10877     1  0.0000000  1.0460000  1
  10858  10856  10876  10877     1  0.0000000  0.6694400  3
  10859  10860  10864  10874     1  0.0000000  1.0460000  1
  10859  10860  10864  10874     1  0.0000000  0.6694400  3
  10859  10858  10865  10867     1  0.0000000  1.0460000  1
  10859  10858  10865  10867     1  0.0000000  0.6694400  3
  10859  10858  10856  10875     1  0.0000000  0.6508444  3
  10860  10859  10878  10868     1  0.0000000  1.2552000  3
  10860  10859  10858  10862     1  0.0000000  0.6508444  3
  10861  10859  10860  10864     1  0.0000000  1.0460000  1
  10861  10859  10860  10864     1  0.0000000  0.0000000  3
  10861  10859  10860  10873     1  0.0000000  1.0460000  1
  10861  10859  10860  10873     1  0.0000000  0.0000000  3
  10861  10859  10860  10863     1  0.0000000  0.6508444  3
  10861  10859  10878  10868     1  0.0000000  1.2552000  3
  10861  10859  10858  10865     1  0.0000000  1.0460000  1
  10861  10859  10858  10865     1  0.0000000  0.0000000  3
  10861  10859  10858  10862     1  0.0000000  0.6508444  3
  10862  10858  10859  10878     1  0.0000000  0.6508444  3
  10862  10858  10865  10867     1  0.0000000  0.6973333  3
  10862  10858  10856  10876     1  0.0000000  1.0460000  1
  10862  10858  10856  10876     1  0.0000000  0.0000000  3
  10862  10858  10856  10875     1  0.0000000  0.6508444  3
  10863  10860  10864  10874     1  0.0000000  0.6973333  3
  10863  10860  10859  10878     1  0.0000000  0.6508444  3
  10865  10858  10856  10875     1  0.0000000  1.0460000  1
  10865  10858  10856  10875     1  0.0000000  0.0000000  3
  10866  10855  10856  10875     1  0.0000000  0.6508444  3
  10869  10866  10871  10872     1  0.0000000  0.6973333  3
  10869  10866  10855  10873     1  0.0000000  1.0460000  1
  10869  10866  10855  10873     1  0.0000000  0.0000000  3
  10870  10866  10871  10872     1  0.0000000  0.6973333  3
  10870  10866  10855  10873     1  0.0000000  1.0460000  1
  10870  10866  10855  10873     1  0.0000000  0.0000000  3
  10873  10860  10864  10874     1  0.0000000  0.6973333  3
  10873  10855  10856  10875     1  0.0000000  1.0460000  1
  10873  10855  10856  10875     1  0.0000000  0.0000000  3
  10875  10856  10876  10877     1  0.0000000  0.6973333  3
  10879  10881  10883  10885     1  0.0000000  0.6508444  3
  10879  10881  10883  10886     1  0.0000000  0.6508444  3
  10880  10879  10881  10883     1  0.0000000  0.0000000  2
  10880  10879  10881  10882     1  0.0000000  0.0000000  2
  10880  10879  10881  10884     1  0.0000000  0.0000000  2
  10882  10881  10883  10887     1  0.0000000  0.6508444  3
  10882  10881  10883  10885     1  0.0000000  0.6508444  3
  10882  10881  10883  10886     1  0.0000000  0.6508444  3
  10883  10887  10888  10897     1  0.0000000  1.2552000  3
  10883  10887  10888  10898     1  0.0000000  1.2552000  3
  10883  10887  10889  10890     1  0.0000000  1.2552000  3
  10883  10887  10889  10892     1  0.0000000  1.2552000  3
  10884  10881  10883  10887     1  0.0000000  0.6508444  3
  10884  10881  10883  10885     1  0.0000000  0.6508444  3
  10884  10881  10883  10886     1  0.0000000  0.6508444  3
  10885  10883  10887  10888     1  0.0000000  1.2552000  3
  10885  10883  10887  10889     1  0.0000000  1.2552000  3
  10886  10883  10887  10888     1  0.0000000  1.2552000  3
  10886  10883  10887  10889     1  0.0000000  1.2552000  3
  10887  10888  10899  10900     1  0.0000000  0.6508444  3
  10887  10888  10899  10901     1  0.0000000  0.6508444  3
  10887  10889  10891  10893     1  0.0000000  0.6508444  3
  10887  10889  10891  10894     1  0.0000000  0.6508444  3
  10888  10887  10889  10890     1  0.0000000  1.2552000  3
  10888  10887  10889  10892     1  0.0000000  1.2552000  3
  10889  10887  10888  10897     1  0.0000000  1.2552000  3
  10889  10887  10888  10898     1  0.0000000  1.2552000  3
  10890  10889  10891  10895     1  0.0000000  0.6508444  3
  10890  10889  10891  10893     1  0.0000000  0.6508444  3
  10890  10889  10891  10894     1  0.0000000  0.6508444  3
  10891  10895  10927  10917     1  180.0000771  6.0668000  2
  10891  10895  10927  10917     1  180.0000771  1.4644000  4
  10892  10889  10891  10895     1  0.0000000  0.6508444  3
  10892  10889  10891  10893     1  0.0000000  0.6508444  3
  10892  10889  10891  10894     1  0.0000000  0.6508444  3
  10893  10891  10895  10896     1  0.0000000  3.3472000  1
  10893  10891  10895  10896     1  0.0000000  0.0000000  2
  10893  10891  10895  10896     1  180.0000771  0.3347200  3
  10893  10891  10895  10927     1  180.0000771  0.0000000  2
  10894  10891  10895  10896     1  0.0000000  3.3472000  1
  10894  10891  10895  10896     1  0.0000000  0.0000000  2
  10894  10891  10895  10896     1  180.0000771  0.3347200  3
  10894  10891  10895  10927     1  180.0000771  0.0000000  2
  10895  10927  10908  10910     1  0.0000000  1.2552000  3
  10896  10895  10927  10917     1  180.0000771  6.0668000  2
  10896  10895  10927  10917     1  180.0000771  1.4644000  4
  10897  10888  10899  10902     1  0.0000000  0.6508444  3
  10897  10888  10899  10900     1  0.0000000  0.6508444  3
  10897  10888  10899  10901     1  0.0000000  0.6508444  3
  10898  10888  10899  10902     1  0.0000000  0.6508444  3
  10898  10888  10899  10900     1  0.0000000  0.6508444  3
  10898  10888  10899  10901     1  0.0000000  0.6508444  3
  10899  10902  10951  10941     1  180.0000771  6.0668000  2
  10899  10902  10951  10941     1  180.0000771  1.4644000  4
  10900  10899  10902  10903     1  0.0000000  3.3472000  1
  10900  10899  10902  10903     1  0.0000000  0.0000000  2
  10900  10899  10902  10903     1  180.0000771  0.3347200  3
  10900  10899  10902  10951     1  180.0000771  0.0000000  2
  10901  10899  10902  10903     1  0.0000000  3.3472000  1
  10901  10899  10902  10903     1  0.0000000  0.0000000  2
  10901  10899  10902  10903     1  180.0000771  0.3347200  3
  10901  10899  10902  10951     1  180.0000771  0.0000000  2
  10902  10951  10932  10934     1  0.0000000  1.2552000  3
  10903  10902  10951  10941     1  180.0000771  6.0668000  2
  10903  10902  10951  10941     1  180.0000771  1.4644000  4
  10904  10905  10907  10911     1  0.0000000  0.6508444  3
  10904  10905  10925  10926     1  0.0000000  1.0460000  1
  10904  10905  10925  10926     1  0.0000000  0.6694400  3
  10904  10915  10920  10921     1  0.0000000  1.0460000  1
  10904  10915  10920  10921     1  0.0000000  0.6694400  3
  10904  10922  10909  10912     1  0.0000000  1.6038667  3
  10905  10904  10915  10918     1  0.0000000  0.6508444  3
  10905  10904  10915  10919     1  0.0000000  0.6508444  3
  10905  10907  10908  10910     1  0.0000000  0.6508444  3
  10905  10907  10914  10916     1  0.0000000  1.0460000  1
  10905  10907  10914  10916     1  0.0000000  0.6694400  3
  10906  10904  10905  10907     1  0.0000000  0.6508444  3
  10906  10904  10905  10925     1  0.0000000  1.0460000  1
  10906  10904  10905  10925     1  0.0000000  0.0000000  3
  10906  10904  10905  10924     1  0.0000000  0.6508444  3
  10906  10904  10915  10920     1  0.0000000  1.0460000  1
  10906  10904  10915  10920     1  0.0000000  0.0000000  3
  10906  10904  10915  10918     1  0.0000000  0.6508444  3
  10906  10904  10915  10919     1  0.0000000  0.6508444  3
  10906  10904  10922  10909     1  0.0000000  1.6038667  3
  10907  10905  10925  10926     1  0.0000000  1.0460000  1
  10907  10905  10925  10926     1  0.0000000  0.6694400  3
  10907  10908  10909  10912     1  0.0000000  0.6508444  3
  10907  10908  10927  10917     1  0.0000000  1.2552000  3
  10908  10907  10905  10924     1  0.0000000  0.6508444  3
  10908  10907  10914  10916     1  0.0000000  1.0460000  1
  10908  10907  10914  10916     1  0.0000000  0.6694400  3
  10908  10909  10913  10923     1  0.0000000  1.0460000  1
  10908  10909  10913  10923     1  0.0000000  0.6694400  3
  10909  10908  10907  10911     1  0.0000000  0.6508444  3
  10909  10908  10927  10917     1  0.0000000  1.2552000  3
  10910  10908  10907  10914     1  0.0000000  1.0460000  1
  10910  10908  10907  10914     1  0.0000000  0.0000000  3
  10910  10908  10907  10911     1  0.0000000  0.6508444  3
  10910  10908  10909  10913     1  0.0000000  1.0460000  1
  10910  10908  10909  10913     1  0.0000000  0.0000000  3
  10910  10908  10909  10922     1  0.0000000  1.0460000  1
  10910  10908  10909  10922     1  0.0000000  0.0000000  3
  10910  10908  10909  10912     1  0.0000000  0.6508444  3
  10910  10908  10927  10917     1  0.0000000  1.2552000  3
  10911  10907  10905  10925     1  0.0000000  1.0460000  1
  10911  10907  10905  10925     1  0.0000000  0.0000000  3
  10911  10907  10905  10924     1  0.0000000  0.6508444  3
  10911  10907  10908  10927     1  0.0000000  0.6508444  3
  10911  10907  10914  10916     1  0.0000000  0.6973333  3
  10912  10909  10908  10927     1  0.0000000  0.6508444  3
  10912  10909  10913  10923     1  0.0000000  0.6973333  3
  10914  10907  10905  10924     1  0.0000000  1.0460000  1
  10914  10907  10905  10924     1  0.0000000  0.0000000  3
  10915  10904  10905  10924     1  0.0000000  0.6508444  3
  10918  10915  10904  10922     1  0.0000000  1.0460000  1
  10918  10915  10904  10922     1  0.0000000  0.0000000  3
  10918  10915  10920  10921     1  0.0000000  0.6973333  3
  10919  10915  10904  10922     1  0.0000000  1.0460000  1
  10919  10915  10904  10922     1  0.0000000  0.0000000  3
  10919  10915  10920  10921     1  0.0000000  0.6973333  3
  10922  10904  10905  10924     1  0.0000000  1.0460000  1
  10922  10904  10905  10924     1  0.0000000  0.0000000  3
  10922  10909  10913  10923     1  0.0000000  0.6973333  3
  10924  10905  10925  10926     1  0.0000000  0.6973333  3
  10928  10929  10931  10935     1  0.0000000  0.6508444  3
  10928  10929  10949  10950     1  0.0000000  1.0460000  1
  10928  10929  10949  10950     1  0.0000000  0.6694400  3
  10928  10939  10944  10945     1  0.0000000  1.0460000  1
  10928  10939  10944  10945     1  0.0000000  0.6694400  3
  10928  10946  10933  10936     1  0.0000000  1.6038667  3
  10929  10928  10939  10942     1  0.0000000  0.6508444  3
  10929  10928  10939  10943     1  0.0000000  0.6508444  3
  10929  10931  10932  10934     1  0.0000000  0.6508444  3
  10929  10931  10938  10940     1  0.0000000  1.0460000  1
  10929  10931  10938  10940     1  0.0000000  0.6694400  3
  10930  10928  10929  10931     1  0.0000000  0.6508444  3
  10930  10928  10929  10949     1  0.0000000  1.0460000  1
  10930  10928  10929  10949     1  0.0000000  0.0000000  3
  10930  10928  10929  10948     1  0.0000000  0.6508444  3
  10930  10928  10939  10944     1  0.0000000  1.0460000  1
  10930  10928  10939  10944     1  0.0000000  0.0000000  3
  10930  10928  10939  10942     1  0.0000000  0.6508444  3
  10930  10928  10939  10943     1  0.0000000  0.6508444  3
  10930  10928  10946  10933     1  0.0000000  1.6038667  3
  10931  10929  10949  10950     1  0.0000000  1.0460000  1
  10931  10929  10949  10950     1  0.0000000  0.6694400  3
  10931  10932  10933  10936     1  0.0000000  0.6508444  3
  10931  10932  10951  10941     1  0.0000000  1.2552000  3
  10932  10931  10929  10948     1  0.0000000  0.6508444  3
  10932  10931  10938  10940     1  0.0000000  1.0460000  1
  10932  10931  10938  10940     1  0.0000000  0.6694400  3
  10932  10933  10937  10947     1  0.0000000  1.0460000  1
  10932  10933  10937  10947     1  0.0000000  0.6694400  3
  10933  10932  10931  10935     1  0.0000000  0.6508444  3
  10933  10932  10951  10941     1  0.0000000  1.2552000  3
  10934  10932  10931  10938     1  0.0000000  1.0460000  1
  10934  10932  10931  10938     1  0.0000000  0.0000000  3
  10934  10932  10931  10935     1  0.0000000  0.6508444  3
  10934  10932  10933  10937     1  0.0000000  1.0460000  1
  10934  10932  10933  10937     1  0.0000000  0.0000000  3
  10934  10932  10933  10946     1  0.0000000  1.0460000  1
  10934  10932  10933  10946     1  0.0000000  0.0000000  3
  10934  10932  10933  10936     1  0.0000000  0.6508444  3
  10934  10932  10951  10941     1  0.0000000  1.2552000  3
  10935  10931  10929  10949     1  0.0000000  1.0460000  1
  10935  10931  10929  10949     1  0.0000000  0.0000000  3
  10935  10931  10929  10948     1  0.0000000  0.6508444  3
  10935  10931  10932  10951     1  0.0000000  0.6508444  3
  10935  10931  10938  10940     1  0.0000000  0.6973333  3
  10936  10933  10932  10951     1  0.0000000  0.6508444  3
  10936  10933  10937  10947     1  0.0000000  0.6973333  3
  10938  10931  10929  10948     1  0.0000000  1.0460000  1
  10938  10931  10929  10948     1  0.0000000  0.0000000  3
  10939  10928  10929  10948     1  0.0000000  0.6508444  3
  10942  10939  10928  10946     1  0.0000000  1.0460000  1
  10942  10939  10928  10946     1  0.0000000  0.0000000  3
  10942  10939  10944  10945     1  0.0000000  0.6973333  3
  10943  10939  10928  10946     1  0.0000000  1.0460000  1
  10943  10939  10928  10946     1  0.0000000  0.0000000  3
  10943  10939  10944  10945     1  0.0000000  0.6973333  3
  10946  10928  10929  10948     1  0.0000000  1.0460000  1
  10946  10928  10929  10948     1  0.0000000  0.0000000  3
  10946  10933  10937  10947     1  0.0000000  0.6973333  3
  10948  10929  10949  10950     1  0.0000000  0.6973333  3
  10952  10954  10956  10958     1  0.0000000  0.6508444  3
  10952  10954  10956  10959     1  0.0000000  0.6508444  3
  10953  10952  10954  10956     1  0.0000000  0.0000000  2
  10953  10952  10954  10955     1  0.0000000  0.0000000  2
  10953  10952  10954  10957     1  0.0000000  0.0000000  2
  10955  10954  10956  10960     1  0.0000000  0.6508444  3
  10955  10954  10956  10958     1  0.0000000  0.6508444  3
  10955  10954  10956  10959     1  0.0000000  0.6508444  3
  10956  10960  10961  10970     1  0.0000000  1.2552000  3
  10956  10960  10961  10971     1  0.0000000  1.2552000  3
  10956  10960  10962  10963     1  0.0000000  1.2552000  3
  10956  10960  10962  10965     1  0.0000000  1.2552000  3
  10957  10954  10956  10960     1  0.0000000  0.6508444  3
  10957  10954  10956  10958     1  0.0000000  0.6508444  3
  10957  10954  10956  10959     1  0.0000000  0.6508444  3
  10958  10956  10960  10961     1  0.0000000  1.2552000  3
  10958  10956  10960  10962     1  0.0000000  1.2552000  3
  10959  10956  10960  10961     1  0.0000000  1.2552000  3
  10959  10956  10960  10962     1  0.0000000  1.2552000  3
  10960  10961  10972  10973     1  0.0000000  0.6508444  3
  10960  10961  10972  10974     1  0.0000000  0.6508444  3
  10960  10962  10964  10966     1  0.0000000  0.6508444  3
  10960  10962  10964  10967     1  0.0000000  0.6508444  3
  10961  10960  10962  10963     1  0.0000000  1.2552000  3
  10961  10960  10962  10965     1  0.0000000  1.2552000  3
  10962  10960  10961  10970     1  0.0000000  1.2552000  3
  10962  10960  10961  10971     1  0.0000000  1.2552000  3
  10963  10962  10964  10968     1  0.0000000  0.6508444  3
  10963  10962  10964  10966     1  0.0000000  0.6508444  3
  10963  10962  10964  10967     1  0.0000000  0.6508444  3
  10964  10968  11000  10990     1  180.0000771  6.0668000  2
  10964  10968  11000  10990     1  180.0000771  1.4644000  4
  10965  10962  10964  10968     1  0.0000000  0.6508444  3
  10965  10962  10964  10966     1  0.0000000  0.6508444  3
  10965  10962  10964  10967     1  0.0000000  0.6508444  3
  10966  10964  10968  10969     1  0.0000000  3.3472000  1
  10966  10964  10968  10969     1  0.0000000  0.0000000  2
  10966  10964  10968  10969     1  180.0000771  0.3347200  3
  10966  10964  10968  11000     1  180.0000771  0.0000000  2
  10967  10964  10968  10969     1  0.0000000  3.3472000  1
  10967  10964  10968  10969     1  0.0000000  0.0000000  2
  10967  10964  10968  10969     1  180.0000771  0.3347200  3
  10967  10964  10968  11000     1  180.0000771  0.0000000  2
  10968  11000  10981  10983     1  0.0000000  1.2552000  3
  10969  10968  11000  10990     1  180.0000771  6.0668000  2
  10969  10968  11000  10990     1  180.0000771  1.4644000  4
  10970  10961  10972  10975     1  0.0000000  0.6508444  3
  10970  10961  10972  10973     1  0.0000000  0.6508444  3
  10970  10961  10972  10974     1  0.0000000  0.6508444  3
  10971  10961  10972  10975     1  0.0000000  0.6508444  3
  10971  10961  10972  10973     1  0.0000000  0.6508444  3
  10971  10961  10972  10974     1  0.0000000  0.6508444  3
  10972  10975  11024  11014     1  180.0000771  6.0668000  2
  10972  10975  11024  11014     1  180.0000771  1.4644000  4
  10973  10972  10975  10976     1  0.0000000  3.3472000  1
  10973  10972  10975  10976     1  0.0000000  0.0000000  2
  10973  10972  10975  10976     1  180.0000771  0.3347200  3
  10973  10972  10975  11024     1  180.0000771  0.0000000  2
  10974  10972  10975  10976     1  0.0000000  3.3472000  1
  10974  10972  10975  10976     1  0.0000000  0.0000000  2
  10974  10972  10975  10976     1  180.0000771  0.3347200  3
  10974  10972  10975  11024     1  180.0000771  0.0000000  2
  10975  11024  11005  11007     1  0.0000000  1.2552000  3
  10976  10975  11024  11014     1  180.0000771  6.0668000  2
  10976  10975  11024  11014     1  180.0000771  1.4644000  4
  10977  10978  10980  10984     1  0.0000000  0.6508444  3
  10977  10978  10998  10999     1  0.0000000  1.0460000  1
  10977  10978  10998  10999     1  0.0000000  0.6694400  3
  10977  10988  10993  10994     1  0.0000000  1.0460000  1
  10977  10988  10993  10994     1  0.0000000  0.6694400  3
  10977  10995  10982  10985     1  0.0000000  1.6038667  3
  10978  10980  10981  10983     1  0.0000000  0.6508444  3
  10978  10980  10987  10989     1  0.0000000  1.0460000  1
  10978  10980  10987  10989     1  0.0000000  0.6694400  3
  10978  10977  10988  10991     1  0.0000000  0.6508444  3
  10978  10977  10988  10992     1  0.0000000  0.6508444  3
  10979  10977  10978  10980     1  0.0000000  0.6508444  3
  10979  10977  10978  10998     1  0.0000000  1.0460000  1
  10979  10977  10978  10998     1  0.0000000  0.0000000  3
  10979  10977  10978  10997     1  0.0000000  0.6508444  3
  10979  10977  10988  10993     1  0.0000000  1.0460000  1
  10979  10977  10988  10993     1  0.0000000  0.0000000  3
  10979  10977  10988  10991     1  0.0000000  0.6508444  3
  10979  10977  10988  10992     1  0.0000000  0.6508444  3
  10979  10977  10995  10982     1  0.0000000  1.6038667  3
  10980  10981  10982  10985     1  0.0000000  0.6508444  3
  10980  10981  11000  10990     1  0.0000000  1.2552000  3
  10980  10978  10998  10999     1  0.0000000  1.0460000  1
  10980  10978  10998  10999     1  0.0000000  0.6694400  3
  10981  10982  10986  10996     1  0.0000000  1.0460000  1
  10981  10982  10986  10996     1  0.0000000  0.6694400  3
  10981  10980  10987  10989     1  0.0000000  1.0460000  1
  10981  10980  10987  10989     1  0.0000000  0.6694400  3
  10981  10980  10978  10997     1  0.0000000  0.6508444  3
  10982  10981  11000  10990     1  0.0000000  1.2552000  3
  10982  10981  10980  10984     1  0.0000000  0.6508444  3
  10983  10981  10982  10986     1  0.0000000  1.0460000  1
  10983  10981  10982  10986     1  0.0000000  0.0000000  3
  10983  10981  10982  10995     1  0.0000000  1.0460000  1
  10983  10981  10982  10995     1  0.0000000  0.0000000  3
  10983  10981  10982  10985     1  0.0000000  0.6508444  3
  10983  10981  11000  10990     1  0.0000000  1.2552000  3
  10983  10981  10980  10987     1  0.0000000  1.0460000  1
  10983  10981  10980  10987     1  0.0000000  0.0000000  3
  10983  10981  10980  10984     1  0.0000000  0.6508444  3
  10984  10980  10981  11000     1  0.0000000  0.6508444  3
  10984  10980  10987  10989     1  0.0000000  0.6973333  3
  10984  10980  10978  10998     1  0.0000000  1.0460000  1
  10984  10980  10978  10998     1  0.0000000  0.0000000  3
  10984  10980  10978  10997     1  0.0000000  0.6508444  3
  10985  10982  10986  10996     1  0.0000000  0.6973333  3
  10985  10982  10981  11000     1  0.0000000  0.6508444  3
  10987  10980  10978  10997     1  0.0000000  1.0460000  1
  10987  10980  10978  10997     1  0.0000000  0.0000000  3
  10988  10977  10978  10997     1  0.0000000  0.6508444  3
  10991  10988  10993  10994     1  0.0000000  0.6973333  3
  10991  10988  10977  10995     1  0.0000000  1.0460000  1
  10991  10988  10977  10995     1  0.0000000  0.0000000  3
  10992  10988  10993  10994     1  0.0000000  0.6973333  3
  10992  10988  10977  10995     1  0.0000000  1.0460000  1
  10992  10988  10977  10995     1  0.0000000  0.0000000  3
  10995  10982  10986  10996     1  0.0000000  0.6973333  3
  10995  10977  10978  10997     1  0.0000000  1.0460000  1
  10995  10977  10978  10997     1  0.0000000  0.0000000  3
  10997  10978  10998  10999     1  0.0000000  0.6973333  3
  11001  11002  11004  11008     1  0.0000000  0.6508444  3
  11001  11002  11022  11023     1  0.0000000  1.0460000  1
  11001  11002  11022  11023     1  0.0000000  0.6694400  3
  11001  11012  11017  11018     1  0.0000000  1.0460000  1
  11001  11012  11017  11018     1  0.0000000  0.6694400  3
  11001  11019  11006  11009     1  0.0000000  1.6038667  3
  11002  11004  11005  11007     1  0.0000000  0.6508444  3
  11002  11004  11011  11013     1  0.0000000  1.0460000  1
  11002  11004  11011  11013     1  0.0000000  0.6694400  3
  11002  11001  11012  11015     1  0.0000000  0.6508444  3
  11002  11001  11012  11016     1  0.0000000  0.6508444  3
  11003  11001  11002  11004     1  0.0000000  0.6508444  3
  11003  11001  11002  11022     1  0.0000000  1.0460000  1
  11003  11001  11002  11022     1  0.0000000  0.0000000  3
  11003  11001  11002  11021     1  0.0000000  0.6508444  3
  11003  11001  11012  11017     1  0.0000000  1.0460000  1
  11003  11001  11012  11017     1  0.0000000  0.0000000  3
  11003  11001  11012  11015     1  0.0000000  0.6508444  3
  11003  11001  11012  11016     1  0.0000000  0.6508444  3
  11003  11001  11019  11006     1  0.0000000  1.6038667  3
  11004  11005  11006  11009     1  0.0000000  0.6508444  3
  11004  11005  11024  11014     1  0.0000000  1.2552000  3
  11004  11002  11022  11023     1  0.0000000  1.0460000  1
  11004  11002  11022  11023     1  0.0000000  0.6694400  3
  11005  11006  11010  11020     1  0.0000000  1.0460000  1
  11005  11006  11010  11020     1  0.0000000  0.6694400  3
  11005  11004  11011  11013     1  0.0000000  1.0460000  1
  11005  11004  11011  11013     1  0.0000000  0.6694400  3
  11005  11004  11002  11021     1  0.0000000  0.6508444  3
  11006  11005  11024  11014     1  0.0000000  1.2552000  3
  11006  11005  11004  11008     1  0.0000000  0.6508444  3
  11007  11005  11006  11010     1  0.0000000  1.0460000  1
  11007  11005  11006  11010     1  0.0000000  0.0000000  3
  11007  11005  11006  11019     1  0.0000000  1.0460000  1
  11007  11005  11006  11019     1  0.0000000  0.0000000  3
  11007  11005  11006  11009     1  0.0000000  0.6508444  3
  11007  11005  11024  11014     1  0.0000000  1.2552000  3
  11007  11005  11004  11011     1  0.0000000  1.0460000  1
  11007  11005  11004  11011     1  0.0000000  0.0000000  3
  11007  11005  11004  11008     1  0.0000000  0.6508444  3
  11008  11004  11005  11024     1  0.0000000  0.6508444  3
  11008  11004  11011  11013     1  0.0000000  0.6973333  3
  11008  11004  11002  11022     1  0.0000000  1.0460000  1
  11008  11004  11002  11022     1  0.0000000  0.0000000  3
  11008  11004  11002  11021     1  0.0000000  0.6508444  3
  11009  11006  11010  11020     1  0.0000000  0.6973333  3
  11009  11006  11005  11024     1  0.0000000  0.6508444  3
  11011  11004  11002  11021     1  0.0000000  1.0460000  1
  11011  11004  11002  11021     1  0.0000000  0.0000000  3
  11012  11001  11002  11021     1  0.0000000  0.6508444  3
  11015  11012  11017  11018     1  0.0000000  0.6973333  3
  11015  11012  11001  11019     1  0.0000000  1.0460000  1
  11015  11012  11001  11019     1  0.0000000  0.0000000  3
  11016  11012  11017  11018     1  0.0000000  0.6973333  3
  11016  11012  11001  11019     1  0.0000000  1.0460000  1
  11016  11012  11001  11019     1  0.0000000  0.0000000  3
  11019  11006  11010  11020     1  0.0000000  0.6973333  3
  11019  11001  11002  11021     1  0.0000000  1.0460000  1
  11019  11001  11002  11021     1  0.0000000  0.0000000  3
  11021  11002  11022  11023     1  0.0000000  0.6973333  3
  11025  11027  11029  11031     1  0.0000000  0.6508444  3
  11025  11027  11029  11032     1  0.0000000  0.6508444  3
  11026  11025  11027  11029     1  0.0000000  0.0000000  2
  11026  11025  11027  11028     1  0.0000000  0.0000000  2
  11026  11025  11027  11030     1  0.0000000  0.0000000  2
  11028  11027  11029  11033     1  0.0000000  0.6508444  3
  11028  11027  11029  11031     1  0.0000000  0.6508444  3
  11028  11027  11029  11032     1  0.0000000  0.6508444  3
  11029  11033  11034  11043     1  0.0000000  1.2552000  3
  11029  11033  11034  11044     1  0.0000000  1.2552000  3
  11029  11033  11035  11036     1  0.0000000  1.2552000  3
  11029  11033  11035  11038     1  0.0000000  1.2552000  3
  11030  11027  11029  11033     1  0.0000000  0.6508444  3
  11030  11027  11029  11031     1  0.0000000  0.6508444  3
  11030  11027  11029  11032     1  0.0000000  0.6508444  3
  11031  11029  11033  11034     1  0.0000000  1.2552000  3
  11031  11029  11033  11035     1  0.0000000  1.2552000  3
  11032  11029  11033  11034     1  0.0000000  1.2552000  3
  11032  11029  11033  11035     1  0.0000000  1.2552000  3
  11033  11034  11045  11046     1  0.0000000  0.6508444  3
  11033  11034  11045  11047     1  0.0000000  0.6508444  3
  11033  11035  11037  11039     1  0.0000000  0.6508444  3
  11033  11035  11037  11040     1  0.0000000  0.6508444  3
  11034  11033  11035  11036     1  0.0000000  1.2552000  3
  11034  11033  11035  11038     1  0.0000000  1.2552000  3
  11035  11033  11034  11043     1  0.0000000  1.2552000  3
  11035  11033  11034  11044     1  0.0000000  1.2552000  3
  11036  11035  11037  11041     1  0.0000000  0.6508444  3
  11036  11035  11037  11039     1  0.0000000  0.6508444  3
  11036  11035  11037  11040     1  0.0000000  0.6508444  3
  11037  11041  11073  11063     1  180.0000771  6.0668000  2
  11037  11041  11073  11063     1  180.0000771  1.4644000  4
  11038  11035  11037  11041     1  0.0000000  0.6508444  3
  11038  11035  11037  11039     1  0.0000000  0.6508444  3
  11038  11035  11037  11040     1  0.0000000  0.6508444  3
  11039  11037  11041  11042     1  0.0000000  3.3472000  1
  11039  11037  11041  11042     1  0.0000000  0.0000000  2
  11039  11037  11041  11042     1  180.0000771  0.3347200  3
  11039  11037  11041  11073     1  180.0000771  0.0000000  2
  11040  11037  11041  11042     1  0.0000000  3.3472000  1
  11040  11037  11041  11042     1  0.0000000  0.0000000  2
  11040  11037  11041  11042     1  180.0000771  0.3347200  3
  11040  11037  11041  11073     1  180.0000771  0.0000000  2
  11041  11073  11054  11056     1  0.0000000  1.2552000  3
  11042  11041  11073  11063     1  180.0000771  6.0668000  2
  11042  11041  11073  11063     1  180.0000771  1.4644000  4
  11043  11034  11045  11048     1  0.0000000  0.6508444  3
  11043  11034  11045  11046     1  0.0000000  0.6508444  3
  11043  11034  11045  11047     1  0.0000000  0.6508444  3
  11044  11034  11045  11048     1  0.0000000  0.6508444  3
  11044  11034  11045  11046     1  0.0000000  0.6508444  3
  11044  11034  11045  11047     1  0.0000000  0.6508444  3
  11045  11048  11097  11087     1  180.0000771  6.0668000  2
  11045  11048  11097  11087     1  180.0000771  1.4644000  4
  11046  11045  11048  11049     1  0.0000000  3.3472000  1
  11046  11045  11048  11049     1  0.0000000  0.0000000  2
  11046  11045  11048  11049     1  180.0000771  0.3347200  3
  11046  11045  11048  11097     1  180.0000771  0.0000000  2
  11047  11045  11048  11049     1  0.0000000  3.3472000  1
  11047  11045  11048  11049     1  0.0000000  0.0000000  2
  11047  11045  11048  11049     1  180.0000771  0.3347200  3
  11047  11045  11048  11097     1  180.0000771  0.0000000  2
  11048  11097  11078  11080     1  0.0000000  1.2552000  3
  11049  11048  11097  11087     1  180.0000771  6.0668000  2
  11049  11048  11097  11087     1  180.0000771  1.4644000  4
  11050  11051  11053  11057     1  0.0000000  0.6508444  3
  11050  11051  11071  11072     1  0.0000000  1.0460000  1
  11050  11051  11071  11072     1  0.0000000  0.6694400  3
  11050  11061  11066  11067     1  0.0000000  1.0460000  1
  11050  11061  11066  11067     1  0.0000000  0.6694400  3
  11050  11068  11055  11058     1  0.0000000  1.6038667  3
  11051  11050  11061  11064     1  0.0000000  0.6508444  3
  11051  11050  11061  11065     1  0.0000000  0.6508444  3
  11051  11053  11054  11056     1  0.0000000  0.6508444  3
  11051  11053  11060  11062     1  0.0000000  1.0460000  1
  11051  11053  11060  11062     1  0.0000000  0.6694400  3
  11052  11050  11051  11053     1  0.0000000  0.6508444  3
  11052  11050  11051  11071     1  0.0000000  1.0460000  1
  11052  11050  11051  11071     1  0.0000000  0.0000000  3
  11052  11050  11051  11070     1  0.0000000  0.6508444  3
  11052  11050  11061  11066     1  0.0000000  1.0460000  1
  11052  11050  11061  11066     1  0.0000000  0.0000000  3
  11052  11050  11061  11064     1  0.0000000  0.6508444  3
  11052  11050  11061  11065     1  0.0000000  0.6508444  3
  11052  11050  11068  11055     1  0.0000000  1.6038667  3
  11053  11051  11071  11072     1  0.0000000  1.0460000  1
  11053  11051  11071  11072     1  0.0000000  0.6694400  3
  11053  11054  11055  11058     1  0.0000000  0.6508444  3
  11053  11054  11073  11063     1  0.0000000  1.2552000  3
  11054  11053  11051  11070     1  0.0000000  0.6508444  3
  11054  11053  11060  11062     1  0.0000000  1.0460000  1
  11054  11053  11060  11062     1  0.0000000  0.6694400  3
  11054  11055  11059  11069     1  0.0000000  1.0460000  1
  11054  11055  11059  11069     1  0.0000000  0.6694400  3
  11055  11054  11053  11057     1  0.0000000  0.6508444  3
  11055  11054  11073  11063     1  0.0000000  1.2552000  3
  11056  11054  11053  11060     1  0.0000000  1.0460000  1
  11056  11054  11053  11060     1  0.0000000  0.0000000  3
  11056  11054  11053  11057     1  0.0000000  0.6508444  3
  11056  11054  11055  11059     1  0.0000000  1.0460000  1
  11056  11054  11055  11059     1  0.0000000  0.0000000  3
  11056  11054  11055  11068     1  0.0000000  1.0460000  1
  11056  11054  11055  11068     1  0.0000000  0.0000000  3
  11056  11054  11055  11058     1  0.0000000  0.6508444  3
  11056  11054  11073  11063     1  0.0000000  1.2552000  3
  11057  11053  11051  11071     1  0.0000000  1.0460000  1
  11057  11053  11051  11071     1  0.0000000  0.0000000  3
  11057  11053  11051  11070     1  0.0000000  0.6508444  3
  11057  11053  11054  11073     1  0.0000000  0.6508444  3
  11057  11053  11060  11062     1  0.0000000  0.6973333  3
  11058  11055  11054  11073     1  0.0000000  0.6508444  3
  11058  11055  11059  11069     1  0.0000000  0.6973333  3
  11060  11053  11051  11070     1  0.0000000  1.0460000  1
  11060  11053  11051  11070     1  0.0000000  0.0000000  3
  11061  11050  11051  11070     1  0.0000000  0.6508444  3
  11064  11061  11050  11068     1  0.0000000  1.0460000  1
  11064  11061  11050  11068     1  0.0000000  0.0000000  3
  11064  11061  11066  11067     1  0.0000000  0.6973333  3
  11065  11061  11050  11068     1  0.0000000  1.0460000  1
  11065  11061  11050  11068     1  0.0000000  0.0000000  3
  11065  11061  11066  11067     1  0.0000000  0.6973333  3
  11068  11050  11051  11070     1  0.0000000  1.0460000  1
  11068  11050  11051  11070     1  0.0000000  0.0000000  3
  11068  11055  11059  11069     1  0.0000000  0.6973333  3
  11070  11051  11071  11072     1  0.0000000  0.6973333  3
  11074  11075  11077  11081     1  0.0000000  0.6508444  3
  11074  11075  11095  11096     1  0.0000000  1.0460000  1
  11074  11075  11095  11096     1  0.0000000  0.6694400  3
  11074  11085  11090  11091     1  0.0000000  1.0460000  1
  11074  11085  11090  11091     1  0.0000000  0.6694400  3
  11074  11092  11079  11082     1  0.0000000  1.6038667  3
  11075  11074  11085  11088     1  0.0000000  0.6508444  3
  11075  11074  11085  11089     1  0.0000000  0.6508444  3
  11075  11077  11078  11080     1  0.0000000  0.6508444  3
  11075  11077  11084  11086     1  0.0000000  1.0460000  1
  11075  11077  11084  11086     1  0.0000000  0.6694400  3
  11076  11074  11075  11077     1  0.0000000  0.6508444  3
  11076  11074  11075  11095     1  0.0000000  1.0460000  1
  11076  11074  11075  11095     1  0.0000000  0.0000000  3
  11076  11074  11075  11094     1  0.0000000  0.6508444  3
  11076  11074  11085  11090     1  0.0000000  1.0460000  1
  11076  11074  11085  11090     1  0.0000000  0.0000000  3
  11076  11074  11085  11088     1  0.0000000  0.6508444  3
  11076  11074  11085  11089     1  0.0000000  0.6508444  3
  11076  11074  11092  11079     1  0.0000000  1.6038667  3
  11077  11075  11095  11096     1  0.0000000  1.0460000  1
  11077  11075  11095  11096     1  0.0000000  0.6694400  3
  11077  11078  11079  11082     1  0.0000000  0.6508444  3
  11077  11078  11097  11087     1  0.0000000  1.2552000  3
  11078  11077  11075  11094     1  0.0000000  0.6508444  3
  11078  11077  11084  11086     1  0.0000000  1.0460000  1
  11078  11077  11084  11086     1  0.0000000  0.6694400  3
  11078  11079  11083  11093     1  0.0000000  1.0460000  1
  11078  11079  11083  11093     1  0.0000000  0.6694400  3
  11079  11078  11077  11081     1  0.0000000  0.6508444  3
  11079  11078  11097  11087     1  0.0000000  1.2552000  3
  11080  11078  11077  11084     1  0.0000000  1.0460000  1
  11080  11078  11077  11084     1  0.0000000  0.0000000  3
  11080  11078  11077  11081     1  0.0000000  0.6508444  3
  11080  11078  11079  11083     1  0.0000000  1.0460000  1
  11080  11078  11079  11083     1  0.0000000  0.0000000  3
  11080  11078  11079  11092     1  0.0000000  1.0460000  1
  11080  11078  11079  11092     1  0.0000000  0.0000000  3
  11080  11078  11079  11082     1  0.0000000  0.6508444  3
  11080  11078  11097  11087     1  0.0000000  1.2552000  3
  11081  11077  11075  11095     1  0.0000000  1.0460000  1
  11081  11077  11075  11095     1  0.0000000  0.0000000  3
  11081  11077  11075  11094     1  0.0000000  0.6508444  3
  11081  11077  11078  11097     1  0.0000000  0.6508444  3
  11081  11077  11084  11086     1  0.0000000  0.6973333  3
  11082  11079  11078  11097     1  0.0000000  0.6508444  3
  11082  11079  11083  11093     1  0.0000000  0.6973333  3
  11084  11077  11075  11094     1  0.0000000  1.0460000  1
  11084  11077  11075  11094     1  0.0000000  0.0000000  3
  11085  11074  11075  11094     1  0.0000000  0.6508444  3
  11088  11085  11074  11092     1  0.0000000  1.0460000  1
  11088  11085  11074  11092     1  0.0000000  0.0000000  3
  11088  11085  11090  11091     1  0.0000000  0.6973333  3
  11089  11085  11074  11092     1  0.0000000  1.0460000  1
  11089  11085  11074  11092     1  0.0000000  0.0000000  3
  11089  11085  11090  11091     1  0.0000000  0.6973333  3
  11092  11074  11075  11094     1  0.0000000  1.0460000  1
  11092  11074  11075  11094     1  0.0000000  0.0000000  3
  11092  11079  11083  11093     1  0.0000000  0.6973333  3
  11094  11075  11095  11096     1  0.0000000  0.6973333  3
  11098  11100  11102  11104     1  0.0000000  0.6508444  3
  11098  11100  11102  11105     1  0.0000000  0.6508444  3
  11099  11098  11100  11102     1  0.0000000  0.0000000  2
  11099  11098  11100  11101     1  0.0000000  0.0000000  2
  11099  11098  11100  11103     1  0.0000000  0.0000000  2
  11101  11100  11102  11106     1  0.0000000  0.6508444  3
  11101  11100  11102  11104     1  0.0000000  0.6508444  3
  11101  11100  11102  11105     1  0.0000000  0.6508444  3
  11102  11106  11107  11116     1  0.0000000  1.2552000  3
  11102  11106  11107  11117     1  0.0000000  1.2552000  3
  11102  11106  11108  11109     1  0.0000000  1.2552000  3
  11102  11106  11108  11111     1  0.0000000  1.2552000  3
  11103  11100  11102  11106     1  0.0000000  0.6508444  3
  11103  11100  11102  11104     1  0.0000000  0.6508444  3
  11103  11100  11102  11105     1  0.0000000  0.6508444  3
  11104  11102  11106  11107     1  0.0000000  1.2552000  3
  11104  11102  11106  11108     1  0.0000000  1.2552000  3
  11105  11102  11106  11107     1  0.0000000  1.2552000  3
  11105  11102  11106  11108     1  0.0000000  1.2552000  3
  11106  11107  11118  11119     1  0.0000000  0.6508444  3
  11106  11107  11118  11120     1  0.0000000  0.6508444  3
  11106  11108  11110  11112     1  0.0000000  0.6508444  3
  11106  11108  11110  11113     1  0.0000000  0.6508444  3
  11107  11106  11108  11109     1  0.0000000  1.2552000  3
  11107  11106  11108  11111     1  0.0000000  1.2552000  3
  11108  11106  11107  11116     1  0.0000000  1.2552000  3
  11108  11106  11107  11117     1  0.0000000  1.2552000  3
  11109  11108  11110  11114     1  0.0000000  0.6508444  3
  11109  11108  11110  11112     1  0.0000000  0.6508444  3
  11109  11108  11110  11113     1  0.0000000  0.6508444  3
  11110  11114  11146  11136     1  180.0000771  6.0668000  2
  11110  11114  11146  11136     1  180.0000771  1.4644000  4
  11111  11108  11110  11114     1  0.0000000  0.6508444  3
  11111  11108  11110  11112     1  0.0000000  0.6508444  3
  11111  11108  11110  11113     1  0.0000000  0.6508444  3
  11112  11110  11114  11115     1  0.0000000  3.3472000  1
  11112  11110  11114  11115     1  0.0000000  0.0000000  2
  11112  11110  11114  11115     1  180.0000771  0.3347200  3
  11112  11110  11114  11146     1  180.0000771  0.0000000  2
  11113  11110  11114  11115     1  0.0000000  3.3472000  1
  11113  11110  11114  11115     1  0.0000000  0.0000000  2
  11113  11110  11114  11115     1  180.0000771  0.3347200  3
  11113  11110  11114  11146     1  180.0000771  0.0000000  2
  11114  11146  11127  11129     1  0.0000000  1.2552000  3
  11115  11114  11146  11136     1  180.0000771  6.0668000  2
  11115  11114  11146  11136     1  180.0000771  1.4644000  4
  11116  11107  11118  11121     1  0.0000000  0.6508444  3
  11116  11107  11118  11119     1  0.0000000  0.6508444  3
  11116  11107  11118  11120     1  0.0000000  0.6508444  3
  11117  11107  11118  11121     1  0.0000000  0.6508444  3
  11117  11107  11118  11119     1  0.0000000  0.6508444  3
  11117  11107  11118  11120     1  0.0000000  0.6508444  3
  11118  11121  11170  11160     1  180.0000771  6.0668000  2
  11118  11121  11170  11160     1  180.0000771  1.4644000  4
  11119  11118  11121  11122     1  0.0000000  3.3472000  1
  11119  11118  11121  11122     1  0.0000000  0.0000000  2
  11119  11118  11121  11122     1  180.0000771  0.3347200  3
  11119  11118  11121  11170     1  180.0000771  0.0000000  2
  11120  11118  11121  11122     1  0.0000000  3.3472000  1
  11120  11118  11121  11122     1  0.0000000  0.0000000  2
  11120  11118  11121  11122     1  180.0000771  0.3347200  3
  11120  11118  11121  11170     1  180.0000771  0.0000000  2
  11121  11170  11151  11153     1  0.0000000  1.2552000  3
  11122  11121  11170  11160     1  180.0000771  6.0668000  2
  11122  11121  11170  11160     1  180.0000771  1.4644000  4
  11123  11124  11126  11130     1  0.0000000  0.6508444  3
  11123  11124  11144  11145     1  0.0000000  1.0460000  1
  11123  11124  11144  11145     1  0.0000000  0.6694400  3
  11123  11134  11139  11140     1  0.0000000  1.0460000  1
  11123  11134  11139  11140     1  0.0000000  0.6694400  3
  11123  11141  11128  11131     1  0.0000000  1.6038667  3
  11124  11126  11127  11129     1  0.0000000  0.6508444  3
  11124  11126  11133  11135     1  0.0000000  1.0460000  1
  11124  11126  11133  11135     1  0.0000000  0.6694400  3
  11124  11123  11134  11137     1  0.0000000  0.6508444  3
  11124  11123  11134  11138     1  0.0000000  0.6508444  3
  11125  11123  11124  11126     1  0.0000000  0.6508444  3
  11125  11123  11124  11144     1  0.0000000  1.0460000  1
  11125  11123  11124  11144     1  0.0000000  0.0000000  3
  11125  11123  11124  11143     1  0.0000000  0.6508444  3
  11125  11123  11134  11139     1  0.0000000  1.0460000  1
  11125  11123  11134  11139     1  0.0000000  0.0000000  3
  11125  11123  11134  11137     1  0.0000000  0.6508444  3
  11125  11123  11134  11138     1  0.0000000  0.6508444  3
  11125  11123  11141  11128     1  0.0000000  1.6038667  3
  11126  11127  11128  11131     1  0.0000000  0.6508444  3
  11126  11127  11146  11136     1  0.0000000  1.2552000  3
  11126  11124  11144  11145     1  0.0000000  1.0460000  1
  11126  11124  11144  11145     1  0.0000000  0.6694400  3
  11127  11128  11132  11142     1  0.0000000  1.0460000  1
  11127  11128  11132  11142     1  0.0000000  0.6694400  3
  11127  11126  11133  11135     1  0.0000000  1.0460000  1
  11127  11126  11133  11135     1  0.0000000  0.6694400  3
  11127  11126  11124  11143     1  0.0000000  0.6508444  3
  11128  11127  11146  11136     1  0.0000000  1.2552000  3
  11128  11127  11126  11130     1  0.0000000  0.6508444  3
  11129  11127  11128  11132     1  0.0000000  1.0460000  1
  11129  11127  11128  11132     1  0.0000000  0.0000000  3
  11129  11127  11128  11141     1  0.0000000  1.0460000  1
  11129  11127  11128  11141     1  0.0000000  0.0000000  3
  11129  11127  11128  11131     1  0.0000000  0.6508444  3
  11129  11127  11146  11136     1  0.0000000  1.2552000  3
  11129  11127  11126  11133     1  0.0000000  1.0460000  1
  11129  11127  11126  11133     1  0.0000000  0.0000000  3
  11129  11127  11126  11130     1  0.0000000  0.6508444  3
  11130  11126  11127  11146     1  0.0000000  0.6508444  3
  11130  11126  11133  11135     1  0.0000000  0.6973333  3
  11130  11126  11124  11144     1  0.0000000  1.0460000  1
  11130  11126  11124  11144     1  0.0000000  0.0000000  3
  11130  11126  11124  11143     1  0.0000000  0.6508444  3
  11131  11128  11132  11142     1  0.0000000  0.6973333  3
  11131  11128  11127  11146     1  0.0000000  0.6508444  3
  11133  11126  11124  11143     1  0.0000000  1.0460000  1
  11133  11126  11124  11143     1  0.0000000  0.0000000  3
  11134  11123  11124  11143     1  0.0000000  0.6508444  3
  11137  11134  11139  11140     1  0.0000000  0.6973333  3
  11137  11134  11123  11141     1  0.0000000  1.0460000  1
  11137  11134  11123  11141     1  0.0000000  0.0000000  3
  11138  11134  11139  11140     1  0.0000000  0.6973333  3
  11138  11134  11123  11141     1  0.0000000  1.0460000  1
  11138  11134  11123  11141     1  0.0000000  0.0000000  3
  11141  11128  11132  11142     1  0.0000000  0.6973333  3
  11141  11123  11124  11143     1  0.0000000  1.0460000  1
  11141  11123  11124  11143     1  0.0000000  0.0000000  3
  11143  11124  11144  11145     1  0.0000000  0.6973333  3
  11147  11148  11150  11154     1  0.0000000  0.6508444  3
  11147  11148  11168  11169     1  0.0000000  1.0460000  1
  11147  11148  11168  11169     1  0.0000000  0.6694400  3
  11147  11158  11163  11164     1  0.0000000  1.0460000  1
  11147  11158  11163  11164     1  0.0000000  0.6694400  3
  11147  11165  11152  11155     1  0.0000000  1.6038667  3
  11148  11150  11151  11153     1  0.0000000  0.6508444  3
  11148  11150  11157  11159     1  0.0000000  1.0460000  1
  11148  11150  11157  11159     1  0.0000000  0.6694400  3
  11148  11147  11158  11161     1  0.0000000  0.6508444  3
  11148  11147  11158  11162     1  0.0000000  0.6508444  3
  11149  11147  11148  11150     1  0.0000000  0.6508444  3
  11149  11147  11148  11168     1  0.0000000  1.0460000  1
  11149  11147  11148  11168     1  0.0000000  0.0000000  3
  11149  11147  11148  11167     1  0.0000000  0.6508444  3
  11149  11147  11158  11163     1  0.0000000  1.0460000  1
  11149  11147  11158  11163     1  0.0000000  0.0000000  3
  11149  11147  11158  11161     1  0.0000000  0.6508444  3
  11149  11147  11158  11162     1  0.0000000  0.6508444  3
  11149  11147  11165  11152     1  0.0000000  1.6038667  3
  11150  11151  11152  11155     1  0.0000000  0.6508444  3
  11150  11151  11170  11160     1  0.0000000  1.2552000  3
  11150  11148  11168  11169     1  0.0000000  1.0460000  1
  11150  11148  11168  11169     1  0.0000000  0.6694400  3
  11151  11152  11156  11166     1  0.0000000  1.0460000  1
  11151  11152  11156  11166     1  0.0000000  0.6694400  3
  11151  11150  11157  11159     1  0.0000000  1.0460000  1
  11151  11150  11157  11159     1  0.0000000  0.6694400  3
  11151  11150  11148  11167     1  0.0000000  0.6508444  3
  11152  11151  11170  11160     1  0.0000000  1.2552000  3
  11152  11151  11150  11154     1  0.0000000  0.6508444  3
  11153  11151  11152  11156     1  0.0000000  1.0460000  1
  11153  11151  11152  11156     1  0.0000000  0.0000000  3
  11153  11151  11152  11165     1  0.0000000  1.0460000  1
  11153  11151  11152  11165     1  0.0000000  0.0000000  3
  11153  11151  11152  11155     1  0.0000000  0.6508444  3
  11153  11151  11170  11160     1  0.0000000  1.2552000  3
  11153  11151  11150  11157     1  0.0000000  1.0460000  1
  11153  11151  11150  11157     1  0.0000000  0.0000000  3
  11153  11151  11150  11154     1  0.0000000  0.6508444  3
  11154  11150  11151  11170     1  0.0000000  0.6508444  3
  11154  11150  11157  11159     1  0.0000000  0.6973333  3
  11154  11150  11148  11168     1  0.0000000  1.0460000  1
  11154  11150  11148  11168     1  0.0000000  0.0000000  3
  11154  11150  11148  11167     1  0.0000000  0.6508444  3
  11155  11152  11156  11166     1  0.0000000  0.6973333  3
  11155  11152  11151  11170     1  0.0000000  0.6508444  3
  11157  11150  11148  11167     1  0.0000000  1.0460000  1
  11157  11150  11148  11167     1  0.0000000  0.0000000  3
  11158  11147  11148  11167     1  0.0000000  0.6508444  3
  11161  11158  11163  11164     1  0.0000000  0.6973333  3
  11161  11158  11147  11165     1  0.0000000  1.0460000  1
  11161  11158  11147  11165     1  0.0000000  0.0000000  3
  11162  11158  11163  11164     1  0.0000000  0.6973333  3
  11162  11158  11147  11165     1  0.0000000  1.0460000  1
  11162  11158  11147  11165     1  0.0000000  0.0000000  3
  11165  11152  11156  11166     1  0.0000000  0.6973333  3
  11165  11147  11148  11167     1  0.0000000  1.0460000  1
  11165  11147  11148  11167     1  0.0000000  0.0000000  3
  11167  11148  11168  11169     1  0.0000000  0.6973333  3
  11171  11173  11175  11177     1  0.0000000  0.6508444  3
  11171  11173  11175  11178     1  0.0000000  0.6508444  3
  11172  11171  11173  11175     1  0.0000000  0.0000000  2
  11172  11171  11173  11174     1  0.0000000  0.0000000  2
  11172  11171  11173  11176     1  0.0000000  0.0000000  2
  11174  11173  11175  11179     1  0.0000000  0.6508444  3
  11174  11173  11175  11177     1  0.0000000  0.6508444  3
  11174  11173  11175  11178     1  0.0000000  0.6508444  3
  11175  11179  11180  11189     1  0.0000000  1.2552000  3
  11175  11179  11180  11190     1  0.0000000  1.2552000  3
  11175  11179  11181  11182     1  0.0000000  1.2552000  3
  11175  11179  11181  11184     1  0.0000000  1.2552000  3
  11176  11173  11175  11179     1  0.0000000  0.6508444  3
  11176  11173  11175  11177     1  0.0000000  0.6508444  3
  11176  11173  11175  11178     1  0.0000000  0.6508444  3
  11177  11175  11179  11180     1  0.0000000  1.2552000  3
  11177  11175  11179  11181     1  0.0000000  1.2552000  3
  11178  11175  11179  11180     1  0.0000000  1.2552000  3
  11178  11175  11179  11181     1  0.0000000  1.2552000  3
  11179  11180  11191  11192     1  0.0000000  0.6508444  3
  11179  11180  11191  11193     1  0.0000000  0.6508444  3
  11179  11181  11183  11185     1  0.0000000  0.6508444  3
  11179  11181  11183  11186     1  0.0000000  0.6508444  3
  11180  11179  11181  11182     1  0.0000000  1.2552000  3
  11180  11179  11181  11184     1  0.0000000  1.2552000  3
  11181  11179  11180  11189     1  0.0000000  1.2552000  3
  11181  11179  11180  11190     1  0.0000000  1.2552000  3
  11182  11181  11183  11187     1  0.0000000  0.6508444  3
  11182  11181  11183  11185     1  0.0000000  0.6508444  3
  11182  11181  11183  11186     1  0.0000000  0.6508444  3
  11183  11187  11219  11209     1  180.0000771  6.0668000  2
  11183  11187  11219  11209     1  180.0000771  1.4644000  4
  11184  11181  11183  11187     1  0.0000000  0.6508444  3
  11184  11181  11183  11185     1  0.0000000  0.6508444  3
  11184  11181  11183  11186     1  0.0000000  0.6508444  3
  11185  11183  11187  11188     1  0.0000000  3.3472000  1
  11185  11183  11187  11188     1  0.0000000  0.0000000  2
  11185  11183  11187  11188     1  180.0000771  0.3347200  3
  11185  11183  11187  11219     1  180.0000771  0.0000000  2
  11186  11183  11187  11188     1  0.0000000  3.3472000  1
  11186  11183  11187  11188     1  0.0000000  0.0000000  2
  11186  11183  11187  11188     1  180.0000771  0.3347200  3
  11186  11183  11187  11219     1  180.0000771  0.0000000  2
  11187  11219  11200  11202     1  0.0000000  1.2552000  3
  11188  11187  11219  11209     1  180.0000771  6.0668000  2
  11188  11187  11219  11209     1  180.0000771  1.4644000  4
  11189  11180  11191  11194     1  0.0000000  0.6508444  3
  11189  11180  11191  11192     1  0.0000000  0.6508444  3
  11189  11180  11191  11193     1  0.0000000  0.6508444  3
  11190  11180  11191  11194     1  0.0000000  0.6508444  3
  11190  11180  11191  11192     1  0.0000000  0.6508444  3
  11190  11180  11191  11193     1  0.0000000  0.6508444  3
  11191  11194  11243  11233     1  180.0000771  6.0668000  2
  11191  11194  11243  11233     1  180.0000771  1.4644000  4
  11192  11191  11194  11195     1  0.0000000  3.3472000  1
  11192  11191  11194  11195     1  0.0000000  0.0000000  2
  11192  11191  11194  11195     1  180.0000771  0.3347200  3
  11192  11191  11194  11243     1  180.0000771  0.0000000  2
  11193  11191  11194  11195     1  0.0000000  3.3472000  1
  11193  11191  11194  11195     1  0.0000000  0.0000000  2
  11193  11191  11194  11195     1  180.0000771  0.3347200  3
  11193  11191  11194  11243     1  180.0000771  0.0000000  2
  11194  11243  11224  11226     1  0.0000000  1.2552000  3
  11195  11194  11243  11233     1  180.0000771  6.0668000  2
  11195  11194  11243  11233     1  180.0000771  1.4644000  4
  11196  11197  11199  11203     1  0.0000000  0.6508444  3
  11196  11197  11217  11218     1  0.0000000  1.0460000  1
  11196  11197  11217  11218     1  0.0000000  0.6694400  3
  11196  11207  11212  11213     1  0.0000000  1.0460000  1
  11196  11207  11212  11213     1  0.0000000  0.6694400  3
  11196  11214  11201  11204     1  0.0000000  1.6038667  3
  11197  11196  11207  11210     1  0.0000000  0.6508444  3
  11197  11196  11207  11211     1  0.0000000  0.6508444  3
  11197  11199  11200  11202     1  0.0000000  0.6508444  3
  11197  11199  11206  11208     1  0.0000000  1.0460000  1
  11197  11199  11206  11208     1  0.0000000  0.6694400  3
  11198  11196  11197  11199     1  0.0000000  0.6508444  3
  11198  11196  11197  11217     1  0.0000000  1.0460000  1
  11198  11196  11197  11217     1  0.0000000  0.0000000  3
  11198  11196  11197  11216     1  0.0000000  0.6508444  3
  11198  11196  11207  11212     1  0.0000000  1.0460000  1
  11198  11196  11207  11212     1  0.0000000  0.0000000  3
  11198  11196  11207  11210     1  0.0000000  0.6508444  3
  11198  11196  11207  11211     1  0.0000000  0.6508444  3
  11198  11196  11214  11201     1  0.0000000  1.6038667  3
  11199  11197  11217  11218     1  0.0000000  1.0460000  1
  11199  11197  11217  11218     1  0.0000000  0.6694400  3
  11199  11200  11201  11204     1  0.0000000  0.6508444  3
  11199  11200  11219  11209     1  0.0000000  1.2552000  3
  11200  11199  11197  11216     1  0.0000000  0.6508444  3
  11200  11199  11206  11208     1  0.0000000  1.0460000  1
  11200  11199  11206  11208     1  0.0000000  0.6694400  3
  11200  11201  11205  11215     1  0.0000000  1.0460000  1
  11200  11201  11205  11215     1  0.0000000  0.6694400  3
  11201  11200  11199  11203     1  0.0000000  0.6508444  3
  11201  11200  11219  11209     1  0.0000000  1.2552000  3
  11202  11200  11199  11206     1  0.0000000  1.0460000  1
  11202  11200  11199  11206     1  0.0000000  0.0000000  3
  11202  11200  11199  11203     1  0.0000000  0.6508444  3
  11202  11200  11201  11205     1  0.0000000  1.0460000  1
  11202  11200  11201  11205     1  0.0000000  0.0000000  3
  11202  11200  11201  11214     1  0.0000000  1.0460000  1
  11202  11200  11201  11214     1  0.0000000  0.0000000  3
  11202  11200  11201  11204     1  0.0000000  0.6508444  3
  11202  11200  11219  11209     1  0.0000000  1.2552000  3
  11203  11199  11197  11217     1  0.0000000  1.0460000  1
  11203  11199  11197  11217     1  0.0000000  0.0000000  3
  11203  11199  11197  11216     1  0.0000000  0.6508444  3
  11203  11199  11200  11219     1  0.0000000  0.6508444  3
  11203  11199  11206  11208     1  0.0000000  0.6973333  3
  11204  11201  11200  11219     1  0.0000000  0.6508444  3
  11204  11201  11205  11215     1  0.0000000  0.6973333  3
  11206  11199  11197  11216     1  0.0000000  1.0460000  1
  11206  11199  11197  11216     1  0.0000000  0.0000000  3
  11207  11196  11197  11216     1  0.0000000  0.6508444  3
  11210  11207  11196  11214     1  0.0000000  1.0460000  1
  11210  11207  11196  11214     1  0.0000000  0.0000000  3
  11210  11207  11212  11213     1  0.0000000  0.6973333  3
  11211  11207  11196  11214     1  0.0000000  1.0460000  1
  11211  11207  11196  11214     1  0.0000000  0.0000000  3
  11211  11207  11212  11213     1  0.0000000  0.6973333  3
  11214  11196  11197  11216     1  0.0000000  1.0460000  1
  11214  11196  11197  11216     1  0.0000000  0.0000000  3
  11214  11201  11205  11215     1  0.0000000  0.6973333  3
  11216  11197  11217  11218     1  0.0000000  0.6973333  3
  11220  11221  11223  11227     1  0.0000000  0.6508444  3
  11220  11221  11241  11242     1  0.0000000  1.0460000  1
  11220  11221  11241  11242     1  0.0000000  0.6694400  3
  11220  11231  11236  11237     1  0.0000000  1.0460000  1
  11220  11231  11236  11237     1  0.0000000  0.6694400  3
  11220  11238  11225  11228     1  0.0000000  1.6038667  3
  11221  11220  11231  11234     1  0.0000000  0.6508444  3
  11221  11220  11231  11235     1  0.0000000  0.6508444  3
  11221  11223  11224  11226     1  0.0000000  0.6508444  3
  11221  11223  11230  11232     1  0.0000000  1.0460000  1
  11221  11223  11230  11232     1  0.0000000  0.6694400  3
  11222  11220  11221  11223     1  0.0000000  0.6508444  3
  11222  11220  11221  11241     1  0.0000000  1.0460000  1
  11222  11220  11221  11241     1  0.0000000  0.0000000  3
  11222  11220  11221  11240     1  0.0000000  0.6508444  3
  11222  11220  11231  11236     1  0.0000000  1.0460000  1
  11222  11220  11231  11236     1  0.0000000  0.0000000  3
  11222  11220  11231  11234     1  0.0000000  0.6508444  3
  11222  11220  11231  11235     1  0.0000000  0.6508444  3
  11222  11220  11238  11225     1  0.0000000  1.6038667  3
  11223  11221  11241  11242     1  0.0000000  1.0460000  1
  11223  11221  11241  11242     1  0.0000000  0.6694400  3
  11223  11224  11225  11228     1  0.0000000  0.6508444  3
  11223  11224  11243  11233     1  0.0000000  1.2552000  3
  11224  11223  11221  11240     1  0.0000000  0.6508444  3
  11224  11223  11230  11232     1  0.0000000  1.0460000  1
  11224  11223  11230  11232     1  0.0000000  0.6694400  3
  11224  11225  11229  11239     1  0.0000000  1.0460000  1
  11224  11225  11229  11239     1  0.0000000  0.6694400  3
  11225  11224  11223  11227     1  0.0000000  0.6508444  3
  11225  11224  11243  11233     1  0.0000000  1.2552000  3
  11226  11224  11223  11230     1  0.0000000  1.0460000  1
  11226  11224  11223  11230     1  0.0000000  0.0000000  3
  11226  11224  11223  11227     1  0.0000000  0.6508444  3
  11226  11224  11225  11229     1  0.0000000  1.0460000  1
  11226  11224  11225  11229     1  0.0000000  0.0000000  3
  11226  11224  11225  11238     1  0.0000000  1.0460000  1
  11226  11224  11225  11238     1  0.0000000  0.0000000  3
  11226  11224  11225  11228     1  0.0000000  0.6508444  3
  11226  11224  11243  11233     1  0.0000000  1.2552000  3
  11227  11223  11221  11241     1  0.0000000  1.0460000  1
  11227  11223  11221  11241     1  0.0000000  0.0000000  3
  11227  11223  11221  11240     1  0.0000000  0.6508444  3
  11227  11223  11224  11243     1  0.0000000  0.6508444  3
  11227  11223  11230  11232     1  0.0000000  0.6973333  3
  11228  11225  11224  11243     1  0.0000000  0.6508444  3
  11228  11225  11229  11239     1  0.0000000  0.6973333  3
  11230  11223  11221  11240     1  0.0000000  1.0460000  1
  11230  11223  11221  11240     1  0.0000000  0.0000000  3
  11231  11220  11221  11240     1  0.0000000  0.6508444  3
  11234  11231  11220  11238     1  0.0000000  1.0460000  1
  11234  11231  11220  11238     1  0.0000000  0.0000000  3
  11234  11231  11236  11237     1  0.0000000  0.6973333  3
  11235  11231  11220  11238     1  0.0000000  1.0460000  1
  11235  11231  11220  11238     1  0.0000000  0.0000000  3
  11235  11231  11236  11237     1  0.0000000  0.6973333  3
  11238  11220  11221  11240     1  0.0000000  1.0460000  1
  11238  11220  11221  11240     1  0.0000000  0.0000000  3
  11238  11225  11229  11239     1  0.0000000  0.6973333  3
  11240  11221  11241  11242     1  0.0000000  0.6973333  3
  11244  11246  11248  11250     1  0.0000000  0.6508444  3
  11244  11246  11248  11251     1  0.0000000  0.6508444  3
  11245  11244  11246  11248     1  0.0000000  0.0000000  2
  11245  11244  11246  11247     1  0.0000000  0.0000000  2
  11245  11244  11246  11249     1  0.0000000  0.0000000  2
  11247  11246  11248  11252     1  0.0000000  0.6508444  3
  11247  11246  11248  11250     1  0.0000000  0.6508444  3
  11247  11246  11248  11251     1  0.0000000  0.6508444  3
  11248  11252  11253  11262     1  0.0000000  1.2552000  3
  11248  11252  11253  11263     1  0.0000000  1.2552000  3
  11248  11252  11254  11255     1  0.0000000  1.2552000  3
  11248  11252  11254  11257     1  0.0000000  1.2552000  3
  11249  11246  11248  11252     1  0.0000000  0.6508444  3
  11249  11246  11248  11250     1  0.0000000  0.6508444  3
  11249  11246  11248  11251     1  0.0000000  0.6508444  3
  11250  11248  11252  11253     1  0.0000000  1.2552000  3
  11250  11248  11252  11254     1  0.0000000  1.2552000  3
  11251  11248  11252  11253     1  0.0000000  1.2552000  3
  11251  11248  11252  11254     1  0.0000000  1.2552000  3
  11252  11253  11264  11265     1  0.0000000  0.6508444  3
  11252  11253  11264  11266     1  0.0000000  0.6508444  3
  11252  11254  11256  11258     1  0.0000000  0.6508444  3
  11252  11254  11256  11259     1  0.0000000  0.6508444  3
  11253  11252  11254  11255     1  0.0000000  1.2552000  3
  11253  11252  11254  11257     1  0.0000000  1.2552000  3
  11254  11252  11253  11262     1  0.0000000  1.2552000  3
  11254  11252  11253  11263     1  0.0000000  1.2552000  3
  11255  11254  11256  11260     1  0.0000000  0.6508444  3
  11255  11254  11256  11258     1  0.0000000  0.6508444  3
  11255  11254  11256  11259     1  0.0000000  0.6508444  3
  11256  11260  11292  11282     1  180.0000771  6.0668000  2
  11256  11260  11292  11282     1  180.0000771  1.4644000  4
  11257  11254  11256  11260     1  0.0000000  0.6508444  3
  11257  11254  11256  11258     1  0.0000000  0.6508444  3
  11257  11254  11256  11259     1  0.0000000  0.6508444  3
  11258  11256  11260  11261     1  0.0000000  3.3472000  1
  11258  11256  11260  11261     1  0.0000000  0.0000000  2
  11258  11256  11260  11261     1  180.0000771  0.3347200  3
  11258  11256  11260  11292     1  180.0000771  0.0000000  2
  11259  11256  11260  11261     1  0.0000000  3.3472000  1
  11259  11256  11260  11261     1  0.0000000  0.0000000  2
  11259  11256  11260  11261     1  180.0000771  0.3347200  3
  11259  11256  11260  11292     1  180.0000771  0.0000000  2
  11260  11292  11273  11275     1  0.0000000  1.2552000  3
  11261  11260  11292  11282     1  180.0000771  6.0668000  2
  11261  11260  11292  11282     1  180.0000771  1.4644000  4
  11262  11253  11264  11267     1  0.0000000  0.6508444  3
  11262  11253  11264  11265     1  0.0000000  0.6508444  3
  11262  11253  11264  11266     1  0.0000000  0.6508444  3
  11263  11253  11264  11267     1  0.0000000  0.6508444  3
  11263  11253  11264  11265     1  0.0000000  0.6508444  3
  11263  11253  11264  11266     1  0.0000000  0.6508444  3
  11264  11267  11316  11306     1  180.0000771  6.0668000  2
  11264  11267  11316  11306     1  180.0000771  1.4644000  4
  11265  11264  11267  11268     1  0.0000000  3.3472000  1
  11265  11264  11267  11268     1  0.0000000  0.0000000  2
  11265  11264  11267  11268     1  180.0000771  0.3347200  3
  11265  11264  11267  11316     1  180.0000771  0.0000000  2
  11266  11264  11267  11268     1  0.0000000  3.3472000  1
  11266  11264  11267  11268     1  0.0000000  0.0000000  2
  11266  11264  11267  11268     1  180.0000771  0.3347200  3
  11266  11264  11267  11316     1  180.0000771  0.0000000  2
  11267  11316  11297  11299     1  0.0000000  1.2552000  3
  11268  11267  11316  11306     1  180.0000771  6.0668000  2
  11268  11267  11316  11306     1  180.0000771  1.4644000  4
  11269  11270  11272  11276     1  0.0000000  0.6508444  3
  11269  11270  11290  11291     1  0.0000000  1.0460000  1
  11269  11270  11290  11291     1  0.0000000  0.6694400  3
  11269  11280  11285  11286     1  0.0000000  1.0460000  1
  11269  11280  11285  11286     1  0.0000000  0.6694400  3
  11269  11287  11274  11277     1  0.0000000  1.6038667  3
  11270  11272  11273  11275     1  0.0000000  0.6508444  3
  11270  11272  11279  11281     1  0.0000000  1.0460000  1
  11270  11272  11279  11281     1  0.0000000  0.6694400  3
  11270  11269  11280  11283     1  0.0000000  0.6508444  3
  11270  11269  11280  11284     1  0.0000000  0.6508444  3
  11271  11269  11270  11272     1  0.0000000  0.6508444  3
  11271  11269  11270  11290     1  0.0000000  1.0460000  1
  11271  11269  11270  11290     1  0.0000000  0.0000000  3
  11271  11269  11270  11289     1  0.0000000  0.6508444  3
  11271  11269  11280  11285     1  0.0000000  1.0460000  1
  11271  11269  11280  11285     1  0.0000000  0.0000000  3
  11271  11269  11280  11283     1  0.0000000  0.6508444  3
  11271  11269  11280  11284     1  0.0000000  0.6508444  3
  11271  11269  11287  11274     1  0.0000000  1.6038667  3
  11272  11273  11274  11277     1  0.0000000  0.6508444  3
  11272  11273  11292  11282     1  0.0000000  1.2552000  3
  11272  11270  11290  11291     1  0.0000000  1.0460000  1
  11272  11270  11290  11291     1  0.0000000  0.6694400  3
  11273  11274  11278  11288     1  0.0000000  1.0460000  1
  11273  11274  11278  11288     1  0.0000000  0.6694400  3
  11273  11272  11279  11281     1  0.0000000  1.0460000  1
  11273  11272  11279  11281     1  0.0000000  0.6694400  3
  11273  11272  11270  11289     1  0.0000000  0.6508444  3
  11274  11273  11292  11282     1  0.0000000  1.2552000  3
  11274  11273  11272  11276     1  0.0000000  0.6508444  3
  11275  11273  11274  11278     1  0.0000000  1.0460000  1
  11275  11273  11274  11278     1  0.0000000  0.0000000  3
  11275  11273  11274  11287     1  0.0000000  1.0460000  1
  11275  11273  11274  11287     1  0.0000000  0.0000000  3
  11275  11273  11274  11277     1  0.0000000  0.6508444  3
  11275  11273  11292  11282     1  0.0000000  1.2552000  3
  11275  11273  11272  11279     1  0.0000000  1.0460000  1
  11275  11273  11272  11279     1  0.0000000  0.0000000  3
  11275  11273  11272  11276     1  0.0000000  0.6508444  3
  11276  11272  11273  11292     1  0.0000000  0.6508444  3
  11276  11272  11279  11281     1  0.0000000  0.6973333  3
  11276  11272  11270  11290     1  0.0000000  1.0460000  1
  11276  11272  11270  11290     1  0.0000000  0.0000000  3
  11276  11272  11270  11289     1  0.0000000  0.6508444  3
  11277  11274  11278  11288     1  0.0000000  0.6973333  3
  11277  11274  11273  11292     1  0.0000000  0.6508444  3
  11279  11272  11270  11289     1  0.0000000  1.0460000  1
  11279  11272  11270  11289     1  0.0000000  0.0000000  3
  11280  11269  11270  11289     1  0.0000000  0.6508444  3
  11283  11280  11285  11286     1  0.0000000  0.6973333  3
  11283  11280  11269  11287     1  0.0000000  1.0460000  1
  11283  11280  11269  11287     1  0.0000000  0.0000000  3
  11284  11280  11285  11286     1  0.0000000  0.6973333  3
  11284  11280  11269  11287     1  0.0000000  1.0460000  1
  11284  11280  11269  11287     1  0.0000000  0.0000000  3
  11287  11274  11278  11288     1  0.0000000  0.6973333  3
  11287  11269  11270  11289     1  0.0000000  1.0460000  1
  11287  11269  11270  11289     1  0.0000000  0.0000000  3
  11289  11270  11290  11291     1  0.0000000  0.6973333  3
  11293  11294  11296  11300     1  0.0000000  0.6508444  3
  11293  11294  11314  11315     1  0.0000000  1.0460000  1
  11293  11294  11314  11315     1  0.0000000  0.6694400  3
  11293  11304  11309  11310     1  0.0000000  1.0460000  1
  11293  11304  11309  11310     1  0.0000000  0.6694400  3
  11293  11311  11298  11301     1  0.0000000  1.6038667  3
  11294  11296  11297  11299     1  0.0000000  0.6508444  3
  11294  11296  11303  11305     1  0.0000000  1.0460000  1
  11294  11296  11303  11305     1  0.0000000  0.6694400  3
  11294  11293  11304  11307     1  0.0000000  0.6508444  3
  11294  11293  11304  11308     1  0.0000000  0.6508444  3
  11295  11293  11294  11296     1  0.0000000  0.6508444  3
  11295  11293  11294  11314     1  0.0000000  1.0460000  1
  11295  11293  11294  11314     1  0.0000000  0.0000000  3
  11295  11293  11294  11313     1  0.0000000  0.6508444  3
  11295  11293  11304  11309     1  0.0000000  1.0460000  1
  11295  11293  11304  11309     1  0.0000000  0.0000000  3
  11295  11293  11304  11307     1  0.0000000  0.6508444  3
  11295  11293  11304  11308     1  0.0000000  0.6508444  3
  11295  11293  11311  11298     1  0.0000000  1.6038667  3
  11296  11297  11298  11301     1  0.0000000  0.6508444  3
  11296  11297  11316  11306     1  0.0000000  1.2552000  3
  11296  11294  11314  11315     1  0.0000000  1.0460000  1
  11296  11294  11314  11315     1  0.0000000  0.6694400  3
  11297  11298  11302  11312     1  0.0000000  1.0460000  1
  11297  11298  11302  11312     1  0.0000000  0.6694400  3
  11297  11296  11303  11305     1  0.0000000  1.0460000  1
  11297  11296  11303  11305     1  0.0000000  0.6694400  3
  11297  11296  11294  11313     1  0.0000000  0.6508444  3
  11298  11297  11316  11306     1  0.0000000  1.2552000  3
  11298  11297  11296  11300     1  0.0000000  0.6508444  3
  11299  11297  11298  11302     1  0.0000000  1.0460000  1
  11299  11297  11298  11302     1  0.0000000  0.0000000  3
  11299  11297  11298  11311     1  0.0000000  1.0460000  1
  11299  11297  11298  11311     1  0.0000000  0.0000000  3
  11299  11297  11298  11301     1  0.0000000  0.6508444  3
  11299  11297  11316  11306     1  0.0000000  1.2552000  3
  11299  11297  11296  11303     1  0.0000000  1.0460000  1
  11299  11297  11296  11303     1  0.0000000  0.0000000  3
  11299  11297  11296  11300     1  0.0000000  0.6508444  3
  11300  11296  11297  11316     1  0.0000000  0.6508444  3
  11300  11296  11303  11305     1  0.0000000  0.6973333  3
  11300  11296  11294  11314     1  0.0000000  1.0460000  1
  11300  11296  11294  11314     1  0.0000000  0.0000000  3
  11300  11296  11294  11313     1  0.0000000  0.6508444  3
  11301  11298  11302  11312     1  0.0000000  0.6973333  3
  11301  11298  11297  11316     1  0.0000000  0.6508444  3
  11303  11296  11294  11313     1  0.0000000  1.0460000  1
  11303  11296  11294  11313     1  0.0000000  0.0000000  3
  11304  11293  11294  11313     1  0.0000000  0.6508444  3
  11307  11304  11309  11310     1  0.0000000  0.6973333  3
  11307  11304  11293  11311     1  0.0000000  1.0460000  1
  11307  11304  11293  11311     1  0.0000000  0.0000000  3
  11308  11304  11309  11310     1  0.0000000  0.6973333  3
  11308  11304  11293  11311     1  0.0000000  1.0460000  1
  11308  11304  11293  11311     1  0.0000000  0.0000000  3
  11311  11298  11302  11312     1  0.0000000  0.6973333  3
  11311  11293  11294  11313     1  0.0000000  1.0460000  1
  11311  11293  11294  11313     1  0.0000000  0.0000000  3
  11313  11294  11314  11315     1  0.0000000  0.6973333  3
  11317  11319  11321  11323     1  0.0000000  0.6508444  3
  11317  11319  11321  11324     1  0.0000000  0.6508444  3
  11318  11317  11319  11321     1  0.0000000  0.0000000  2
  11318  11317  11319  11320     1  0.0000000  0.0000000  2
  11318  11317  11319  11322     1  0.0000000  0.0000000  2
  11320  11319  11321  11325     1  0.0000000  0.6508444  3
  11320  11319  11321  11323     1  0.0000000  0.6508444  3
  11320  11319  11321  11324     1  0.0000000  0.6508444  3
  11321  11325  11326  11335     1  0.0000000  1.2552000  3
  11321  11325  11326  11336     1  0.0000000  1.2552000  3
  11321  11325  11327  11328     1  0.0000000  1.2552000  3
  11321  11325  11327  11330     1  0.0000000  1.2552000  3
  11322  11319  11321  11325     1  0.0000000  0.6508444  3
  11322  11319  11321  11323     1  0.0000000  0.6508444  3
  11322  11319  11321  11324     1  0.0000000  0.6508444  3
  11323  11321  11325  11326     1  0.0000000  1.2552000  3
  11323  11321  11325  11327     1  0.0000000  1.2552000  3
  11324  11321  11325  11326     1  0.0000000  1.2552000  3
  11324  11321  11325  11327     1  0.0000000  1.2552000  3
  11325  11326  11337  11338     1  0.0000000  0.6508444  3
  11325  11326  11337  11339     1  0.0000000  0.6508444  3
  11325  11327  11329  11331     1  0.0000000  0.6508444  3
  11325  11327  11329  11332     1  0.0000000  0.6508444  3
  11326  11325  11327  11328     1  0.0000000  1.2552000  3
  11326  11325  11327  11330     1  0.0000000  1.2552000  3
  11327  11325  11326  11335     1  0.0000000  1.2552000  3
  11327  11325  11326  11336     1  0.0000000  1.2552000  3
  11328  11327  11329  11333     1  0.0000000  0.6508444  3
  11328  11327  11329  11331     1  0.0000000  0.6508444  3
  11328  11327  11329  11332     1  0.0000000  0.6508444  3
  11329  11333  11365  11355     1  180.0000771  6.0668000  2
  11329  11333  11365  11355     1  180.0000771  1.4644000  4
  11330  11327  11329  11333     1  0.0000000  0.6508444  3
  11330  11327  11329  11331     1  0.0000000  0.6508444  3
  11330  11327  11329  11332     1  0.0000000  0.6508444  3
  11331  11329  11333  11334     1  0.0000000  3.3472000  1
  11331  11329  11333  11334     1  0.0000000  0.0000000  2
  11331  11329  11333  11334     1  180.0000771  0.3347200  3
  11331  11329  11333  11365     1  180.0000771  0.0000000  2
  11332  11329  11333  11334     1  0.0000000  3.3472000  1
  11332  11329  11333  11334     1  0.0000000  0.0000000  2
  11332  11329  11333  11334     1  180.0000771  0.3347200  3
  11332  11329  11333  11365     1  180.0000771  0.0000000  2
  11333  11365  11346  11348     1  0.0000000  1.2552000  3
  11334  11333  11365  11355     1  180.0000771  6.0668000  2
  11334  11333  11365  11355     1  180.0000771  1.4644000  4
  11335  11326  11337  11340     1  0.0000000  0.6508444  3
  11335  11326  11337  11338     1  0.0000000  0.6508444  3
  11335  11326  11337  11339     1  0.0000000  0.6508444  3
  11336  11326  11337  11340     1  0.0000000  0.6508444  3
  11336  11326  11337  11338     1  0.0000000  0.6508444  3
  11336  11326  11337  11339     1  0.0000000  0.6508444  3
  11337  11340  11389  11379     1  180.0000771  6.0668000  2
  11337  11340  11389  11379     1  180.0000771  1.4644000  4
  11338  11337  11340  11341     1  0.0000000  3.3472000  1
  11338  11337  11340  11341     1  0.0000000  0.0000000  2
  11338  11337  11340  11341     1  180.0000771  0.3347200  3
  11338  11337  11340  11389     1  180.0000771  0.0000000  2
  11339  11337  11340  11341     1  0.0000000  3.3472000  1
  11339  11337  11340  11341     1  0.0000000  0.0000000  2
  11339  11337  11340  11341     1  180.0000771  0.3347200  3
  11339  11337  11340  11389     1  180.0000771  0.0000000  2
  11340  11389  11370  11372     1  0.0000000  1.2552000  3
  11341  11340  11389  11379     1  180.0000771  6.0668000  2
  11341  11340  11389  11379     1  180.0000771  1.4644000  4
  11342  11343  11345  11349     1  0.0000000  0.6508444  3
  11342  11343  11363  11364     1  0.0000000  1.0460000  1
  11342  11343  11363  11364     1  0.0000000  0.6694400  3
  11342  11353  11358  11359     1  0.0000000  1.0460000  1
  11342  11353  11358  11359     1  0.0000000  0.6694400  3
  11342  11360  11347  11350     1  0.0000000  1.6038667  3
  11343  11342  11353  11356     1  0.0000000  0.6508444  3
  11343  11342  11353  11357     1  0.0000000  0.6508444  3
  11343  11345  11346  11348     1  0.0000000  0.6508444  3
  11343  11345  11352  11354     1  0.0000000  1.0460000  1
  11343  11345  11352  11354     1  0.0000000  0.6694400  3
  11344  11342  11343  11345     1  0.0000000  0.6508444  3
  11344  11342  11343  11363     1  0.0000000  1.0460000  1
  11344  11342  11343  11363     1  0.0000000  0.0000000  3
  11344  11342  11343  11362     1  0.0000000  0.6508444  3
  11344  11342  11353  11358     1  0.0000000  1.0460000  1
  11344  11342  11353  11358     1  0.0000000  0.0000000  3
  11344  11342  11353  11356     1  0.0000000  0.6508444  3
  11344  11342  11353  11357     1  0.0000000  0.6508444  3
  11344  11342  11360  11347     1  0.0000000  1.6038667  3
  11345  11343  11363  11364     1  0.0000000  1.0460000  1
  11345  11343  11363  11364     1  0.0000000  0.6694400  3
  11345  11346  11347  11350     1  0.0000000  0.6508444  3
  11345  11346  11365  11355     1  0.0000000  1.2552000  3
  11346  11345  11343  11362     1  0.0000000  0.6508444  3
  11346  11345  11352  11354     1  0.0000000  1.0460000  1
  11346  11345  11352  11354     1  0.0000000  0.6694400  3
  11346  11347  11351  11361     1  0.0000000  1.0460000  1
  11346  11347  11351  11361     1  0.0000000  0.6694400  3
  11347  11346  11345  11349     1  0.0000000  0.6508444  3
  11347  11346  11365  11355     1  0.0000000  1.2552000  3
  11348  11346  11345  11352     1  0.0000000  1.0460000  1
  11348  11346  11345  11352     1  0.0000000  0.0000000  3
  11348  11346  11345  11349     1  0.0000000  0.6508444  3
  11348  11346  11347  11351     1  0.0000000  1.0460000  1
  11348  11346  11347  11351     1  0.0000000  0.0000000  3
  11348  11346  11347  11360     1  0.0000000  1.0460000  1
  11348  11346  11347  11360     1  0.0000000  0.0000000  3
  11348  11346  11347  11350     1  0.0000000  0.6508444  3
  11348  11346  11365  11355     1  0.0000000  1.2552000  3
  11349  11345  11343  11363     1  0.0000000  1.0460000  1
  11349  11345  11343  11363     1  0.0000000  0.0000000  3
  11349  11345  11343  11362     1  0.0000000  0.6508444  3
  11349  11345  11346  11365     1  0.0000000  0.6508444  3
  11349  11345  11352  11354     1  0.0000000  0.6973333  3
  11350  11347  11346  11365     1  0.0000000  0.6508444  3
  11350  11347  11351  11361     1  0.0000000  0.6973333  3
  11352  11345  11343  11362     1  0.0000000  1.0460000  1
  11352  11345  11343  11362     1  0.0000000  0.0000000  3
  11353  11342  11343  11362     1  0.0000000  0.6508444  3
  11356  11353  11342  11360     1  0.0000000  1.0460000  1
  11356  11353  11342  11360     1  0.0000000  0.0000000  3
  11356  11353  11358  11359     1  0.0000000  0.6973333  3
  11357  11353  11342  11360     1  0.0000000  1.0460000  1
  11357  11353  11342  11360     1  0.0000000  0.0000000  3
  11357  11353  11358  11359     1  0.0000000  0.6973333  3
  11360  11342  11343  11362     1  0.0000000  1.0460000  1
  11360  11342  11343  11362     1  0.0000000  0.0000000  3
  11360  11347  11351  11361     1  0.0000000  0.6973333  3
  11362  11343  11363  11364     1  0.0000000  0.6973333  3
  11366  11367  11369  11373     1  0.0000000  0.6508444  3
  11366  11367  11387  11388     1  0.0000000  1.0460000  1
  11366  11367  11387  11388     1  0.0000000  0.6694400  3
  11366  11377  11382  11383     1  0.0000000  1.0460000  1
  11366  11377  11382  11383     1  0.0000000  0.6694400  3
  11366  11384  11371  11374     1  0.0000000  1.6038667  3
  11367  11366  11377  11380     1  0.0000000  0.6508444  3
  11367  11366  11377  11381     1  0.0000000  0.6508444  3
  11367  11369  11370  11372     1  0.0000000  0.6508444  3
  11367  11369  11376  11378     1  0.0000000  1.0460000  1
  11367  11369  11376  11378     1  0.0000000  0.6694400  3
  11368  11366  11367  11369     1  0.0000000  0.6508444  3
  11368  11366  11367  11387     1  0.0000000  1.0460000  1
  11368  11366  11367  11387     1  0.0000000  0.0000000  3
  11368  11366  11367  11386     1  0.0000000  0.6508444  3
  11368  11366  11377  11382     1  0.0000000  1.0460000  1
  11368  11366  11377  11382     1  0.0000000  0.0000000  3
  11368  11366  11377  11380     1  0.0000000  0.6508444  3
  11368  11366  11377  11381     1  0.0000000  0.6508444  3
  11368  11366  11384  11371     1  0.0000000  1.6038667  3
  11369  11367  11387  11388     1  0.0000000  1.0460000  1
  11369  11367  11387  11388     1  0.0000000  0.6694400  3
  11369  11370  11371  11374     1  0.0000000  0.6508444  3
  11369  11370  11389  11379     1  0.0000000  1.2552000  3
  11370  11369  11367  11386     1  0.0000000  0.6508444  3
  11370  11369  11376  11378     1  0.0000000  1.0460000  1
  11370  11369  11376  11378     1  0.0000000  0.6694400  3
  11370  11371  11375  11385     1  0.0000000  1.0460000  1
  11370  11371  11375  11385     1  0.0000000  0.6694400  3
  11371  11370  11369  11373     1  0.0000000  0.6508444  3
  11371  11370  11389  11379     1  0.0000000  1.2552000  3
  11372  11370  11369  11376     1  0.0000000  1.0460000  1
  11372  11370  11369  11376     1  0.0000000  0.0000000  3
  11372  11370  11369  11373     1  0.0000000  0.6508444  3
  11372  11370  11371  11375     1  0.0000000  1.0460000  1
  11372  11370  11371  11375     1  0.0000000  0.0000000  3
  11372  11370  11371  11384     1  0.0000000  1.0460000  1
  11372  11370  11371  11384     1  0.0000000  0.0000000  3
  11372  11370  11371  11374     1  0.0000000  0.6508444  3
  11372  11370  11389  11379     1  0.0000000  1.2552000  3
  11373  11369  11367  11387     1  0.0000000  1.0460000  1
  11373  11369  11367  11387     1  0.0000000  0.0000000  3
  11373  11369  11367  11386     1  0.0000000  0.6508444  3
  11373  11369  11370  11389     1  0.0000000  0.6508444  3
  11373  11369  11376  11378     1  0.0000000  0.6973333  3
  11374  11371  11370  11389     1  0.0000000  0.6508444  3
  11374  11371  11375  11385     1  0.0000000  0.6973333  3
  11376  11369  11367  11386     1  0.0000000  1.0460000  1
  11376  11369  11367  11386     1  0.0000000  0.0000000  3
  11377  11366  11367  11386     1  0.0000000  0.6508444  3
  11380  11377  11366  11384     1  0.0000000  1.0460000  1
  11380  11377  11366  11384     1  0.0000000  0.0000000  3
  11380  11377  11382  11383     1  0.0000000  0.6973333  3
  11381  11377  11366  11384     1  0.0000000  1.0460000  1
  11381  11377  11366  11384     1  0.0000000  0.0000000  3
  11381  11377  11382  11383     1  0.0000000  0.6973333  3
  11384  11366  11367  11386     1  0.0000000  1.0460000  1
  11384  11366  11367  11386     1  0.0000000  0.0000000  3
  11384  11371  11375  11385     1  0.0000000  0.6973333  3
  11386  11367  11387  11388     1  0.0000000  0.6973333  3
  11390  11392  11394  11396     1  0.0000000  0.6508444  3
  11390  11392  11394  11397     1  0.0000000  0.6508444  3
  11391  11390  11392  11394     1  0.0000000  0.0000000  2
  11391  11390  11392  11393     1  0.0000000  0.0000000  2
  11391  11390  11392  11395     1  0.0000000  0.0000000  2
  11393  11392  11394  11398     1  0.0000000  0.6508444  3
  11393  11392  11394  11396     1  0.0000000  0.6508444  3
  11393  11392  11394  11397     1  0.0000000  0.6508444  3
  11394  11398  11399  11408     1  0.0000000  1.2552000  3
  11394  11398  11399  11409     1  0.0000000  1.2552000  3
  11394  11398  11400  11401     1  0.0000000  1.2552000  3
  11394  11398  11400  11403     1  0.0000000  1.2552000  3
  11395  11392  11394  11398     1  0.0000000  0.6508444  3
  11395  11392  11394  11396     1  0.0000000  0.6508444  3
  11395  11392  11394  11397     1  0.0000000  0.6508444  3
  11396  11394  11398  11399     1  0.0000000  1.2552000  3
  11396  11394  11398  11400     1  0.0000000  1.2552000  3
  11397  11394  11398  11399     1  0.0000000  1.2552000  3
  11397  11394  11398  11400     1  0.0000000  1.2552000  3
  11398  11399  11410  11411     1  0.0000000  0.6508444  3
  11398  11399  11410  11412     1  0.0000000  0.6508444  3
  11398  11400  11402  11404     1  0.0000000  0.6508444  3
  11398  11400  11402  11405     1  0.0000000  0.6508444  3
  11399  11398  11400  11401     1  0.0000000  1.2552000  3
  11399  11398  11400  11403     1  0.0000000  1.2552000  3
  11400  11398  11399  11408     1  0.0000000  1.2552000  3
  11400  11398  11399  11409     1  0.0000000  1.2552000  3
  11401  11400  11402  11406     1  0.0000000  0.6508444  3
  11401  11400  11402  11404     1  0.0000000  0.6508444  3
  11401  11400  11402  11405     1  0.0000000  0.6508444  3
  11402  11406  11438  11428     1  180.0000771  6.0668000  2
  11402  11406  11438  11428     1  180.0000771  1.4644000  4
  11403  11400  11402  11406     1  0.0000000  0.6508444  3
  11403  11400  11402  11404     1  0.0000000  0.6508444  3
  11403  11400  11402  11405     1  0.0000000  0.6508444  3
  11404  11402  11406  11407     1  0.0000000  3.3472000  1
  11404  11402  11406  11407     1  0.0000000  0.0000000  2
  11404  11402  11406  11407     1  180.0000771  0.3347200  3
  11404  11402  11406  11438     1  180.0000771  0.0000000  2
  11405  11402  11406  11407     1  0.0000000  3.3472000  1
  11405  11402  11406  11407     1  0.0000000  0.0000000  2
  11405  11402  11406  11407     1  180.0000771  0.3347200  3
  11405  11402  11406  11438     1  180.0000771  0.0000000  2
  11406  11438  11419  11421     1  0.0000000  1.2552000  3
  11407  11406  11438  11428     1  180.0000771  6.0668000  2
  11407  11406  11438  11428     1  180.0000771  1.4644000  4
  11408  11399  11410  11413     1  0.0000000  0.6508444  3
  11408  11399  11410  11411     1  0.0000000  0.6508444  3
  11408  11399  11410  11412     1  0.0000000  0.6508444  3
  11409  11399  11410  11413     1  0.0000000  0.6508444  3
  11409  11399  11410  11411     1  0.0000000  0.6508444  3
  11409  11399  11410  11412     1  0.0000000  0.6508444  3
  11410  11413  11462  11452     1  180.0000771  6.0668000  2
  11410  11413  11462  11452     1  180.0000771  1.4644000  4
  11411  11410  11413  11414     1  0.0000000  3.3472000  1
  11411  11410  11413  11414     1  0.0000000  0.0000000  2
  11411  11410  11413  11414     1  180.0000771  0.3347200  3
  11411  11410  11413  11462     1  180.0000771  0.0000000  2
  11412  11410  11413  11414     1  0.0000000  3.3472000  1
  11412  11410  11413  11414     1  0.0000000  0.0000000  2
  11412  11410  11413  11414     1  180.0000771  0.3347200  3
  11412  11410  11413  11462     1  180.0000771  0.0000000  2
  11413  11462  11443  11445     1  0.0000000  1.2552000  3
  11414  11413  11462  11452     1  180.0000771  6.0668000  2
  11414  11413  11462  11452     1  180.0000771  1.4644000  4
  11415  11416  11418  11422     1  0.0000000  0.6508444  3
  11415  11416  11436  11437     1  0.0000000  1.0460000  1
  11415  11416  11436  11437     1  0.0000000  0.6694400  3
  11415  11426  11431  11432     1  0.0000000  1.0460000  1
  11415  11426  11431  11432     1  0.0000000  0.6694400  3
  11415  11433  11420  11423     1  0.0000000  1.6038667  3
  11416  11418  11419  11421     1  0.0000000  0.6508444  3
  11416  11418  11425  11427     1  0.0000000  1.0460000  1
  11416  11418  11425  11427     1  0.0000000  0.6694400  3
  11416  11415  11426  11429     1  0.0000000  0.6508444  3
  11416  11415  11426  11430     1  0.0000000  0.6508444  3
  11417  11415  11416  11418     1  0.0000000  0.6508444  3
  11417  11415  11416  11436     1  0.0000000  1.0460000  1
  11417  11415  11416  11436     1  0.0000000  0.0000000  3
  11417  11415  11416  11435     1  0.0000000  0.6508444  3
  11417  11415  11426  11431     1  0.0000000  1.0460000  1
  11417  11415  11426  11431     1  0.0000000  0.0000000  3
  11417  11415  11426  11429     1  0.0000000  0.6508444  3
  11417  11415  11426  11430     1  0.0000000  0.6508444  3
  11417  11415  11433  11420     1  0.0000000  1.6038667  3
  11418  11419  11420  11423     1  0.0000000  0.6508444  3
  11418  11419  11438  11428     1  0.0000000  1.2552000  3
  11418  11416  11436  11437     1  0.0000000  1.0460000  1
  11418  11416  11436  11437     1  0.0000000  0.6694400  3
  11419  11420  11424  11434     1  0.0000000  1.0460000  1
  11419  11420  11424  11434     1  0.0000000  0.6694400  3
  11419  11418  11425  11427     1  0.0000000  1.0460000  1
  11419  11418  11425  11427     1  0.0000000  0.6694400  3
  11419  11418  11416  11435     1  0.0000000  0.6508444  3
  11420  11419  11438  11428     1  0.0000000  1.2552000  3
  11420  11419  11418  11422     1  0.0000000  0.6508444  3
  11421  11419  11420  11424     1  0.0000000  1.0460000  1
  11421  11419  11420  11424     1  0.0000000  0.0000000  3
  11421  11419  11420  11433     1  0.0000000  1.0460000  1
  11421  11419  11420  11433     1  0.0000000  0.0000000  3
  11421  11419  11420  11423     1  0.0000000  0.6508444  3
  11421  11419  11438  11428     1  0.0000000  1.2552000  3
  11421  11419  11418  11425     1  0.0000000  1.0460000  1
  11421  11419  11418  11425     1  0.0000000  0.0000000  3
  11421  11419  11418  11422     1  0.0000000  0.6508444  3
  11422  11418  11419  11438     1  0.0000000  0.6508444  3
  11422  11418  11425  11427     1  0.0000000  0.6973333  3
  11422  11418  11416  11436     1  0.0000000  1.0460000  1
  11422  11418  11416  11436     1  0.0000000  0.0000000  3
  11422  11418  11416  11435     1  0.0000000  0.6508444  3
  11423  11420  11424  11434     1  0.0000000  0.6973333  3
  11423  11420  11419  11438     1  0.0000000  0.6508444  3
  11425  11418  11416  11435     1  0.0000000  1.0460000  1
  11425  11418  11416  11435     1  0.0000000  0.0000000  3
  11426  11415  11416  11435     1  0.0000000  0.6508444  3
  11429  11426  11431  11432     1  0.0000000  0.6973333  3
  11429  11426  11415  11433     1  0.0000000  1.0460000  1
  11429  11426  11415  11433     1  0.0000000  0.0000000  3
  11430  11426  11431  11432     1  0.0000000  0.6973333  3
  11430  11426  11415  11433     1  0.0000000  1.0460000  1
  11430  11426  11415  11433     1  0.0000000  0.0000000  3
  11433  11420  11424  11434     1  0.0000000  0.6973333  3
  11433  11415  11416  11435     1  0.0000000  1.0460000  1
  11433  11415  11416  11435     1  0.0000000  0.0000000  3
  11435  11416  11436  11437     1  0.0000000  0.6973333  3
  11439  11440  11442  11446     1  0.0000000  0.6508444  3
  11439  11440  11460  11461     1  0.0000000  1.0460000  1
  11439  11440  11460  11461     1  0.0000000  0.6694400  3
  11439  11450  11455  11456     1  0.0000000  1.0460000  1
  11439  11450  11455  11456     1  0.0000000  0.6694400  3
  11439  11457  11444  11447     1  0.0000000  1.6038667  3
  11440  11442  11443  11445     1  0.0000000  0.6508444  3
  11440  11442  11449  11451     1  0.0000000  1.0460000  1
  11440  11442  11449  11451     1  0.0000000  0.6694400  3
  11440  11439  11450  11453     1  0.0000000  0.6508444  3
  11440  11439  11450  11454     1  0.0000000  0.6508444  3
  11441  11439  11440  11442     1  0.0000000  0.6508444  3
  11441  11439  11440  11460     1  0.0000000  1.0460000  1
  11441  11439  11440  11460     1  0.0000000  0.0000000  3
  11441  11439  11440  11459     1  0.0000000  0.6508444  3
  11441  11439  11450  11455     1  0.0000000  1.0460000  1
  11441  11439  11450  11455     1  0.0000000  0.0000000  3
  11441  11439  11450  11453     1  0.0000000  0.6508444  3
  11441  11439  11450  11454     1  0.0000000  0.6508444  3
  11441  11439  11457  11444     1  0.0000000  1.6038667  3
  11442  11443  11444  11447     1  0.0000000  0.6508444  3
  11442  11443  11462  11452     1  0.0000000  1.2552000  3
  11442  11440  11460  11461     1  0.0000000  1.0460000  1
  11442  11440  11460  11461     1  0.0000000  0.6694400  3
  11443  11444  11448  11458     1  0.0000000  1.0460000  1
  11443  11444  11448  11458     1  0.0000000  0.6694400  3
  11443  11442  11449  11451     1  0.0000000  1.0460000  1
  11443  11442  11449  11451     1  0.0000000  0.6694400  3
  11443  11442  11440  11459     1  0.0000000  0.6508444  3
  11444  11443  11462  11452     1  0.0000000  1.2552000  3
  11444  11443  11442  11446     1  0.0000000  0.6508444  3
  11445  11443  11444  11448     1  0.0000000  1.0460000  1
  11445  11443  11444  11448     1  0.0000000  0.0000000  3
  11445  11443  11444  11457     1  0.0000000  1.0460000  1
  11445  11443  11444  11457     1  0.0000000  0.0000000  3
  11445  11443  11444  11447     1  0.0000000  0.6508444  3
  11445  11443  11462  11452     1  0.0000000  1.2552000  3
  11445  11443  11442  11449     1  0.0000000  1.0460000  1
  11445  11443  11442  11449     1  0.0000000  0.0000000  3
  11445  11443  11442  11446     1  0.0000000  0.6508444  3
  11446  11442  11443  11462     1  0.0000000  0.6508444  3
  11446  11442  11449  11451     1  0.0000000  0.6973333  3
  11446  11442  11440  11460     1  0.0000000  1.0460000  1
  11446  11442  11440  11460     1  0.0000000  0.0000000  3
  11446  11442  11440  11459     1  0.0000000  0.6508444  3
  11447  11444  11448  11458     1  0.0000000  0.6973333  3
  11447  11444  11443  11462     1  0.0000000  0.6508444  3
  11449  11442  11440  11459     1  0.0000000  1.0460000  1
  11449  11442  11440  11459     1  0.0000000  0.0000000  3
  11450  11439  11440  11459     1  0.0000000  0.6508444  3
  11453  11450  11455  11456     1  0.0000000  0.6973333  3
  11453  11450  11439  11457     1  0.0000000  1.0460000  1
  11453  11450  11439  11457     1  0.0000000  0.0000000  3
  11454  11450  11455  11456     1  0.0000000  0.6973333  3
  11454  11450  11439  11457     1  0.0000000  1.0460000  1
  11454  11450  11439  11457     1  0.0000000  0.0000000  3
  11457  11444  11448  11458     1  0.0000000  0.6973333  3
  11457  11439  11440  11459     1  0.0000000  1.0460000  1
  11457  11439  11440  11459     1  0.0000000  0.0000000  3
  11459  11440  11460  11461     1  0.0000000  0.6973333  3
  11463  11465  11467  11469     1  0.0000000  0.6508444  3
  11463  11465  11467  11470     1  0.0000000  0.6508444  3
  11464  11463  11465  11467     1  0.0000000  0.0000000  2
  11464  11463  11465  11466     1  0.0000000  0.0000000  2
  11464  11463  11465  11468     1  0.0000000  0.0000000  2
  11466  11465  11467  11471     1  0.0000000  0.6508444  3
  11466  11465  11467  11469     1  0.0000000  0.6508444  3
  11466  11465  11467  11470     1  0.0000000  0.6508444  3
  11467  11471  11472  11481     1  0.0000000  1.2552000  3
  11467  11471  11472  11482     1  0.0000000  1.2552000  3
  11467  11471  11473  11474     1  0.0000000  1.2552000  3
  11467  11471  11473  11476     1  0.0000000  1.2552000  3
  11468  11465  11467  11471     1  0.0000000  0.6508444  3
  11468  11465  11467  11469     1  0.0000000  0.6508444  3
  11468  11465  11467  11470     1  0.0000000  0.6508444  3
  11469  11467  11471  11472     1  0.0000000  1.2552000  3
  11469  11467  11471  11473     1  0.0000000  1.2552000  3
  11470  11467  11471  11472     1  0.0000000  1.2552000  3
  11470  11467  11471  11473     1  0.0000000  1.2552000  3
  11471  11472  11483  11484     1  0.0000000  0.6508444  3
  11471  11472  11483  11485     1  0.0000000  0.6508444  3
  11471  11473  11475  11477     1  0.0000000  0.6508444  3
  11471  11473  11475  11478     1  0.0000000  0.6508444  3
  11472  11471  11473  11474     1  0.0000000  1.2552000  3
  11472  11471  11473  11476     1  0.0000000  1.2552000  3
  11473  11471  11472  11481     1  0.0000000  1.2552000  3
  11473  11471  11472  11482     1  0.0000000  1.2552000  3
  11474  11473  11475  11479     1  0.0000000  0.6508444  3
  11474  11473  11475  11477     1  0.0000000  0.6508444  3
  11474  11473  11475  11478     1  0.0000000  0.6508444  3
  11475  11479  11511  11501     1  180.0000771  6.0668000  2
  11475  11479  11511  11501     1  180.0000771  1.4644000  4
  11476  11473  11475  11479     1  0.0000000  0.6508444  3
  11476  11473  11475  11477     1  0.0000000  0.6508444  3
  11476  11473  11475  11478     1  0.0000000  0.6508444  3
  11477  11475  11479  11480     1  0.0000000  3.3472000  1
  11477  11475  11479  11480     1  0.0000000  0.0000000  2
  11477  11475  11479  11480     1  180.0000771  0.3347200  3
  11477  11475  11479  11511     1  180.0000771  0.0000000  2
  11478  11475  11479  11480     1  0.0000000  3.3472000  1
  11478  11475  11479  11480     1  0.0000000  0.0000000  2
  11478  11475  11479  11480     1  180.0000771  0.3347200  3
  11478  11475  11479  11511     1  180.0000771  0.0000000  2
  11479  11511  11492  11494     1  0.0000000  1.2552000  3
  11480  11479  11511  11501     1  180.0000771  6.0668000  2
  11480  11479  11511  11501     1  180.0000771  1.4644000  4
  11481  11472  11483  11486     1  0.0000000  0.6508444  3
  11481  11472  11483  11484     1  0.0000000  0.6508444  3
  11481  11472  11483  11485     1  0.0000000  0.6508444  3
  11482  11472  11483  11486     1  0.0000000  0.6508444  3
  11482  11472  11483  11484     1  0.0000000  0.6508444  3
  11482  11472  11483  11485     1  0.0000000  0.6508444  3
  11483  11486  11535  11525     1  180.0000771  6.0668000  2
  11483  11486  11535  11525     1  180.0000771  1.4644000  4
  11484  11483  11486  11487     1  0.0000000  3.3472000  1
  11484  11483  11486  11487     1  0.0000000  0.0000000  2
  11484  11483  11486  11487     1  180.0000771  0.3347200  3
  11484  11483  11486  11535     1  180.0000771  0.0000000  2
  11485  11483  11486  11487     1  0.0000000  3.3472000  1
  11485  11483  11486  11487     1  0.0000000  0.0000000  2
  11485  11483  11486  11487     1  180.0000771  0.3347200  3
  11485  11483  11486  11535     1  180.0000771  0.0000000  2
  11486  11535  11516  11518     1  0.0000000  1.2552000  3
  11487  11486  11535  11525     1  180.0000771  6.0668000  2
  11487  11486  11535  11525     1  180.0000771  1.4644000  4
  11488  11489  11491  11495     1  0.0000000  0.6508444  3
  11488  11489  11509  11510     1  0.0000000  1.0460000  1
  11488  11489  11509  11510     1  0.0000000  0.6694400  3
  11488  11499  11504  11505     1  0.0000000  1.0460000  1
  11488  11499  11504  11505     1  0.0000000  0.6694400  3
  11488  11506  11493  11496     1  0.0000000  1.6038667  3
  11489  11488  11499  11502     1  0.0000000  0.6508444  3
  11489  11488  11499  11503     1  0.0000000  0.6508444  3
  11489  11491  11492  11494     1  0.0000000  0.6508444  3
  11489  11491  11498  11500     1  0.0000000  1.0460000  1
  11489  11491  11498  11500     1  0.0000000  0.6694400  3
  11490  11488  11489  11491     1  0.0000000  0.6508444  3
  11490  11488  11489  11509     1  0.0000000  1.0460000  1
  11490  11488  11489  11509     1  0.0000000  0.0000000  3
  11490  11488  11489  11508     1  0.0000000  0.6508444  3
  11490  11488  11499  11504     1  0.0000000  1.0460000  1
  11490  11488  11499  11504     1  0.0000000  0.0000000  3
  11490  11488  11499  11502     1  0.0000000  0.6508444  3
  11490  11488  11499  11503     1  0.0000000  0.6508444  3
  11490  11488  11506  11493     1  0.0000000  1.6038667  3
  11491  11489  11509  11510     1  0.0000000  1.0460000  1
  11491  11489  11509  11510     1  0.0000000  0.6694400  3
  11491  11492  11493  11496     1  0.0000000  0.6508444  3
  11491  11492  11511  11501     1  0.0000000  1.2552000  3
  11492  11491  11489  11508     1  0.0000000  0.6508444  3
  11492  11491  11498  11500     1  0.0000000  1.0460000  1
  11492  11491  11498  11500     1  0.0000000  0.6694400  3
  11492  11493  11497  11507     1  0.0000000  1.0460000  1
  11492  11493  11497  11507     1  0.0000000  0.6694400  3
  11493  11492  11491  11495     1  0.0000000  0.6508444  3
  11493  11492  11511  11501     1  0.0000000  1.2552000  3
  11494  11492  11491  11498     1  0.0000000  1.0460000  1
  11494  11492  11491  11498     1  0.0000000  0.0000000  3
  11494  11492  11491  11495     1  0.0000000  0.6508444  3
  11494  11492  11493  11497     1  0.0000000  1.0460000  1
  11494  11492  11493  11497     1  0.0000000  0.0000000  3
  11494  11492  11493  11506     1  0.0000000  1.0460000  1
  11494  11492  11493  11506     1  0.0000000  0.0000000  3
  11494  11492  11493  11496     1  0.0000000  0.6508444  3
  11494  11492  11511  11501     1  0.0000000  1.2552000  3
  11495  11491  11489  11509     1  0.0000000  1.0460000  1
  11495  11491  11489  11509     1  0.0000000  0.0000000  3
  11495  11491  11489  11508     1  0.0000000  0.6508444  3
  11495  11491  11492  11511     1  0.0000000  0.6508444  3
  11495  11491  11498  11500     1  0.0000000  0.6973333  3
  11496  11493  11492  11511     1  0.0000000  0.6508444  3
  11496  11493  11497  11507     1  0.0000000  0.6973333  3
  11498  11491  11489  11508     1  0.0000000  1.0460000  1
  11498  11491  11489  11508     1  0.0000000  0.0000000  3
  11499  11488  11489  11508     1  0.0000000  0.6508444  3
  11502  11499  11488  11506     1  0.0000000  1.0460000  1
  11502  11499  11488  11506     1  0.0000000  0.0000000  3
  11502  11499  11504  11505     1  0.0000000  0.6973333  3
  11503  11499  11488  11506     1  0.0000000  1.0460000  1
  11503  11499  11488  11506     1  0.0000000  0.0000000  3
  11503  11499  11504  11505     1  0.0000000  0.6973333  3
  11506  11488  11489  11508     1  0.0000000  1.0460000  1
  11506  11488  11489  11508     1  0.0000000  0.0000000  3
  11506  11493  11497  11507     1  0.0000000  0.6973333  3
  11508  11489  11509  11510     1  0.0000000  0.6973333  3
  11512  11513  11515  11519     1  0.0000000  0.6508444  3
  11512  11513  11533  11534     1  0.0000000  1.0460000  1
  11512  11513  11533  11534     1  0.0000000  0.6694400  3
  11512  11523  11528  11529     1  0.0000000  1.0460000  1
  11512  11523  11528  11529     1  0.0000000  0.6694400  3
  11512  11530  11517  11520     1  0.0000000  1.6038667  3
  11513  11512  11523  11526     1  0.0000000  0.6508444  3
  11513  11512  11523  11527     1  0.0000000  0.6508444  3
  11513  11515  11516  11518     1  0.0000000  0.6508444  3
  11513  11515  11522  11524     1  0.0000000  1.0460000  1
  11513  11515  11522  11524     1  0.0000000  0.6694400  3
  11514  11512  11513  11515     1  0.0000000  0.6508444  3
  11514  11512  11513  11533     1  0.0000000  1.0460000  1
  11514  11512  11513  11533     1  0.0000000  0.0000000  3
  11514  11512  11513  11532     1  0.0000000  0.6508444  3
  11514  11512  11523  11528     1  0.0000000  1.0460000  1
  11514  11512  11523  11528     1  0.0000000  0.0000000  3
  11514  11512  11523  11526     1  0.0000000  0.6508444  3
  11514  11512  11523  11527     1  0.0000000  0.6508444  3
  11514  11512  11530  11517     1  0.0000000  1.6038667  3
  11515  11513  11533  11534     1  0.0000000  1.0460000  1
  11515  11513  11533  11534     1  0.0000000  0.6694400  3
  11515  11516  11517  11520     1  0.0000000  0.6508444  3
  11515  11516  11535  11525     1  0.0000000  1.2552000  3
  11516  11515  11513  11532     1  0.0000000  0.6508444  3
  11516  11515  11522  11524     1  0.0000000  1.0460000  1
  11516  11515  11522  11524     1  0.0000000  0.6694400  3
  11516  11517  11521  11531     1  0.0000000  1.0460000  1
  11516  11517  11521  11531     1  0.0000000  0.6694400  3
  11517  11516  11515  11519     1  0.0000000  0.6508444  3
  11517  11516  11535  11525     1  0.0000000  1.2552000  3
  11518  11516  11515  11522     1  0.0000000  1.0460000  1
  11518  11516  11515  11522     1  0.0000000  0.0000000  3
  11518  11516  11515  11519     1  0.0000000  0.6508444  3
  11518  11516  11517  11521     1  0.0000000  1.0460000  1
  11518  11516  11517  11521     1  0.0000000  0.0000000  3
  11518  11516  11517  11530     1  0.0000000  1.0460000  1
  11518  11516  11517  11530     1  0.0000000  0.0000000  3
  11518  11516  11517  11520     1  0.0000000  0.6508444  3
  11518  11516  11535  11525     1  0.0000000  1.2552000  3
  11519  11515  11513  11533     1  0.0000000  1.0460000  1
  11519  11515  11513  11533     1  0.0000000  0.0000000  3
  11519  11515  11513  11532     1  0.0000000  0.6508444  3
  11519  11515  11516  11535     1  0.0000000  0.6508444  3
  11519  11515  11522  11524     1  0.0000000  0.6973333  3
  11520  11517  11516  11535     1  0.0000000  0.6508444  3
  11520  11517  11521  11531     1  0.0000000  0.6973333  3
  11522  11515  11513  11532     1  0.0000000  1.0460000  1
  11522  11515  11513  11532     1  0.0000000  0.0000000  3
  11523  11512  11513  11532     1  0.0000000  0.6508444  3
  11526  11523  11512  11530     1  0.0000000  1.0460000  1
  11526  11523  11512  11530     1  0.0000000  0.0000000  3
  11526  11523  11528  11529     1  0.0000000  0.6973333  3
  11527  11523  11512  11530     1  0.0000000  1.0460000  1
  11527  11523  11512  11530     1  0.0000000  0.0000000  3
  11527  11523  11528  11529     1  0.0000000  0.6973333  3
  11530  11512  11513  11532     1  0.0000000  1.0460000  1
  11530  11512  11513  11532     1  0.0000000  0.0000000  3
  11530  11517  11521  11531     1  0.0000000  0.6973333  3
  11532  11513  11533  11534     1  0.0000000  0.6973333  3
  11536  11538  11540  11542     1  0.0000000  0.6508444  3
  11536  11538  11540  11543     1  0.0000000  0.6508444  3
  11537  11536  11538  11540     1  0.0000000  0.0000000  2
  11537  11536  11538  11539     1  0.0000000  0.0000000  2
  11537  11536  11538  11541     1  0.0000000  0.0000000  2
  11539  11538  11540  11544     1  0.0000000  0.6508444  3
  11539  11538  11540  11542     1  0.0000000  0.6508444  3
  11539  11538  11540  11543     1  0.0000000  0.6508444  3
  11540  11544  11545  11554     1  0.0000000  1.2552000  3
  11540  11544  11545  11555     1  0.0000000  1.2552000  3
  11540  11544  11546  11547     1  0.0000000  1.2552000  3
  11540  11544  11546  11549     1  0.0000000  1.2552000  3
  11541  11538  11540  11544     1  0.0000000  0.6508444  3
  11541  11538  11540  11542     1  0.0000000  0.6508444  3
  11541  11538  11540  11543     1  0.0000000  0.6508444  3
  11542  11540  11544  11545     1  0.0000000  1.2552000  3
  11542  11540  11544  11546     1  0.0000000  1.2552000  3
  11543  11540  11544  11545     1  0.0000000  1.2552000  3
  11543  11540  11544  11546     1  0.0000000  1.2552000  3
  11544  11545  11556  11557     1  0.0000000  0.6508444  3
  11544  11545  11556  11558     1  0.0000000  0.6508444  3
  11544  11546  11548  11550     1  0.0000000  0.6508444  3
  11544  11546  11548  11551     1  0.0000000  0.6508444  3
  11545  11544  11546  11547     1  0.0000000  1.2552000  3
  11545  11544  11546  11549     1  0.0000000  1.2552000  3
  11546  11544  11545  11554     1  0.0000000  1.2552000  3
  11546  11544  11545  11555     1  0.0000000  1.2552000  3
  11547  11546  11548  11552     1  0.0000000  0.6508444  3
  11547  11546  11548  11550     1  0.0000000  0.6508444  3
  11547  11546  11548  11551     1  0.0000000  0.6508444  3
  11548  11552  11584  11574     1  180.0000771  6.0668000  2
  11548  11552  11584  11574     1  180.0000771  1.4644000  4
  11549  11546  11548  11552     1  0.0000000  0.6508444  3
  11549  11546  11548  11550     1  0.0000000  0.6508444  3
  11549  11546  11548  11551     1  0.0000000  0.6508444  3
  11550  11548  11552  11553     1  0.0000000  3.3472000  1
  11550  11548  11552  11553     1  0.0000000  0.0000000  2
  11550  11548  11552  11553     1  180.0000771  0.3347200  3
  11550  11548  11552  11584     1  180.0000771  0.0000000  2
  11551  11548  11552  11553     1  0.0000000  3.3472000  1
  11551  11548  11552  11553     1  0.0000000  0.0000000  2
  11551  11548  11552  11553     1  180.0000771  0.3347200  3
  11551  11548  11552  11584     1  180.0000771  0.0000000  2
  11552  11584  11565  11567     1  0.0000000  1.2552000  3
  11553  11552  11584  11574     1  180.0000771  6.0668000  2
  11553  11552  11584  11574     1  180.0000771  1.4644000  4
  11554  11545  11556  11559     1  0.0000000  0.6508444  3
  11554  11545  11556  11557     1  0.0000000  0.6508444  3
  11554  11545  11556  11558     1  0.0000000  0.6508444  3
  11555  11545  11556  11559     1  0.0000000  0.6508444  3
  11555  11545  11556  11557     1  0.0000000  0.6508444  3
  11555  11545  11556  11558     1  0.0000000  0.6508444  3
  11556  11559  11608  11598     1  180.0000771  6.0668000  2
  11556  11559  11608  11598     1  180.0000771  1.4644000  4
  11557  11556  11559  11560     1  0.0000000  3.3472000  1
  11557  11556  11559  11560     1  0.0000000  0.0000000  2
  11557  11556  11559  11560     1  180.0000771  0.3347200  3
  11557  11556  11559  11608     1  180.0000771  0.0000000  2
  11558  11556  11559  11560     1  0.0000000  3.3472000  1
  11558  11556  11559  11560     1  0.0000000  0.0000000  2
  11558  11556  11559  11560     1  180.0000771  0.3347200  3
  11558  11556  11559  11608     1  180.0000771  0.0000000  2
  11559  11608  11589  11591     1  0.0000000  1.2552000  3
  11560  11559  11608  11598     1  180.0000771  6.0668000  2
  11560  11559  11608  11598     1  180.0000771  1.4644000  4
  11561  11562  11564  11568     1  0.0000000  0.6508444  3
  11561  11562  11582  11583     1  0.0000000  1.0460000  1
  11561  11562  11582  11583     1  0.0000000  0.6694400  3
  11561  11572  11577  11578     1  0.0000000  1.0460000  1
  11561  11572  11577  11578     1  0.0000000  0.6694400  3
  11561  11579  11566  11569     1  0.0000000  1.6038667  3
  11562  11564  11565  11567     1  0.0000000  0.6508444  3
  11562  11564  11571  11573     1  0.0000000  1.0460000  1
  11562  11564  11571  11573     1  0.0000000  0.6694400  3
  11562  11561  11572  11575     1  0.0000000  0.6508444  3
  11562  11561  11572  11576     1  0.0000000  0.6508444  3
  11563  11561  11562  11564     1  0.0000000  0.6508444  3
  11563  11561  11562  11582     1  0.0000000  1.0460000  1
  11563  11561  11562  11582     1  0.0000000  0.0000000  3
  11563  11561  11562  11581     1  0.0000000  0.6508444  3
  11563  11561  11572  11577     1  0.0000000  1.0460000  1
  11563  11561  11572  11577     1  0.0000000  0.0000000  3
  11563  11561  11572  11575     1  0.0000000  0.6508444  3
  11563  11561  11572  11576     1  0.0000000  0.6508444  3
  11563  11561  11579  11566     1  0.0000000  1.6038667  3
  11564  11565  11566  11569     1  0.0000000  0.6508444  3
  11564  11565  11584  11574     1  0.0000000  1.2552000  3
  11564  11562  11582  11583     1  0.0000000  1.0460000  1
  11564  11562  11582  11583     1  0.0000000  0.6694400  3
  11565  11566  11570  11580     1  0.0000000  1.0460000  1
  11565  11566  11570  11580     1  0.0000000  0.6694400  3
  11565  11564  11571  11573     1  0.0000000  1.0460000  1
  11565  11564  11571  11573     1  0.0000000  0.6694400  3
  11565  11564  11562  11581     1  0.0000000  0.6508444  3
  11566  11565  11584  11574     1  0.0000000  1.2552000  3
  11566  11565  11564  11568     1  0.0000000  0.6508444  3
  11567  11565  11566  11570     1  0.0000000  1.0460000  1
  11567  11565  11566  11570     1  0.0000000  0.0000000  3
  11567  11565  11566  11579     1  0.0000000  1.0460000  1
  11567  11565  11566  11579     1  0.0000000  0.0000000  3
  11567  11565  11566  11569     1  0.0000000  0.6508444  3
  11567  11565  11584  11574     1  0.0000000  1.2552000  3
  11567  11565  11564  11571     1  0.0000000  1.0460000  1
  11567  11565  11564  11571     1  0.0000000  0.0000000  3
  11567  11565  11564  11568     1  0.0000000  0.6508444  3
  11568  11564  11565  11584     1  0.0000000  0.6508444  3
  11568  11564  11571  11573     1  0.0000000  0.6973333  3
  11568  11564  11562  11582     1  0.0000000  1.0460000  1
  11568  11564  11562  11582     1  0.0000000  0.0000000  3
  11568  11564  11562  11581     1  0.0000000  0.6508444  3
  11569  11566  11570  11580     1  0.0000000  0.6973333  3
  11569  11566  11565  11584     1  0.0000000  0.6508444  3
  11571  11564  11562  11581     1  0.0000000  1.0460000  1
  11571  11564  11562  11581     1  0.0000000  0.0000000  3
  11572  11561  11562  11581     1  0.0000000  0.6508444  3
  11575  11572  11577  11578     1  0.0000000  0.6973333  3
  11575  11572  11561  11579     1  0.0000000  1.0460000  1
  11575  11572  11561  11579     1  0.0000000  0.0000000  3
  11576  11572  11577  11578     1  0.0000000  0.6973333  3
  11576  11572  11561  11579     1  0.0000000  1.0460000  1
  11576  11572  11561  11579     1  0.0000000  0.0000000  3
  11579  11566  11570  11580     1  0.0000000  0.6973333  3
  11579  11561  11562  11581     1  0.0000000  1.0460000  1
  11579  11561  11562  11581     1  0.0000000  0.0000000  3
  11581  11562  11582  11583     1  0.0000000  0.6973333  3
  11585  11586  11588  11592     1  0.0000000  0.6508444  3
  11585  11586  11606  11607     1  0.0000000  1.0460000  1
  11585  11586  11606  11607     1  0.0000000  0.6694400  3
  11585  11596  11601  11602     1  0.0000000  1.0460000  1
  11585  11596  11601  11602     1  0.0000000  0.6694400  3
  11585  11603  11590  11593     1  0.0000000  1.6038667  3
  11586  11588  11589  11591     1  0.0000000  0.6508444  3
  11586  11588  11595  11597     1  0.0000000  1.0460000  1
  11586  11588  11595  11597     1  0.0000000  0.6694400  3
  11586  11585  11596  11599     1  0.0000000  0.6508444  3
  11586  11585  11596  11600     1  0.0000000  0.6508444  3
  11587  11585  11586  11588     1  0.0000000  0.6508444  3
  11587  11585  11586  11606     1  0.0000000  1.0460000  1
  11587  11585  11586  11606     1  0.0000000  0.0000000  3
  11587  11585  11586  11605     1  0.0000000  0.6508444  3
  11587  11585  11596  11601     1  0.0000000  1.0460000  1
  11587  11585  11596  11601     1  0.0000000  0.0000000  3
  11587  11585  11596  11599     1  0.0000000  0.6508444  3
  11587  11585  11596  11600     1  0.0000000  0.6508444  3
  11587  11585  11603  11590     1  0.0000000  1.6038667  3
  11588  11589  11590  11593     1  0.0000000  0.6508444  3
  11588  11589  11608  11598     1  0.0000000  1.2552000  3
  11588  11586  11606  11607     1  0.0000000  1.0460000  1
  11588  11586  11606  11607     1  0.0000000  0.6694400  3
  11589  11590  11594  11604     1  0.0000000  1.0460000  1
  11589  11590  11594  11604     1  0.0000000  0.6694400  3
  11589  11588  11595  11597     1  0.0000000  1.0460000  1
  11589  11588  11595  11597     1  0.0000000  0.6694400  3
  11589  11588  11586  11605     1  0.0000000  0.6508444  3
  11590  11589  11608  11598     1  0.0000000  1.2552000  3
  11590  11589  11588  11592     1  0.0000000  0.6508444  3
  11591  11589  11590  11594     1  0.0000000  1.0460000  1
  11591  11589  11590  11594     1  0.0000000  0.0000000  3
  11591  11589  11590  11603     1  0.0000000  1.0460000  1
  11591  11589  11590  11603     1  0.0000000  0.0000000  3
  11591  11589  11590  11593     1  0.0000000  0.6508444  3
  11591  11589  11608  11598     1  0.0000000  1.2552000  3
  11591  11589  11588  11595     1  0.0000000  1.0460000  1
  11591  11589  11588  11595     1  0.0000000  0.0000000  3
  11591  11589  11588  11592     1  0.0000000  0.6508444  3
  11592  11588  11589  11608     1  0.0000000  0.6508444  3
  11592  11588  11595  11597     1  0.0000000  0.6973333  3
  11592  11588  11586  11606     1  0.0000000  1.0460000  1
  11592  11588  11586  11606     1  0.0000000  0.0000000  3
  11592  11588  11586  11605     1  0.0000000  0.6508444  3
  11593  11590  11594  11604     1  0.0000000  0.6973333  3
  11593  11590  11589  11608     1  0.0000000  0.6508444  3
  11595  11588  11586  11605     1  0.0000000  1.0460000  1
  11595  11588  11586  11605     1  0.0000000  0.0000000  3
  11596  11585  11586  11605     1  0.0000000  0.6508444  3
  11599  11596  11601  11602     1  0.0000000  0.6973333  3
  11599  11596  11585  11603     1  0.0000000  1.0460000  1
  11599  11596  11585  11603     1  0.0000000  0.0000000  3
  11600  11596  11601  11602     1  0.0000000  0.6973333  3
  11600  11596  11585  11603     1  0.0000000  1.0460000  1
  11600  11596  11585  11603     1  0.0000000  0.0000000  3
  11603  11590  11594  11604     1  0.0000000  0.6973333  3
  11603  11585  11586  11605     1  0.0000000  1.0460000  1
  11603  11585  11586  11605     1  0.0000000  0.0000000  3
  11605  11586  11606  11607     1  0.0000000  0.6973333  3
  11609  11611  11613  11615     1  0.0000000  0.6508444  3
  11609  11611  11613  11616     1  0.0000000  0.6508444  3
  11610  11609  11611  11613     1  0.0000000  0.0000000  2
  11610  11609  11611  11612     1  0.0000000  0.0000000  2
  11610  11609  11611  11614     1  0.0000000  0.0000000  2
  11612  11611  11613  11617     1  0.0000000  0.6508444  3
  11612  11611  11613  11615     1  0.0000000  0.6508444  3
  11612  11611  11613  11616     1  0.0000000  0.6508444  3
  11613  11617  11618  11627     1  0.0000000  1.2552000  3
  11613  11617  11618  11628     1  0.0000000  1.2552000  3
  11613  11617  11619  11620     1  0.0000000  1.2552000  3
  11613  11617  11619  11622     1  0.0000000  1.2552000  3
  11614  11611  11613  11617     1  0.0000000  0.6508444  3
  11614  11611  11613  11615     1  0.0000000  0.6508444  3
  11614  11611  11613  11616     1  0.0000000  0.6508444  3
  11615  11613  11617  11618     1  0.0000000  1.2552000  3
  11615  11613  11617  11619     1  0.0000000  1.2552000  3
  11616  11613  11617  11618     1  0.0000000  1.2552000  3
  11616  11613  11617  11619     1  0.0000000  1.2552000  3
  11617  11618  11629  11630     1  0.0000000  0.6508444  3
  11617  11618  11629  11631     1  0.0000000  0.6508444  3
  11617  11619  11621  11623     1  0.0000000  0.6508444  3
  11617  11619  11621  11624     1  0.0000000  0.6508444  3
  11618  11617  11619  11620     1  0.0000000  1.2552000  3
  11618  11617  11619  11622     1  0.0000000  1.2552000  3
  11619  11617  11618  11627     1  0.0000000  1.2552000  3
  11619  11617  11618  11628     1  0.0000000  1.2552000  3
  11620  11619  11621  11625     1  0.0000000  0.6508444  3
  11620  11619  11621  11623     1  0.0000000  0.6508444  3
  11620  11619  11621  11624     1  0.0000000  0.6508444  3
  11621  11625  11657  11647     1  180.0000771  6.0668000  2
  11621  11625  11657  11647     1  180.0000771  1.4644000  4
  11622  11619  11621  11625     1  0.0000000  0.6508444  3
  11622  11619  11621  11623     1  0.0000000  0.6508444  3
  11622  11619  11621  11624     1  0.0000000  0.6508444  3
  11623  11621  11625  11626     1  0.0000000  3.3472000  1
  11623  11621  11625  11626     1  0.0000000  0.0000000  2
  11623  11621  11625  11626     1  180.0000771  0.3347200  3
  11623  11621  11625  11657     1  180.0000771  0.0000000  2
  11624  11621  11625  11626     1  0.0000000  3.3472000  1
  11624  11621  11625  11626     1  0.0000000  0.0000000  2
  11624  11621  11625  11626     1  180.0000771  0.3347200  3
  11624  11621  11625  11657     1  180.0000771  0.0000000  2
  11625  11657  11638  11640     1  0.0000000  1.2552000  3
  11626  11625  11657  11647     1  180.0000771  6.0668000  2
  11626  11625  11657  11647     1  180.0000771  1.4644000  4
  11627  11618  11629  11632     1  0.0000000  0.6508444  3
  11627  11618  11629  11630     1  0.0000000  0.6508444  3
  11627  11618  11629  11631     1  0.0000000  0.6508444  3
  11628  11618  11629  11632     1  0.0000000  0.6508444  3
  11628  11618  11629  11630     1  0.0000000  0.6508444  3
  11628  11618  11629  11631     1  0.0000000  0.6508444  3
  11629  11632  11681  11671     1  180.0000771  6.0668000  2
  11629  11632  11681  11671     1  180.0000771  1.4644000  4
  11630  11629  11632  11633     1  0.0000000  3.3472000  1
  11630  11629  11632  11633     1  0.0000000  0.0000000  2
  11630  11629  11632  11633     1  180.0000771  0.3347200  3
  11630  11629  11632  11681     1  180.0000771  0.0000000  2
  11631  11629  11632  11633     1  0.0000000  3.3472000  1
  11631  11629  11632  11633     1  0.0000000  0.0000000  2
  11631  11629  11632  11633     1  180.0000771  0.3347200  3
  11631  11629  11632  11681     1  180.0000771  0.0000000  2
  11632  11681  11662  11664     1  0.0000000  1.2552000  3
  11633  11632  11681  11671     1  180.0000771  6.0668000  2
  11633  11632  11681  11671     1  180.0000771  1.4644000  4
  11634  11635  11637  11641     1  0.0000000  0.6508444  3
  11634  11635  11655  11656     1  0.0000000  1.0460000  1
  11634  11635  11655  11656     1  0.0000000  0.6694400  3
  11634  11645  11650  11651     1  0.0000000  1.0460000  1
  11634  11645  11650  11651     1  0.0000000  0.6694400  3
  11634  11652  11639  11642     1  0.0000000  1.6038667  3
  11635  11634  11645  11648     1  0.0000000  0.6508444  3
  11635  11634  11645  11649     1  0.0000000  0.6508444  3
  11635  11637  11638  11640     1  0.0000000  0.6508444  3
  11635  11637  11644  11646     1  0.0000000  1.0460000  1
  11635  11637  11644  11646     1  0.0000000  0.6694400  3
  11636  11634  11635  11637     1  0.0000000  0.6508444  3
  11636  11634  11635  11655     1  0.0000000  1.0460000  1
  11636  11634  11635  11655     1  0.0000000  0.0000000  3
  11636  11634  11635  11654     1  0.0000000  0.6508444  3
  11636  11634  11645  11650     1  0.0000000  1.0460000  1
  11636  11634  11645  11650     1  0.0000000  0.0000000  3
  11636  11634  11645  11648     1  0.0000000  0.6508444  3
  11636  11634  11645  11649     1  0.0000000  0.6508444  3
  11636  11634  11652  11639     1  0.0000000  1.6038667  3
  11637  11635  11655  11656     1  0.0000000  1.0460000  1
  11637  11635  11655  11656     1  0.0000000  0.6694400  3
  11637  11638  11639  11642     1  0.0000000  0.6508444  3
  11637  11638  11657  11647     1  0.0000000  1.2552000  3
  11638  11637  11635  11654     1  0.0000000  0.6508444  3
  11638  11637  11644  11646     1  0.0000000  1.0460000  1
  11638  11637  11644  11646     1  0.0000000  0.6694400  3
  11638  11639  11643  11653     1  0.0000000  1.0460000  1
  11638  11639  11643  11653     1  0.0000000  0.6694400  3
  11639  11638  11637  11641     1  0.0000000  0.6508444  3
  11639  11638  11657  11647     1  0.0000000  1.2552000  3
  11640  11638  11637  11644     1  0.0000000  1.0460000  1
  11640  11638  11637  11644     1  0.0000000  0.0000000  3
  11640  11638  11637  11641     1  0.0000000  0.6508444  3
  11640  11638  11639  11643     1  0.0000000  1.0460000  1
  11640  11638  11639  11643     1  0.0000000  0.0000000  3
  11640  11638  11639  11652     1  0.0000000  1.0460000  1
  11640  11638  11639  11652     1  0.0000000  0.0000000  3
  11640  11638  11639  11642     1  0.0000000  0.6508444  3
  11640  11638  11657  11647     1  0.0000000  1.2552000  3
  11641  11637  11635  11655     1  0.0000000  1.0460000  1
  11641  11637  11635  11655     1  0.0000000  0.0000000  3
  11641  11637  11635  11654     1  0.0000000  0.6508444  3
  11641  11637  11638  11657     1  0.0000000  0.6508444  3
  11641  11637  11644  11646     1  0.0000000  0.6973333  3
  11642  11639  11638  11657     1  0.0000000  0.6508444  3
  11642  11639  11643  11653     1  0.0000000  0.6973333  3
  11644  11637  11635  11654     1  0.0000000  1.0460000  1
  11644  11637  11635  11654     1  0.0000000  0.0000000  3
  11645  11634  11635  11654     1  0.0000000  0.6508444  3
  11648  11645  11634  11652     1  0.0000000  1.0460000  1
  11648  11645  11634  11652     1  0.0000000  0.0000000  3
  11648  11645  11650  11651     1  0.0000000  0.6973333  3
  11649  11645  11634  11652     1  0.0000000  1.0460000  1
  11649  11645  11634  11652     1  0.0000000  0.0000000  3
  11649  11645  11650  11651     1  0.0000000  0.6973333  3
  11652  11634  11635  11654     1  0.0000000  1.0460000  1
  11652  11634  11635  11654     1  0.0000000  0.0000000  3
  11652  11639  11643  11653     1  0.0000000  0.6973333  3
  11654  11635  11655  11656     1  0.0000000  0.6973333  3
  11658  11659  11661  11665     1  0.0000000  0.6508444  3
  11658  11659  11679  11680     1  0.0000000  1.0460000  1
  11658  11659  11679  11680     1  0.0000000  0.6694400  3
  11658  11669  11674  11675     1  0.0000000  1.0460000  1
  11658  11669  11674  11675     1  0.0000000  0.6694400  3
  11658  11676  11663  11666     1  0.0000000  1.6038667  3
  11659  11658  11669  11672     1  0.0000000  0.6508444  3
  11659  11658  11669  11673     1  0.0000000  0.6508444  3
  11659  11661  11662  11664     1  0.0000000  0.6508444  3
  11659  11661  11668  11670     1  0.0000000  1.0460000  1
  11659  11661  11668  11670     1  0.0000000  0.6694400  3
  11660  11658  11659  11661     1  0.0000000  0.6508444  3
  11660  11658  11659  11679     1  0.0000000  1.0460000  1
  11660  11658  11659  11679     1  0.0000000  0.0000000  3
  11660  11658  11659  11678     1  0.0000000  0.6508444  3
  11660  11658  11669  11674     1  0.0000000  1.0460000  1
  11660  11658  11669  11674     1  0.0000000  0.0000000  3
  11660  11658  11669  11672     1  0.0000000  0.6508444  3
  11660  11658  11669  11673     1  0.0000000  0.6508444  3
  11660  11658  11676  11663     1  0.0000000  1.6038667  3
  11661  11659  11679  11680     1  0.0000000  1.0460000  1
  11661  11659  11679  11680     1  0.0000000  0.6694400  3
  11661  11662  11663  11666     1  0.0000000  0.6508444  3
  11661  11662  11681  11671     1  0.0000000  1.2552000  3
  11662  11661  11659  11678     1  0.0000000  0.6508444  3
  11662  11661  11668  11670     1  0.0000000  1.0460000  1
  11662  11661  11668  11670     1  0.0000000  0.6694400  3
  11662  11663  11667  11677     1  0.0000000  1.0460000  1
  11662  11663  11667  11677     1  0.0000000  0.6694400  3
  11663  11662  11661  11665     1  0.0000000  0.6508444  3
  11663  11662  11681  11671     1  0.0000000  1.2552000  3
  11664  11662  11661  11668     1  0.0000000  1.0460000  1
  11664  11662  11661  11668     1  0.0000000  0.0000000  3
  11664  11662  11661  11665     1  0.0000000  0.6508444  3
  11664  11662  11663  11667     1  0.0000000  1.0460000  1
  11664  11662  11663  11667     1  0.0000000  0.0000000  3
  11664  11662  11663  11676     1  0.0000000  1.0460000  1
  11664  11662  11663  11676     1  0.0000000  0.0000000  3
  11664  11662  11663  11666     1  0.0000000  0.6508444  3
  11664  11662  11681  11671     1  0.0000000  1.2552000  3
  11665  11661  11659  11679     1  0.0000000  1.0460000  1
  11665  11661  11659  11679     1  0.0000000  0.0000000  3
  11665  11661  11659  11678     1  0.0000000  0.6508444  3
  11665  11661  11662  11681     1  0.0000000  0.6508444  3
  11665  11661  11668  11670     1  0.0000000  0.6973333  3
  11666  11663  11662  11681     1  0.0000000  0.6508444  3
  11666  11663  11667  11677     1  0.0000000  0.6973333  3
  11668  11661  11659  11678     1  0.0000000  1.0460000  1
  11668  11661  11659  11678     1  0.0000000  0.0000000  3
  11669  11658  11659  11678     1  0.0000000  0.6508444  3
  11672  11669  11658  11676     1  0.0000000  1.0460000  1
  11672  11669  11658  11676     1  0.0000000  0.0000000  3
  11672  11669  11674  11675     1  0.0000000  0.6973333  3
  11673  11669  11658  11676     1  0.0000000  1.0460000  1
  11673  11669  11658  11676     1  0.0000000  0.0000000  3
  11673  11669  11674  11675     1  0.0000000  0.6973333  3
  11676  11658  11659  11678     1  0.0000000  1.0460000  1
  11676  11658  11659  11678     1  0.0000000  0.0000000  3
  11676  11663  11667  11677     1  0.0000000  0.6973333  3
  11678  11659  11679  11680     1  0.0000000  0.6973333  3
  11682  11684  11686  11688     1  0.0000000  0.6508444  3
  11682  11684  11686  11689     1  0.0000000  0.6508444  3
  11683  11682  11684  11686     1  0.0000000  0.0000000  2
  11683  11682  11684  11685     1  0.0000000  0.0000000  2
  11683  11682  11684  11687     1  0.0000000  0.0000000  2
  11685  11684  11686  11690     1  0.0000000  0.6508444  3
  11685  11684  11686  11688     1  0.0000000  0.6508444  3
  11685  11684  11686  11689     1  0.0000000  0.6508444  3
  11686  11690  11691  11700     1  0.0000000  1.2552000  3
  11686  11690  11691  11701     1  0.0000000  1.2552000  3
  11686  11690  11692  11693     1  0.0000000  1.2552000  3
  11686  11690  11692  11695     1  0.0000000  1.2552000  3
  11687  11684  11686  11690     1  0.0000000  0.6508444  3
  11687  11684  11686  11688     1  0.0000000  0.6508444  3
  11687  11684  11686  11689     1  0.0000000  0.6508444  3
  11688  11686  11690  11691     1  0.0000000  1.2552000  3
  11688  11686  11690  11692     1  0.0000000  1.2552000  3
  11689  11686  11690  11691     1  0.0000000  1.2552000  3
  11689  11686  11690  11692     1  0.0000000  1.2552000  3
  11690  11691  11702  11703     1  0.0000000  0.6508444  3
  11690  11691  11702  11704     1  0.0000000  0.6508444  3
  11690  11692  11694  11696     1  0.0000000  0.6508444  3
  11690  11692  11694  11697     1  0.0000000  0.6508444  3
  11691  11690  11692  11693     1  0.0000000  1.2552000  3
  11691  11690  11692  11695     1  0.0000000  1.2552000  3
  11692  11690  11691  11700     1  0.0000000  1.2552000  3
  11692  11690  11691  11701     1  0.0000000  1.2552000  3
  11693  11692  11694  11698     1  0.0000000  0.6508444  3
  11693  11692  11694  11696     1  0.0000000  0.6508444  3
  11693  11692  11694  11697     1  0.0000000  0.6508444  3
  11694  11698  11730  11720     1  180.0000771  6.0668000  2
  11694  11698  11730  11720     1  180.0000771  1.4644000  4
  11695  11692  11694  11698     1  0.0000000  0.6508444  3
  11695  11692  11694  11696     1  0.0000000  0.6508444  3
  11695  11692  11694  11697     1  0.0000000  0.6508444  3
  11696  11694  11698  11699     1  0.0000000  3.3472000  1
  11696  11694  11698  11699     1  0.0000000  0.0000000  2
  11696  11694  11698  11699     1  180.0000771  0.3347200  3
  11696  11694  11698  11730     1  180.0000771  0.0000000  2
  11697  11694  11698  11699     1  0.0000000  3.3472000  1
  11697  11694  11698  11699     1  0.0000000  0.0000000  2
  11697  11694  11698  11699     1  180.0000771  0.3347200  3
  11697  11694  11698  11730     1  180.0000771  0.0000000  2
  11698  11730  11711  11713     1  0.0000000  1.2552000  3
  11699  11698  11730  11720     1  180.0000771  6.0668000  2
  11699  11698  11730  11720     1  180.0000771  1.4644000  4
  11700  11691  11702  11705     1  0.0000000  0.6508444  3
  11700  11691  11702  11703     1  0.0000000  0.6508444  3
  11700  11691  11702  11704     1  0.0000000  0.6508444  3
  11701  11691  11702  11705     1  0.0000000  0.6508444  3
  11701  11691  11702  11703     1  0.0000000  0.6508444  3
  11701  11691  11702  11704     1  0.0000000  0.6508444  3
  11702  11705  11754  11744     1  180.0000771  6.0668000  2
  11702  11705  11754  11744     1  180.0000771  1.4644000  4
  11703  11702  11705  11706     1  0.0000000  3.3472000  1
  11703  11702  11705  11706     1  0.0000000  0.0000000  2
  11703  11702  11705  11706     1  180.0000771  0.3347200  3
  11703  11702  11705  11754     1  180.0000771  0.0000000  2
  11704  11702  11705  11706     1  0.0000000  3.3472000  1
  11704  11702  11705  11706     1  0.0000000  0.0000000  2
  11704  11702  11705  11706     1  180.0000771  0.3347200  3
  11704  11702  11705  11754     1  180.0000771  0.0000000  2
  11705  11754  11735  11737     1  0.0000000  1.2552000  3
  11706  11705  11754  11744     1  180.0000771  6.0668000  2
  11706  11705  11754  11744     1  180.0000771  1.4644000  4
  11707  11708  11710  11714     1  0.0000000  0.6508444  3
  11707  11708  11728  11729     1  0.0000000  1.0460000  1
  11707  11708  11728  11729     1  0.0000000  0.6694400  3
  11707  11718  11723  11724     1  0.0000000  1.0460000  1
  11707  11718  11723  11724     1  0.0000000  0.6694400  3
  11707  11725  11712  11715     1  0.0000000  1.6038667  3
  11708  11710  11711  11713     1  0.0000000  0.6508444  3
  11708  11710  11717  11719     1  0.0000000  1.0460000  1
  11708  11710  11717  11719     1  0.0000000  0.6694400  3
  11708  11707  11718  11721     1  0.0000000  0.6508444  3
  11708  11707  11718  11722     1  0.0000000  0.6508444  3
  11709  11707  11708  11710     1  0.0000000  0.6508444  3
  11709  11707  11708  11728     1  0.0000000  1.0460000  1
  11709  11707  11708  11728     1  0.0000000  0.0000000  3
  11709  11707  11708  11727     1  0.0000000  0.6508444  3
  11709  11707  11718  11723     1  0.0000000  1.0460000  1
  11709  11707  11718  11723     1  0.0000000  0.0000000  3
  11709  11707  11718  11721     1  0.0000000  0.6508444  3
  11709  11707  11718  11722     1  0.0000000  0.6508444  3
  11709  11707  11725  11712     1  0.0000000  1.6038667  3
  11710  11711  11712  11715     1  0.0000000  0.6508444  3
  11710  11711  11730  11720     1  0.0000000  1.2552000  3
  11710  11708  11728  11729     1  0.0000000  1.0460000  1
  11710  11708  11728  11729     1  0.0000000  0.6694400  3
  11711  11712  11716  11726     1  0.0000000  1.0460000  1
  11711  11712  11716  11726     1  0.0000000  0.6694400  3
  11711  11710  11717  11719     1  0.0000000  1.0460000  1
  11711  11710  11717  11719     1  0.0000000  0.6694400  3
  11711  11710  11708  11727     1  0.0000000  0.6508444  3
  11712  11711  11730  11720     1  0.0000000  1.2552000  3
  11712  11711  11710  11714     1  0.0000000  0.6508444  3
  11713  11711  11712  11716     1  0.0000000  1.0460000  1
  11713  11711  11712  11716     1  0.0000000  0.0000000  3
  11713  11711  11712  11725     1  0.0000000  1.0460000  1
  11713  11711  11712  11725     1  0.0000000  0.0000000  3
  11713  11711  11712  11715     1  0.0000000  0.6508444  3
  11713  11711  11730  11720     1  0.0000000  1.2552000  3
  11713  11711  11710  11717     1  0.0000000  1.0460000  1
  11713  11711  11710  11717     1  0.0000000  0.0000000  3
  11713  11711  11710  11714     1  0.0000000  0.6508444  3
  11714  11710  11711  11730     1  0.0000000  0.6508444  3
  11714  11710  11717  11719     1  0.0000000  0.6973333  3
  11714  11710  11708  11728     1  0.0000000  1.0460000  1
  11714  11710  11708  11728     1  0.0000000  0.0000000  3
  11714  11710  11708  11727     1  0.0000000  0.6508444  3
  11715  11712  11716  11726     1  0.0000000  0.6973333  3
  11715  11712  11711  11730     1  0.0000000  0.6508444  3
  11717  11710  11708  11727     1  0.0000000  1.0460000  1
  11717  11710  11708  11727     1  0.0000000  0.0000000  3
  11718  11707  11708  11727     1  0.0000000  0.6508444  3
  11721  11718  11723  11724     1  0.0000000  0.6973333  3
  11721  11718  11707  11725     1  0.0000000  1.0460000  1
  11721  11718  11707  11725     1  0.0000000  0.0000000  3
  11722  11718  11723  11724     1  0.0000000  0.6973333  3
  11722  11718  11707  11725     1  0.0000000  1.0460000  1
  11722  11718  11707  11725     1  0.0000000  0.0000000  3
  11725  11712  11716  11726     1  0.0000000  0.6973333  3
  11725  11707  11708  11727     1  0.0000000  1.0460000  1
  11725  11707  11708  11727     1  0.0000000  0.0000000  3
  11727  11708  11728  11729     1  0.0000000  0.6973333  3
  11731  11732  11734  11738     1  0.0000000  0.6508444  3
  11731  11732  11752  11753     1  0.0000000  1.0460000  1
  11731  11732  11752  11753     1  0.0000000  0.6694400  3
  11731  11742  11747  11748     1  0.0000000  1.0460000  1
  11731  11742  11747  11748     1  0.0000000  0.6694400  3
  11731  11749  11736  11739     1  0.0000000  1.6038667  3
  11732  11734  11735  11737     1  0.0000000  0.6508444  3
  11732  11734  11741  11743     1  0.0000000  1.0460000  1
  11732  11734  11741  11743     1  0.0000000  0.6694400  3
  11732  11731  11742  11745     1  0.0000000  0.6508444  3
  11732  11731  11742  11746     1  0.0000000  0.6508444  3
  11733  11731  11732  11734     1  0.0000000  0.6508444  3
  11733  11731  11732  11752     1  0.0000000  1.0460000  1
  11733  11731  11732  11752     1  0.0000000  0.0000000  3
  11733  11731  11732  11751     1  0.0000000  0.6508444  3
  11733  11731  11742  11747     1  0.0000000  1.0460000  1
  11733  11731  11742  11747     1  0.0000000  0.0000000  3
  11733  11731  11742  11745     1  0.0000000  0.6508444  3
  11733  11731  11742  11746     1  0.0000000  0.6508444  3
  11733  11731  11749  11736     1  0.0000000  1.6038667  3
  11734  11735  11736  11739     1  0.0000000  0.6508444  3
  11734  11735  11754  11744     1  0.0000000  1.2552000  3
  11734  11732  11752  11753     1  0.0000000  1.0460000  1
  11734  11732  11752  11753     1  0.0000000  0.6694400  3
  11735  11736  11740  11750     1  0.0000000  1.0460000  1
  11735  11736  11740  11750     1  0.0000000  0.6694400  3
  11735  11734  11741  11743     1  0.0000000  1.0460000  1
  11735  11734  11741  11743     1  0.0000000  0.6694400  3
  11735  11734  11732  11751     1  0.0000000  0.6508444  3
  11736  11735  11754  11744     1  0.0000000  1.2552000  3
  11736  11735  11734  11738     1  0.0000000  0.6508444  3
  11737  11735  11736  11740     1  0.0000000  1.0460000  1
  11737  11735  11736  11740     1  0.0000000  0.0000000  3
  11737  11735  11736  11749     1  0.0000000  1.0460000  1
  11737  11735  11736  11749     1  0.0000000  0.0000000  3
  11737  11735  11736  11739     1  0.0000000  0.6508444  3
  11737  11735  11754  11744     1  0.0000000  1.2552000  3
  11737  11735  11734  11741     1  0.0000000  1.0460000  1
  11737  11735  11734  11741     1  0.0000000  0.0000000  3
  11737  11735  11734  11738     1  0.0000000  0.6508444  3
  11738  11734  11735  11754     1  0.0000000  0.6508444  3
  11738  11734  11741  11743     1  0.0000000  0.6973333  3
  11738  11734  11732  11752     1  0.0000000  1.0460000  1
  11738  11734  11732  11752     1  0.0000000  0.0000000  3
  11738  11734  11732  11751     1  0.0000000  0.6508444  3
  11739  11736  11740  11750     1  0.0000000  0.6973333  3
  11739  11736  11735  11754     1  0.0000000  0.6508444  3
  11741  11734  11732  11751     1  0.0000000  1.0460000  1
  11741  11734  11732  11751     1  0.0000000  0.0000000  3
  11742  11731  11732  11751     1  0.0000000  0.6508444  3
  11745  11742  11747  11748     1  0.0000000  0.6973333  3
  11745  11742  11731  11749     1  0.0000000  1.0460000  1
  11745  11742  11731  11749     1  0.0000000  0.0000000  3
  11746  11742  11747  11748     1  0.0000000  0.6973333  3
  11746  11742  11731  11749     1  0.0000000  1.0460000  1
  11746  11742  11731  11749     1  0.0000000  0.0000000  3
  11749  11736  11740  11750     1  0.0000000  0.6973333  3
  11749  11731  11732  11751     1  0.0000000  1.0460000  1
  11749  11731  11732  11751     1  0.0000000  0.0000000  3
  11751  11732  11752  11753     1  0.0000000  0.6973333  3
  11755  11757  11759  11761     1  0.0000000  0.6508444  3
  11755  11757  11759  11762     1  0.0000000  0.6508444  3
  11756  11755  11757  11759     1  0.0000000  0.0000000  2
  11756  11755  11757  11758     1  0.0000000  0.0000000  2
  11756  11755  11757  11760     1  0.0000000  0.0000000  2
  11758  11757  11759  11763     1  0.0000000  0.6508444  3
  11758  11757  11759  11761     1  0.0000000  0.6508444  3
  11758  11757  11759  11762     1  0.0000000  0.6508444  3
  11759  11763  11764  11773     1  0.0000000  1.2552000  3
  11759  11763  11764  11774     1  0.0000000  1.2552000  3
  11759  11763  11765  11766     1  0.0000000  1.2552000  3
  11759  11763  11765  11768     1  0.0000000  1.2552000  3
  11760  11757  11759  11763     1  0.0000000  0.6508444  3
  11760  11757  11759  11761     1  0.0000000  0.6508444  3
  11760  11757  11759  11762     1  0.0000000  0.6508444  3
  11761  11759  11763  11764     1  0.0000000  1.2552000  3
  11761  11759  11763  11765     1  0.0000000  1.2552000  3
  11762  11759  11763  11764     1  0.0000000  1.2552000  3
  11762  11759  11763  11765     1  0.0000000  1.2552000  3
  11763  11764  11775  11776     1  0.0000000  0.6508444  3
  11763  11764  11775  11777     1  0.0000000  0.6508444  3
  11763  11765  11767  11769     1  0.0000000  0.6508444  3
  11763  11765  11767  11770     1  0.0000000  0.6508444  3
  11764  11763  11765  11766     1  0.0000000  1.2552000  3
  11764  11763  11765  11768     1  0.0000000  1.2552000  3
  11765  11763  11764  11773     1  0.0000000  1.2552000  3
  11765  11763  11764  11774     1  0.0000000  1.2552000  3
  11766  11765  11767  11771     1  0.0000000  0.6508444  3
  11766  11765  11767  11769     1  0.0000000  0.6508444  3
  11766  11765  11767  11770     1  0.0000000  0.6508444  3
  11767  11771  11803  11793     1  180.0000771  6.0668000  2
  11767  11771  11803  11793     1  180.0000771  1.4644000  4
  11768  11765  11767  11771     1  0.0000000  0.6508444  3
  11768  11765  11767  11769     1  0.0000000  0.6508444  3
  11768  11765  11767  11770     1  0.0000000  0.6508444  3
  11769  11767  11771  11772     1  0.0000000  3.3472000  1
  11769  11767  11771  11772     1  0.0000000  0.0000000  2
  11769  11767  11771  11772     1  180.0000771  0.3347200  3
  11769  11767  11771  11803     1  180.0000771  0.0000000  2
  11770  11767  11771  11772     1  0.0000000  3.3472000  1
  11770  11767  11771  11772     1  0.0000000  0.0000000  2
  11770  11767  11771  11772     1  180.0000771  0.3347200  3
  11770  11767  11771  11803     1  180.0000771  0.0000000  2
  11771  11803  11784  11786     1  0.0000000  1.2552000  3
  11772  11771  11803  11793     1  180.0000771  6.0668000  2
  11772  11771  11803  11793     1  180.0000771  1.4644000  4
  11773  11764  11775  11778     1  0.0000000  0.6508444  3
  11773  11764  11775  11776     1  0.0000000  0.6508444  3
  11773  11764  11775  11777     1  0.0000000  0.6508444  3
  11774  11764  11775  11778     1  0.0000000  0.6508444  3
  11774  11764  11775  11776     1  0.0000000  0.6508444  3
  11774  11764  11775  11777     1  0.0000000  0.6508444  3
  11775  11778  11827  11817     1  180.0000771  6.0668000  2
  11775  11778  11827  11817     1  180.0000771  1.4644000  4
  11776  11775  11778  11779     1  0.0000000  3.3472000  1
  11776  11775  11778  11779     1  0.0000000  0.0000000  2
  11776  11775  11778  11779     1  180.0000771  0.3347200  3
  11776  11775  11778  11827     1  180.0000771  0.0000000  2
  11777  11775  11778  11779     1  0.0000000  3.3472000  1
  11777  11775  11778  11779     1  0.0000000  0.0000000  2
  11777  11775  11778  11779     1  180.0000771  0.3347200  3
  11777  11775  11778  11827     1  180.0000771  0.0000000  2
  11778  11827  11808  11810     1  0.0000000  1.2552000  3
  11779  11778  11827  11817     1  180.0000771  6.0668000  2
  11779  11778  11827  11817     1  180.0000771  1.4644000  4
  11780  11781  11783  11787     1  0.0000000  0.6508444  3
  11780  11781  11801  11802     1  0.0000000  1.0460000  1
  11780  11781  11801  11802     1  0.0000000  0.6694400  3
  11780  11791  11796  11797     1  0.0000000  1.0460000  1
  11780  11791  11796  11797     1  0.0000000  0.6694400  3
  11780  11798  11785  11788     1  0.0000000  1.6038667  3
  11781  11780  11791  11794     1  0.0000000  0.6508444  3
  11781  11780  11791  11795     1  0.0000000  0.6508444  3
  11781  11783  11784  11786     1  0.0000000  0.6508444  3
  11781  11783  11790  11792     1  0.0000000  1.0460000  1
  11781  11783  11790  11792     1  0.0000000  0.6694400  3
  11782  11780  11781  11783     1  0.0000000  0.6508444  3
  11782  11780  11781  11801     1  0.0000000  1.0460000  1
  11782  11780  11781  11801     1  0.0000000  0.0000000  3
  11782  11780  11781  11800     1  0.0000000  0.6508444  3
  11782  11780  11791  11796     1  0.0000000  1.0460000  1
  11782  11780  11791  11796     1  0.0000000  0.0000000  3
  11782  11780  11791  11794     1  0.0000000  0.6508444  3
  11782  11780  11791  11795     1  0.0000000  0.6508444  3
  11782  11780  11798  11785     1  0.0000000  1.6038667  3
  11783  11781  11801  11802     1  0.0000000  1.0460000  1
  11783  11781  11801  11802     1  0.0000000  0.6694400  3
  11783  11784  11785  11788     1  0.0000000  0.6508444  3
  11783  11784  11803  11793     1  0.0000000  1.2552000  3
  11784  11783  11781  11800     1  0.0000000  0.6508444  3
  11784  11783  11790  11792     1  0.0000000  1.0460000  1
  11784  11783  11790  11792     1  0.0000000  0.6694400  3
  11784  11785  11789  11799     1  0.0000000  1.0460000  1
  11784  11785  11789  11799     1  0.0000000  0.6694400  3
  11785  11784  11783  11787     1  0.0000000  0.6508444  3
  11785  11784  11803  11793     1  0.0000000  1.2552000  3
  11786  11784  11783  11790     1  0.0000000  1.0460000  1
  11786  11784  11783  11790     1  0.0000000  0.0000000  3
  11786  11784  11783  11787     1  0.0000000  0.6508444  3
  11786  11784  11785  11789     1  0.0000000  1.0460000  1
  11786  11784  11785  11789     1  0.0000000  0.0000000  3
  11786  11784  11785  11798     1  0.0000000  1.0460000  1
  11786  11784  11785  11798     1  0.0000000  0.0000000  3
  11786  11784  11785  11788     1  0.0000000  0.6508444  3
  11786  11784  11803  11793     1  0.0000000  1.2552000  3
  11787  11783  11781  11801     1  0.0000000  1.0460000  1
  11787  11783  11781  11801     1  0.0000000  0.0000000  3
  11787  11783  11781  11800     1  0.0000000  0.6508444  3
  11787  11783  11784  11803     1  0.0000000  0.6508444  3
  11787  11783  11790  11792     1  0.0000000  0.6973333  3
  11788  11785  11784  11803     1  0.0000000  0.6508444  3
  11788  11785  11789  11799     1  0.0000000  0.6973333  3
  11790  11783  11781  11800     1  0.0000000  1.0460000  1
  11790  11783  11781  11800     1  0.0000000  0.0000000  3
  11791  11780  11781  11800     1  0.0000000  0.6508444  3
  11794  11791  11780  11798     1  0.0000000  1.0460000  1
  11794  11791  11780  11798     1  0.0000000  0.0000000  3
  11794  11791  11796  11797     1  0.0000000  0.6973333  3
  11795  11791  11780  11798     1  0.0000000  1.0460000  1
  11795  11791  11780  11798     1  0.0000000  0.0000000  3
  11795  11791  11796  11797     1  0.0000000  0.6973333  3
  11798  11780  11781  11800     1  0.0000000  1.0460000  1
  11798  11780  11781  11800     1  0.0000000  0.0000000  3
  11798  11785  11789  11799     1  0.0000000  0.6973333  3
  11800  11781  11801  11802     1  0.0000000  0.6973333  3
  11804  11805  11807  11811     1  0.0000000  0.6508444  3
  11804  11805  11825  11826     1  0.0000000  1.0460000  1
  11804  11805  11825  11826     1  0.0000000  0.6694400  3
  11804  11815  11820  11821     1  0.0000000  1.0460000  1
  11804  11815  11820  11821     1  0.0000000  0.6694400  3
  11804  11822  11809  11812     1  0.0000000  1.6038667  3
  11805  11804  11815  11818     1  0.0000000  0.6508444  3
  11805  11804  11815  11819     1  0.0000000  0.6508444  3
  11805  11807  11808  11810     1  0.0000000  0.6508444  3
  11805  11807  11814  11816     1  0.0000000  1.0460000  1
  11805  11807  11814  11816     1  0.0000000  0.6694400  3
  11806  11804  11805  11807     1  0.0000000  0.6508444  3
  11806  11804  11805  11825     1  0.0000000  1.0460000  1
  11806  11804  11805  11825     1  0.0000000  0.0000000  3
  11806  11804  11805  11824     1  0.0000000  0.6508444  3
  11806  11804  11815  11820     1  0.0000000  1.0460000  1
  11806  11804  11815  11820     1  0.0000000  0.0000000  3
  11806  11804  11815  11818     1  0.0000000  0.6508444  3
  11806  11804  11815  11819     1  0.0000000  0.6508444  3
  11806  11804  11822  11809     1  0.0000000  1.6038667  3
  11807  11805  11825  11826     1  0.0000000  1.0460000  1
  11807  11805  11825  11826     1  0.0000000  0.6694400  3
  11807  11808  11809  11812     1  0.0000000  0.6508444  3
  11807  11808  11827  11817     1  0.0000000  1.2552000  3
  11808  11807  11805  11824     1  0.0000000  0.6508444  3
  11808  11807  11814  11816     1  0.0000000  1.0460000  1
  11808  11807  11814  11816     1  0.0000000  0.6694400  3
  11808  11809  11813  11823     1  0.0000000  1.0460000  1
  11808  11809  11813  11823     1  0.0000000  0.6694400  3
  11809  11808  11807  11811     1  0.0000000  0.6508444  3
  11809  11808  11827  11817     1  0.0000000  1.2552000  3
  11810  11808  11807  11814     1  0.0000000  1.0460000  1
  11810  11808  11807  11814     1  0.0000000  0.0000000  3
  11810  11808  11807  11811     1  0.0000000  0.6508444  3
  11810  11808  11809  11813     1  0.0000000  1.0460000  1
  11810  11808  11809  11813     1  0.0000000  0.0000000  3
  11810  11808  11809  11822     1  0.0000000  1.0460000  1
  11810  11808  11809  11822     1  0.0000000  0.0000000  3
  11810  11808  11809  11812     1  0.0000000  0.6508444  3
  11810  11808  11827  11817     1  0.0000000  1.2552000  3
  11811  11807  11805  11825     1  0.0000000  1.0460000  1
  11811  11807  11805  11825     1  0.0000000  0.0000000  3
  11811  11807  11805  11824     1  0.0000000  0.6508444  3
  11811  11807  11808  11827     1  0.0000000  0.6508444  3
  11811  11807  11814  11816     1  0.0000000  0.6973333  3
  11812  11809  11808  11827     1  0.0000000  0.6508444  3
  11812  11809  11813  11823     1  0.0000000  0.6973333  3
  11814  11807  11805  11824     1  0.0000000  1.0460000  1
  11814  11807  11805  11824     1  0.0000000  0.0000000  3
  11815  11804  11805  11824     1  0.0000000  0.6508444  3
  11818  11815  11804  11822     1  0.0000000  1.0460000  1
  11818  11815  11804  11822     1  0.0000000  0.0000000  3
  11818  11815  11820  11821     1  0.0000000  0.6973333  3
  11819  11815  11804  11822     1  0.0000000  1.0460000  1
  11819  11815  11804  11822     1  0.0000000  0.0000000  3
  11819  11815  11820  11821     1  0.0000000  0.6973333  3
  11822  11804  11805  11824     1  0.0000000  1.0460000  1
  11822  11804  11805  11824     1  0.0000000  0.0000000  3
  11822  11809  11813  11823     1  0.0000000  0.6973333  3
  11824  11805  11825  11826     1  0.0000000  0.6973333  3
  11828  11830  11832  11834     1  0.0000000  0.6508444  3
  11828  11830  11832  11835     1  0.0000000  0.6508444  3
  11829  11828  11830  11832     1  0.0000000  0.0000000  2
  11829  11828  11830  11831     1  0.0000000  0.0000000  2
  11829  11828  11830  11833     1  0.0000000  0.0000000  2
  11831  11830  11832  11836     1  0.0000000  0.6508444  3
  11831  11830  11832  11834     1  0.0000000  0.6508444  3
  11831  11830  11832  11835     1  0.0000000  0.6508444  3
  11832  11836  11837  11846     1  0.0000000  1.2552000  3
  11832  11836  11837  11847     1  0.0000000  1.2552000  3
  11832  11836  11838  11839     1  0.0000000  1.2552000  3
  11832  11836  11838  11841     1  0.0000000  1.2552000  3
  11833  11830  11832  11836     1  0.0000000  0.6508444  3
  11833  11830  11832  11834     1  0.0000000  0.6508444  3
  11833  11830  11832  11835     1  0.0000000  0.6508444  3
  11834  11832  11836  11837     1  0.0000000  1.2552000  3
  11834  11832  11836  11838     1  0.0000000  1.2552000  3
  11835  11832  11836  11837     1  0.0000000  1.2552000  3
  11835  11832  11836  11838     1  0.0000000  1.2552000  3
  11836  11837  11848  11849     1  0.0000000  0.6508444  3
  11836  11837  11848  11850     1  0.0000000  0.6508444  3
  11836  11838  11840  11842     1  0.0000000  0.6508444  3
  11836  11838  11840  11843     1  0.0000000  0.6508444  3
  11837  11836  11838  11839     1  0.0000000  1.2552000  3
  11837  11836  11838  11841     1  0.0000000  1.2552000  3
  11838  11836  11837  11846     1  0.0000000  1.2552000  3
  11838  11836  11837  11847     1  0.0000000  1.2552000  3
  11839  11838  11840  11844     1  0.0000000  0.6508444  3
  11839  11838  11840  11842     1  0.0000000  0.6508444  3
  11839  11838  11840  11843     1  0.0000000  0.6508444  3
  11840  11844  11876  11866     1  180.0000771  6.0668000  2
  11840  11844  11876  11866     1  180.0000771  1.4644000  4
  11841  11838  11840  11844     1  0.0000000  0.6508444  3
  11841  11838  11840  11842     1  0.0000000  0.6508444  3
  11841  11838  11840  11843     1  0.0000000  0.6508444  3
  11842  11840  11844  11845     1  0.0000000  3.3472000  1
  11842  11840  11844  11845     1  0.0000000  0.0000000  2
  11842  11840  11844  11845     1  180.0000771  0.3347200  3
  11842  11840  11844  11876     1  180.0000771  0.0000000  2
  11843  11840  11844  11845     1  0.0000000  3.3472000  1
  11843  11840  11844  11845     1  0.0000000  0.0000000  2
  11843  11840  11844  11845     1  180.0000771  0.3347200  3
  11843  11840  11844  11876     1  180.0000771  0.0000000  2
  11844  11876  11857  11859     1  0.0000000  1.2552000  3
  11845  11844  11876  11866     1  180.0000771  6.0668000  2
  11845  11844  11876  11866     1  180.0000771  1.4644000  4
  11846  11837  11848  11851     1  0.0000000  0.6508444  3
  11846  11837  11848  11849     1  0.0000000  0.6508444  3
  11846  11837  11848  11850     1  0.0000000  0.6508444  3
  11847  11837  11848  11851     1  0.0000000  0.6508444  3
  11847  11837  11848  11849     1  0.0000000  0.6508444  3
  11847  11837  11848  11850     1  0.0000000  0.6508444  3
  11848  11851  11900  11890     1  180.0000771  6.0668000  2
  11848  11851  11900  11890     1  180.0000771  1.4644000  4
  11849  11848  11851  11852     1  0.0000000  3.3472000  1
  11849  11848  11851  11852     1  0.0000000  0.0000000  2
  11849  11848  11851  11852     1  180.0000771  0.3347200  3
  11849  11848  11851  11900     1  180.0000771  0.0000000  2
  11850  11848  11851  11852     1  0.0000000  3.3472000  1
  11850  11848  11851  11852     1  0.0000000  0.0000000  2
  11850  11848  11851  11852     1  180.0000771  0.3347200  3
  11850  11848  11851  11900     1  180.0000771  0.0000000  2
  11851  11900  11881  11883     1  0.0000000  1.2552000  3
  11852  11851  11900  11890     1  180.0000771  6.0668000  2
  11852  11851  11900  11890     1  180.0000771  1.4644000  4
  11853  11854  11856  11860     1  0.0000000  0.6508444  3
  11853  11854  11874  11875     1  0.0000000  1.0460000  1
  11853  11854  11874  11875     1  0.0000000  0.6694400  3
  11853  11864  11869  11870     1  0.0000000  1.0460000  1
  11853  11864  11869  11870     1  0.0000000  0.6694400  3
  11853  11871  11858  11861     1  0.0000000  1.6038667  3
  11854  11856  11857  11859     1  0.0000000  0.6508444  3
  11854  11856  11863  11865     1  0.0000000  1.0460000  1
  11854  11856  11863  11865     1  0.0000000  0.6694400  3
  11854  11853  11864  11867     1  0.0000000  0.6508444  3
  11854  11853  11864  11868     1  0.0000000  0.6508444  3
  11855  11853  11854  11856     1  0.0000000  0.6508444  3
  11855  11853  11854  11874     1  0.0000000  1.0460000  1
  11855  11853  11854  11874     1  0.0000000  0.0000000  3
  11855  11853  11854  11873     1  0.0000000  0.6508444  3
  11855  11853  11864  11869     1  0.0000000  1.0460000  1
  11855  11853  11864  11869     1  0.0000000  0.0000000  3
  11855  11853  11864  11867     1  0.0000000  0.6508444  3
  11855  11853  11864  11868     1  0.0000000  0.6508444  3
  11855  11853  11871  11858     1  0.0000000  1.6038667  3
  11856  11857  11858  11861     1  0.0000000  0.6508444  3
  11856  11857  11876  11866     1  0.0000000  1.2552000  3
  11856  11854  11874  11875     1  0.0000000  1.0460000  1
  11856  11854  11874  11875     1  0.0000000  0.6694400  3
  11857  11858  11862  11872     1  0.0000000  1.0460000  1
  11857  11858  11862  11872     1  0.0000000  0.6694400  3
  11857  11856  11863  11865     1  0.0000000  1.0460000  1
  11857  11856  11863  11865     1  0.0000000  0.6694400  3
  11857  11856  11854  11873     1  0.0000000  0.6508444  3
  11858  11857  11876  11866     1  0.0000000  1.2552000  3
  11858  11857  11856  11860     1  0.0000000  0.6508444  3
  11859  11857  11858  11862     1  0.0000000  1.0460000  1
  11859  11857  11858  11862     1  0.0000000  0.0000000  3
  11859  11857  11858  11871     1  0.0000000  1.0460000  1
  11859  11857  11858  11871     1  0.0000000  0.0000000  3
  11859  11857  11858  11861     1  0.0000000  0.6508444  3
  11859  11857  11876  11866     1  0.0000000  1.2552000  3
  11859  11857  11856  11863     1  0.0000000  1.0460000  1
  11859  11857  11856  11863     1  0.0000000  0.0000000  3
  11859  11857  11856  11860     1  0.0000000  0.6508444  3
  11860  11856  11857  11876     1  0.0000000  0.6508444  3
  11860  11856  11863  11865     1  0.0000000  0.6973333  3
  11860  11856  11854  11874     1  0.0000000  1.0460000  1
  11860  11856  11854  11874     1  0.0000000  0.0000000  3
  11860  11856  11854  11873     1  0.0000000  0.6508444  3
  11861  11858  11862  11872     1  0.0000000  0.6973333  3
  11861  11858  11857  11876     1  0.0000000  0.6508444  3
  11863  11856  11854  11873     1  0.0000000  1.0460000  1
  11863  11856  11854  11873     1  0.0000000  0.0000000  3
  11864  11853  11854  11873     1  0.0000000  0.6508444  3
  11867  11864  11869  11870     1  0.0000000  0.6973333  3
  11867  11864  11853  11871     1  0.0000000  1.0460000  1
  11867  11864  11853  11871     1  0.0000000  0.0000000  3
  11868  11864  11869  11870     1  0.0000000  0.6973333  3
  11868  11864  11853  11871     1  0.0000000  1.0460000  1
  11868  11864  11853  11871     1  0.0000000  0.0000000  3
  11871  11858  11862  11872     1  0.0000000  0.6973333  3
  11871  11853  11854  11873     1  0.0000000  1.0460000  1
  11871  11853  11854  11873     1  0.0000000  0.0000000  3
  11873  11854  11874  11875     1  0.0000000  0.6973333  3
  11877  11878  11880  11884     1  0.0000000  0.6508444  3
  11877  11878  11898  11899     1  0.0000000  1.0460000  1
  11877  11878  11898  11899     1  0.0000000  0.6694400  3
  11877  11888  11893  11894     1  0.0000000  1.0460000  1
  11877  11888  11893  11894     1  0.0000000  0.6694400  3
  11877  11895  11882  11885     1  0.0000000  1.6038667  3
  11878  11880  11881  11883     1  0.0000000  0.6508444  3
  11878  11880  11887  11889     1  0.0000000  1.0460000  1
  11878  11880  11887  11889     1  0.0000000  0.6694400  3
  11878  11877  11888  11891     1  0.0000000  0.6508444  3
  11878  11877  11888  11892     1  0.0000000  0.6508444  3
  11879  11877  11878  11880     1  0.0000000  0.6508444  3
  11879  11877  11878  11898     1  0.0000000  1.0460000  1
  11879  11877  11878  11898     1  0.0000000  0.0000000  3
  11879  11877  11878  11897     1  0.0000000  0.6508444  3
  11879  11877  11888  11893     1  0.0000000  1.0460000  1
  11879  11877  11888  11893     1  0.0000000  0.0000000  3
  11879  11877  11888  11891     1  0.0000000  0.6508444  3
  11879  11877  11888  11892     1  0.0000000  0.6508444  3
  11879  11877  11895  11882     1  0.0000000  1.6038667  3
  11880  11881  11882  11885     1  0.0000000  0.6508444  3
  11880  11881  11900  11890     1  0.0000000  1.2552000  3
  11880  11878  11898  11899     1  0.0000000  1.0460000  1
  11880  11878  11898  11899     1  0.0000000  0.6694400  3
  11881  11882  11886  11896     1  0.0000000  1.0460000  1
  11881  11882  11886  11896     1  0.0000000  0.6694400  3
  11881  11880  11887  11889     1  0.0000000  1.0460000  1
  11881  11880  11887  11889     1  0.0000000  0.6694400  3
  11881  11880  11878  11897     1  0.0000000  0.6508444  3
  11882  11881  11900  11890     1  0.0000000  1.2552000  3
  11882  11881  11880  11884     1  0.0000000  0.6508444  3
  11883  11881  11882  11886     1  0.0000000  1.0460000  1
  11883  11881  11882  11886     1  0.0000000  0.0000000  3
  11883  11881  11882  11895     1  0.0000000  1.0460000  1
  11883  11881  11882  11895     1  0.0000000  0.0000000  3
  11883  11881  11882  11885     1  0.0000000  0.6508444  3
  11883  11881  11900  11890     1  0.0000000  1.2552000  3
  11883  11881  11880  11887     1  0.0000000  1.0460000  1
  11883  11881  11880  11887     1  0.0000000  0.0000000  3
  11883  11881  11880  11884     1  0.0000000  0.6508444  3
  11884  11880  11881  11900     1  0.0000000  0.6508444  3
  11884  11880  11887  11889     1  0.0000000  0.6973333  3
  11884  11880  11878  11898     1  0.0000000  1.0460000  1
  11884  11880  11878  11898     1  0.0000000  0.0000000  3
  11884  11880  11878  11897     1  0.0000000  0.6508444  3
  11885  11882  11886  11896     1  0.0000000  0.6973333  3
  11885  11882  11881  11900     1  0.0000000  0.6508444  3
  11887  11880  11878  11897     1  0.0000000  1.0460000  1
  11887  11880  11878  11897     1  0.0000000  0.0000000  3
  11888  11877  11878  11897     1  0.0000000  0.6508444  3
  11891  11888  11893  11894     1  0.0000000  0.6973333  3
  11891  11888  11877  11895     1  0.0000000  1.0460000  1
  11891  11888  11877  11895     1  0.0000000  0.0000000  3
  11892  11888  11893  11894     1  0.0000000  0.6973333  3
  11892  11888  11877  11895     1  0.0000000  1.0460000  1
  11892  11888  11877  11895     1  0.0000000  0.0000000  3
  11895  11882  11886  11896     1  0.0000000  0.6973333  3
  11895  11877  11878  11897     1  0.0000000  1.0460000  1
  11895  11877  11878  11897     1  0.0000000  0.0000000  3
  11897  11878  11898  11899     1  0.0000000  0.6973333  3
  11901  11903  11905  11907     1  0.0000000  0.6508444  3
  11901  11903  11905  11908     1  0.0000000  0.6508444  3
  11902  11901  11903  11905     1  0.0000000  0.0000000  2
  11902  11901  11903  11904     1  0.0000000  0.0000000  2
  11902  11901  11903  11906     1  0.0000000  0.0000000  2
  11904  11903  11905  11909     1  0.0000000  0.6508444  3
  11904  11903  11905  11907     1  0.0000000  0.6508444  3
  11904  11903  11905  11908     1  0.0000000  0.6508444  3
  11905  11909  11910  11919     1  0.0000000  1.2552000  3
  11905  11909  11910  11920     1  0.0000000  1.2552000  3
  11905  11909  11911  11912     1  0.0000000  1.2552000  3
  11905  11909  11911  11914     1  0.0000000  1.2552000  3
  11906  11903  11905  11909     1  0.0000000  0.6508444  3
  11906  11903  11905  11907     1  0.0000000  0.6508444  3
  11906  11903  11905  11908     1  0.0000000  0.6508444  3
  11907  11905  11909  11910     1  0.0000000  1.2552000  3
  11907  11905  11909  11911     1  0.0000000  1.2552000  3
  11908  11905  11909  11910     1  0.0000000  1.2552000  3
  11908  11905  11909  11911     1  0.0000000  1.2552000  3
  11909  11910  11921  11922     1  0.0000000  0.6508444  3
  11909  11910  11921  11923     1  0.0000000  0.6508444  3
  11909  11911  11913  11915     1  0.0000000  0.6508444  3
  11909  11911  11913  11916     1  0.0000000  0.6508444  3
  11910  11909  11911  11912     1  0.0000000  1.2552000  3
  11910  11909  11911  11914     1  0.0000000  1.2552000  3
  11911  11909  11910  11919     1  0.0000000  1.2552000  3
  11911  11909  11910  11920     1  0.0000000  1.2552000  3
  11912  11911  11913  11917     1  0.0000000  0.6508444  3
  11912  11911  11913  11915     1  0.0000000  0.6508444  3
  11912  11911  11913  11916     1  0.0000000  0.6508444  3
  11913  11917  11949  11939     1  180.0000771  6.0668000  2
  11913  11917  11949  11939     1  180.0000771  1.4644000  4
  11914  11911  11913  11917     1  0.0000000  0.6508444  3
  11914  11911  11913  11915     1  0.0000000  0.6508444  3
  11914  11911  11913  11916     1  0.0000000  0.6508444  3
  11915  11913  11917  11918     1  0.0000000  3.3472000  1
  11915  11913  11917  11918     1  0.0000000  0.0000000  2
  11915  11913  11917  11918     1  180.0000771  0.3347200  3
  11915  11913  11917  11949     1  180.0000771  0.0000000  2
  11916  11913  11917  11918     1  0.0000000  3.3472000  1
  11916  11913  11917  11918     1  0.0000000  0.0000000  2
  11916  11913  11917  11918     1  180.0000771  0.3347200  3
  11916  11913  11917  11949     1  180.0000771  0.0000000  2
  11917  11949  11930  11932     1  0.0000000  1.2552000  3
  11918  11917  11949  11939     1  180.0000771  6.0668000  2
  11918  11917  11949  11939     1  180.0000771  1.4644000  4
  11919  11910  11921  11924     1  0.0000000  0.6508444  3
  11919  11910  11921  11922     1  0.0000000  0.6508444  3
  11919  11910  11921  11923     1  0.0000000  0.6508444  3
  11920  11910  11921  11924     1  0.0000000  0.6508444  3
  11920  11910  11921  11922     1  0.0000000  0.6508444  3
  11920  11910  11921  11923     1  0.0000000  0.6508444  3
  11921  11924  11973  11963     1  180.0000771  6.0668000  2
  11921  11924  11973  11963     1  180.0000771  1.4644000  4
  11922  11921  11924  11925     1  0.0000000  3.3472000  1
  11922  11921  11924  11925     1  0.0000000  0.0000000  2
  11922  11921  11924  11925     1  180.0000771  0.3347200  3
  11922  11921  11924  11973     1  180.0000771  0.0000000  2
  11923  11921  11924  11925     1  0.0000000  3.3472000  1
  11923  11921  11924  11925     1  0.0000000  0.0000000  2
  11923  11921  11924  11925     1  180.0000771  0.3347200  3
  11923  11921  11924  11973     1  180.0000771  0.0000000  2
  11924  11973  11954  11956     1  0.0000000  1.2552000  3
  11925  11924  11973  11963     1  180.0000771  6.0668000  2
  11925  11924  11973  11963     1  180.0000771  1.4644000  4
  11926  11927  11929  11933     1  0.0000000  0.6508444  3
  11926  11927  11947  11948     1  0.0000000  1.0460000  1
  11926  11927  11947  11948     1  0.0000000  0.6694400  3
  11926  11937  11942  11943     1  0.0000000  1.0460000  1
  11926  11937  11942  11943     1  0.0000000  0.6694400  3
  11926  11944  11931  11934     1  0.0000000  1.6038667  3
  11927  11926  11937  11940     1  0.0000000  0.6508444  3
  11927  11926  11937  11941     1  0.0000000  0.6508444  3
  11927  11929  11930  11932     1  0.0000000  0.6508444  3
  11927  11929  11936  11938     1  0.0000000  1.0460000  1
  11927  11929  11936  11938     1  0.0000000  0.6694400  3
  11928  11926  11927  11929     1  0.0000000  0.6508444  3
  11928  11926  11927  11947     1  0.0000000  1.0460000  1
  11928  11926  11927  11947     1  0.0000000  0.0000000  3
  11928  11926  11927  11946     1  0.0000000  0.6508444  3
  11928  11926  11937  11942     1  0.0000000  1.0460000  1
  11928  11926  11937  11942     1  0.0000000  0.0000000  3
  11928  11926  11937  11940     1  0.0000000  0.6508444  3
  11928  11926  11937  11941     1  0.0000000  0.6508444  3
  11928  11926  11944  11931     1  0.0000000  1.6038667  3
  11929  11927  11947  11948     1  0.0000000  1.0460000  1
  11929  11927  11947  11948     1  0.0000000  0.6694400  3
  11929  11930  11931  11934     1  0.0000000  0.6508444  3
  11929  11930  11949  11939     1  0.0000000  1.2552000  3
  11930  11929  11927  11946     1  0.0000000  0.6508444  3
  11930  11929  11936  11938     1  0.0000000  1.0460000  1
  11930  11929  11936  11938     1  0.0000000  0.6694400  3
  11930  11931  11935  11945     1  0.0000000  1.0460000  1
  11930  11931  11935  11945     1  0.0000000  0.6694400  3
  11931  11930  11929  11933     1  0.0000000  0.6508444  3
  11931  11930  11949  11939     1  0.0000000  1.2552000  3
  11932  11930  11929  11936     1  0.0000000  1.0460000  1
  11932  11930  11929  11936     1  0.0000000  0.0000000  3
  11932  11930  11929  11933     1  0.0000000  0.6508444  3
  11932  11930  11931  11935     1  0.0000000  1.0460000  1
  11932  11930  11931  11935     1  0.0000000  0.0000000  3
  11932  11930  11931  11944     1  0.0000000  1.0460000  1
  11932  11930  11931  11944     1  0.0000000  0.0000000  3
  11932  11930  11931  11934     1  0.0000000  0.6508444  3
  11932  11930  11949  11939     1  0.0000000  1.2552000  3
  11933  11929  11927  11947     1  0.0000000  1.0460000  1
  11933  11929  11927  11947     1  0.0000000  0.0000000  3
  11933  11929  11927  11946     1  0.0000000  0.6508444  3
  11933  11929  11930  11949     1  0.0000000  0.6508444  3
  11933  11929  11936  11938     1  0.0000000  0.6973333  3
  11934  11931  11930  11949     1  0.0000000  0.6508444  3
  11934  11931  11935  11945     1  0.0000000  0.6973333  3
  11936  11929  11927  11946     1  0.0000000  1.0460000  1
  11936  11929  11927  11946     1  0.0000000  0.0000000  3
  11937  11926  11927  11946     1  0.0000000  0.6508444  3
  11940  11937  11926  11944     1  0.0000000  1.0460000  1
  11940  11937  11926  11944     1  0.0000000  0.0000000  3
  11940  11937  11942  11943     1  0.0000000  0.6973333  3
  11941  11937  11926  11944     1  0.0000000  1.0460000  1
  11941  11937  11926  11944     1  0.0000000  0.0000000  3
  11941  11937  11942  11943     1  0.0000000  0.6973333  3
  11944  11926  11927  11946     1  0.0000000  1.0460000  1
  11944  11926  11927  11946     1  0.0000000  0.0000000  3
  11944  11931  11935  11945     1  0.0000000  0.6973333  3
  11946  11927  11947  11948     1  0.0000000  0.6973333  3
  11950  11951  11953  11957     1  0.0000000  0.6508444  3
  11950  11951  11971  11972     1  0.0000000  1.0460000  1
  11950  11951  11971  11972     1  0.0000000  0.6694400  3
  11950  11961  11966  11967     1  0.0000000  1.0460000  1
  11950  11961  11966  11967     1  0.0000000  0.6694400  3
  11950  11968  11955  11958     1  0.0000000  1.6038667  3
  11951  11950  11961  11964     1  0.0000000  0.6508444  3
  11951  11950  11961  11965     1  0.0000000  0.6508444  3
  11951  11953  11954  11956     1  0.0000000  0.6508444  3
  11951  11953  11960  11962     1  0.0000000  1.0460000  1
  11951  11953  11960  11962     1  0.0000000  0.6694400  3
  11952  11950  11951  11953     1  0.0000000  0.6508444  3
  11952  11950  11951  11971     1  0.0000000  1.0460000  1
  11952  11950  11951  11971     1  0.0000000  0.0000000  3
  11952  11950  11951  11970     1  0.0000000  0.6508444  3
  11952  11950  11961  11966     1  0.0000000  1.0460000  1
  11952  11950  11961  11966     1  0.0000000  0.0000000  3
  11952  11950  11961  11964     1  0.0000000  0.6508444  3
  11952  11950  11961  11965     1  0.0000000  0.6508444  3
  11952  11950  11968  11955     1  0.0000000  1.6038667  3
  11953  11951  11971  11972     1  0.0000000  1.0460000  1
  11953  11951  11971  11972     1  0.0000000  0.6694400  3
  11953  11954  11955  11958     1  0.0000000  0.6508444  3
  11953  11954  11973  11963     1  0.0000000  1.2552000  3
  11954  11953  11951  11970     1  0.0000000  0.6508444  3
  11954  11953  11960  11962     1  0.0000000  1.0460000  1
  11954  11953  11960  11962     1  0.0000000  0.6694400  3
  11954  11955  11959  11969     1  0.0000000  1.0460000  1
  11954  11955  11959  11969     1  0.0000000  0.6694400  3
  11955  11954  11953  11957     1  0.0000000  0.6508444  3
  11955  11954  11973  11963     1  0.0000000  1.2552000  3
  11956  11954  11953  11960     1  0.0000000  1.0460000  1
  11956  11954  11953  11960     1  0.0000000  0.0000000  3
  11956  11954  11953  11957     1  0.0000000  0.6508444  3
  11956  11954  11955  11959     1  0.0000000  1.0460000  1
  11956  11954  11955  11959     1  0.0000000  0.0000000  3
  11956  11954  11955  11968     1  0.0000000  1.0460000  1
  11956  11954  11955  11968     1  0.0000000  0.0000000  3
  11956  11954  11955  11958     1  0.0000000  0.6508444  3
  11956  11954  11973  11963     1  0.0000000  1.2552000  3
  11957  11953  11951  11971     1  0.0000000  1.0460000  1
  11957  11953  11951  11971     1  0.0000000  0.0000000  3
  11957  11953  11951  11970     1  0.0000000  0.6508444  3
  11957  11953  11954  11973     1  0.0000000  0.6508444  3
  11957  11953  11960  11962     1  0.0000000  0.6973333  3
  11958  11955  11954  11973     1  0.0000000  0.6508444  3
  11958  11955  11959  11969     1  0.0000000  0.6973333  3
  11960  11953  11951  11970     1  0.0000000  1.0460000  1
  11960  11953  11951  11970     1  0.0000000  0.0000000  3
  11961  11950  11951  11970     1  0.0000000  0.6508444  3
  11964  11961  11950  11968     1  0.0000000  1.0460000  1
  11964  11961  11950  11968     1  0.0000000  0.0000000  3
  11964  11961  11966  11967     1  0.0000000  0.6973333  3
  11965  11961  11950  11968     1  0.0000000  1.0460000  1
  11965  11961  11950  11968     1  0.0000000  0.0000000  3
  11965  11961  11966  11967     1  0.0000000  0.6973333  3
  11968  11950  11951  11970     1  0.0000000  1.0460000  1
  11968  11950  11951  11970     1  0.0000000  0.0000000  3
  11968  11955  11959  11969     1  0.0000000  0.6973333  3
  11970  11951  11971  11972     1  0.0000000  0.6973333  3
  11974  11976  11978  11980     1  0.0000000  0.6508444  3
  11974  11976  11978  11981     1  0.0000000  0.6508444  3
  11975  11974  11976  11978     1  0.0000000  0.0000000  2
  11975  11974  11976  11977     1  0.0000000  0.0000000  2
  11975  11974  11976  11979     1  0.0000000  0.0000000  2
  11977  11976  11978  11982     1  0.0000000  0.6508444  3
  11977  11976  11978  11980     1  0.0000000  0.6508444  3
  11977  11976  11978  11981     1  0.0000000  0.6508444  3
  11978  11982  11983  11992     1  0.0000000  1.2552000  3
  11978  11982  11983  11993     1  0.0000000  1.2552000  3
  11978  11982  11984  11985     1  0.0000000  1.2552000  3
  11978  11982  11984  11987     1  0.0000000  1.2552000  3
  11979  11976  11978  11982     1  0.0000000  0.6508444  3
  11979  11976  11978  11980     1  0.0000000  0.6508444  3
  11979  11976  11978  11981     1  0.0000000  0.6508444  3
  11980  11978  11982  11983     1  0.0000000  1.2552000  3
  11980  11978  11982  11984     1  0.0000000  1.2552000  3
  11981  11978  11982  11983     1  0.0000000  1.2552000  3
  11981  11978  11982  11984     1  0.0000000  1.2552000  3
  11982  11983  11994  11995     1  0.0000000  0.6508444  3
  11982  11983  11994  11996     1  0.0000000  0.6508444  3
  11982  11984  11986  11988     1  0.0000000  0.6508444  3
  11982  11984  11986  11989     1  0.0000000  0.6508444  3
  11983  11982  11984  11985     1  0.0000000  1.2552000  3
  11983  11982  11984  11987     1  0.0000000  1.2552000  3
  11984  11982  11983  11992     1  0.0000000  1.2552000  3
  11984  11982  11983  11993     1  0.0000000  1.2552000  3
  11985  11984  11986  11990     1  0.0000000  0.6508444  3
  11985  11984  11986  11988     1  0.0000000  0.6508444  3
  11985  11984  11986  11989     1  0.0000000  0.6508444  3
  11986  11990  12022  12012     1  180.0000771  6.0668000  2
  11986  11990  12022  12012     1  180.0000771  1.4644000  4
  11987  11984  11986  11990     1  0.0000000  0.6508444  3
  11987  11984  11986  11988     1  0.0000000  0.6508444  3
  11987  11984  11986  11989     1  0.0000000  0.6508444  3
  11988  11986  11990  11991     1  0.0000000  3.3472000  1
  11988  11986  11990  11991     1  0.0000000  0.0000000  2
  11988  11986  11990  11991     1  180.0000771  0.3347200  3
  11988  11986  11990  12022     1  180.0000771  0.0000000  2
  11989  11986  11990  11991     1  0.0000000  3.3472000  1
  11989  11986  11990  11991     1  0.0000000  0.0000000  2
  11989  11986  11990  11991     1  180.0000771  0.3347200  3
  11989  11986  11990  12022     1  180.0000771  0.0000000  2
  11990  12022  12003  12005     1  0.0000000  1.2552000  3
  11991  11990  12022  12012     1  180.0000771  6.0668000  2
  11991  11990  12022  12012     1  180.0000771  1.4644000  4
  11992  11983  11994  11997     1  0.0000000  0.6508444  3
  11992  11983  11994  11995     1  0.0000000  0.6508444  3
  11992  11983  11994  11996     1  0.0000000  0.6508444  3
  11993  11983  11994  11997     1  0.0000000  0.6508444  3
  11993  11983  11994  11995     1  0.0000000  0.6508444  3
  11993  11983  11994  11996     1  0.0000000  0.6508444  3
  11994  11997  12046  12036     1  180.0000771  6.0668000  2
  11994  11997  12046  12036     1  180.0000771  1.4644000  4
  11995  11994  11997  11998     1  0.0000000  3.3472000  1
  11995  11994  11997  11998     1  0.0000000  0.0000000  2
  11995  11994  11997  11998     1  180.0000771  0.3347200  3
  11995  11994  11997  12046     1  180.0000771  0.0000000  2
  11996  11994  11997  11998     1  0.0000000  3.3472000  1
  11996  11994  11997  11998     1  0.0000000  0.0000000  2
  11996  11994  11997  11998     1  180.0000771  0.3347200  3
  11996  11994  11997  12046     1  180.0000771  0.0000000  2
  11997  12046  12027  12029     1  0.0000000  1.2552000  3
  11998  11997  12046  12036     1  180.0000771  6.0668000  2
  11998  11997  12046  12036     1  180.0000771  1.4644000  4
  11999  12000  12002  12006     1  0.0000000  0.6508444  3
  11999  12000  12020  12021     1  0.0000000  1.0460000  1
  11999  12000  12020  12021     1  0.0000000  0.6694400  3
  11999  12010  12015  12016     1  0.0000000  1.0460000  1
  11999  12010  12015  12016     1  0.0000000  0.6694400  3
  11999  12017  12004  12007     1  0.0000000  1.6038667  3
  12000  12002  12003  12005     1  0.0000000  0.6508444  3
  12000  12002  12009  12011     1  0.0000000  1.0460000  1
  12000  12002  12009  12011     1  0.0000000  0.6694400  3
  12000  11999  12010  12013     1  0.0000000  0.6508444  3
  12000  11999  12010  12014     1  0.0000000  0.6508444  3
  12001  11999  12000  12002     1  0.0000000  0.6508444  3
  12001  11999  12000  12020     1  0.0000000  1.0460000  1
  12001  11999  12000  12020     1  0.0000000  0.0000000  3
  12001  11999  12000  12019     1  0.0000000  0.6508444  3
  12001  11999  12010  12015     1  0.0000000  1.0460000  1
  12001  11999  12010  12015     1  0.0000000  0.0000000  3
  12001  11999  12010  12013     1  0.0000000  0.6508444  3
  12001  11999  12010  12014     1  0.0000000  0.6508444  3
  12001  11999  12017  12004     1  0.0000000  1.6038667  3
  12002  12003  12004  12007     1  0.0000000  0.6508444  3
  12002  12003  12022  12012     1  0.0000000  1.2552000  3
  12002  12000  12020  12021     1  0.0000000  1.0460000  1
  12002  12000  12020  12021     1  0.0000000  0.6694400  3
  12003  12004  12008  12018     1  0.0000000  1.0460000  1
  12003  12004  12008  12018     1  0.0000000  0.6694400  3
  12003  12002  12009  12011     1  0.0000000  1.0460000  1
  12003  12002  12009  12011     1  0.0000000  0.6694400  3
  12003  12002  12000  12019     1  0.0000000  0.6508444  3
  12004  12003  12022  12012     1  0.0000000  1.2552000  3
  12004  12003  12002  12006     1  0.0000000  0.6508444  3
  12005  12003  12004  12008     1  0.0000000  1.0460000  1
  12005  12003  12004  12008     1  0.0000000  0.0000000  3
  12005  12003  12004  12017     1  0.0000000  1.0460000  1
  12005  12003  12004  12017     1  0.0000000  0.0000000  3
  12005  12003  12004  12007     1  0.0000000  0.6508444  3
  12005  12003  12022  12012     1  0.0000000  1.2552000  3
  12005  12003  12002  12009     1  0.0000000  1.0460000  1
  12005  12003  12002  12009     1  0.0000000  0.0000000  3
  12005  12003  12002  12006     1  0.0000000  0.6508444  3
  12006  12002  12003  12022     1  0.0000000  0.6508444  3
  12006  12002  12009  12011     1  0.0000000  0.6973333  3
  12006  12002  12000  12020     1  0.0000000  1.0460000  1
  12006  12002  12000  12020     1  0.0000000  0.0000000  3
  12006  12002  12000  12019     1  0.0000000  0.6508444  3
  12007  12004  12008  12018     1  0.0000000  0.6973333  3
  12007  12004  12003  12022     1  0.0000000  0.6508444  3
  12009  12002  12000  12019     1  0.0000000  1.0460000  1
  12009  12002  12000  12019     1  0.0000000  0.0000000  3
  12010  11999  12000  12019     1  0.0000000  0.6508444  3
  12013  12010  12015  12016     1  0.0000000  0.6973333  3
  12013  12010  11999  12017     1  0.0000000  1.0460000  1
  12013  12010  11999  12017     1  0.0000000  0.0000000  3
  12014  12010  12015  12016     1  0.0000000  0.6973333  3
  12014  12010  11999  12017     1  0.0000000  1.0460000  1
  12014  12010  11999  12017     1  0.0000000  0.0000000  3
  12017  12004  12008  12018     1  0.0000000  0.6973333  3
  12017  11999  12000  12019     1  0.0000000  1.0460000  1
  12017  11999  12000  12019     1  0.0000000  0.0000000  3
  12019  12000  12020  12021     1  0.0000000  0.6973333  3
  12023  12024  12026  12030     1  0.0000000  0.6508444  3
  12023  12024  12044  12045     1  0.0000000  1.0460000  1
  12023  12024  12044  12045     1  0.0000000  0.6694400  3
  12023  12034  12039  12040     1  0.0000000  1.0460000  1
  12023  12034  12039  12040     1  0.0000000  0.6694400  3
  12023  12041  12028  12031     1  0.0000000  1.6038667  3
  12024  12026  12027  12029     1  0.0000000  0.6508444  3
  12024  12026  12033  12035     1  0.0000000  1.0460000  1
  12024  12026  12033  12035     1  0.0000000  0.6694400  3
  12024  12023  12034  12037     1  0.0000000  0.6508444  3
  12024  12023  12034  12038     1  0.0000000  0.6508444  3
  12025  12023  12024  12026     1  0.0000000  0.6508444  3
  12025  12023  12024  12044     1  0.0000000  1.0460000  1
  12025  12023  12024  12044     1  0.0000000  0.0000000  3
  12025  12023  12024  12043     1  0.0000000  0.6508444  3
  12025  12023  12034  12039     1  0.0000000  1.0460000  1
  12025  12023  12034  12039     1  0.0000000  0.0000000  3
  12025  12023  12034  12037     1  0.0000000  0.6508444  3
  12025  12023  12034  12038     1  0.0000000  0.6508444  3
  12025  12023  12041  12028     1  0.0000000  1.6038667  3
  12026  12027  12028  12031     1  0.0000000  0.6508444  3
  12026  12027  12046  12036     1  0.0000000  1.2552000  3
  12026  12024  12044  12045     1  0.0000000  1.0460000  1
  12026  12024  12044  12045     1  0.0000000  0.6694400  3
  12027  12028  12032  12042     1  0.0000000  1.0460000  1
  12027  12028  12032  12042     1  0.0000000  0.6694400  3
  12027  12026  12033  12035     1  0.0000000  1.0460000  1
  12027  12026  12033  12035     1  0.0000000  0.6694400  3
  12027  12026  12024  12043     1  0.0000000  0.6508444  3
  12028  12027  12046  12036     1  0.0000000  1.2552000  3
  12028  12027  12026  12030     1  0.0000000  0.6508444  3
  12029  12027  12028  12032     1  0.0000000  1.0460000  1
  12029  12027  12028  12032     1  0.0000000  0.0000000  3
  12029  12027  12028  12041     1  0.0000000  1.0460000  1
  12029  12027  12028  12041     1  0.0000000  0.0000000  3
  12029  12027  12028  12031     1  0.0000000  0.6508444  3
  12029  12027  12046  12036     1  0.0000000  1.2552000  3
  12029  12027  12026  12033     1  0.0000000  1.0460000  1
  12029  12027  12026  12033     1  0.0000000  0.0000000  3
  12029  12027  12026  12030     1  0.0000000  0.6508444  3
  12030  12026  12027  12046     1  0.0000000  0.6508444  3
  12030  12026  12033  12035     1  0.0000000  0.6973333  3
  12030  12026  12024  12044     1  0.0000000  1.0460000  1
  12030  12026  12024  12044     1  0.0000000  0.0000000  3
  12030  12026  12024  12043     1  0.0000000  0.6508444  3
  12031  12028  12032  12042     1  0.0000000  0.6973333  3
  12031  12028  12027  12046     1  0.0000000  0.6508444  3
  12033  12026  12024  12043     1  0.0000000  1.0460000  1
  12033  12026  12024  12043     1  0.0000000  0.0000000  3
  12034  12023  12024  12043     1  0.0000000  0.6508444  3
  12037  12034  12039  12040     1  0.0000000  0.6973333  3
  12037  12034  12023  12041     1  0.0000000  1.0460000  1
  12037  12034  12023  12041     1  0.0000000  0.0000000  3
  12038  12034  12039  12040     1  0.0000000  0.6973333  3
  12038  12034  12023  12041     1  0.0000000  1.0460000  1
  12038  12034  12023  12041     1  0.0000000  0.0000000  3
  12041  12028  12032  12042     1  0.0000000  0.6973333  3
  12041  12023  12024  12043     1  0.0000000  1.0460000  1
  12041  12023  12024  12043     1  0.0000000  0.0000000  3
  12043  12024  12044  12045     1  0.0000000  0.6973333  3
  12047  12049  12051  12053     1  0.0000000  0.6508444  3
  12047  12049  12051  12054     1  0.0000000  0.6508444  3
  12048  12047  12049  12051     1  0.0000000  0.0000000  2
  12048  12047  12049  12050     1  0.0000000  0.0000000  2
  12048  12047  12049  12052     1  0.0000000  0.0000000  2
  12050  12049  12051  12055     1  0.0000000  0.6508444  3
  12050  12049  12051  12053     1  0.0000000  0.6508444  3
  12050  12049  12051  12054     1  0.0000000  0.6508444  3
  12051  12055  12056  12065     1  0.0000000  1.2552000  3
  12051  12055  12056  12066     1  0.0000000  1.2552000  3
  12051  12055  12057  12058     1  0.0000000  1.2552000  3
  12051  12055  12057  12060     1  0.0000000  1.2552000  3
  12052  12049  12051  12055     1  0.0000000  0.6508444  3
  12052  12049  12051  12053     1  0.0000000  0.6508444  3
  12052  12049  12051  12054     1  0.0000000  0.6508444  3
  12053  12051  12055  12056     1  0.0000000  1.2552000  3
  12053  12051  12055  12057     1  0.0000000  1.2552000  3
  12054  12051  12055  12056     1  0.0000000  1.2552000  3
  12054  12051  12055  12057     1  0.0000000  1.2552000  3
  12055  12056  12067  12068     1  0.0000000  0.6508444  3
  12055  12056  12067  12069     1  0.0000000  0.6508444  3
  12055  12057  12059  12061     1  0.0000000  0.6508444  3
  12055  12057  12059  12062     1  0.0000000  0.6508444  3
  12056  12055  12057  12058     1  0.0000000  1.2552000  3
  12056  12055  12057  12060     1  0.0000000  1.2552000  3
  12057  12055  12056  12065     1  0.0000000  1.2552000  3
  12057  12055  12056  12066     1  0.0000000  1.2552000  3
  12058  12057  12059  12063     1  0.0000000  0.6508444  3
  12058  12057  12059  12061     1  0.0000000  0.6508444  3
  12058  12057  12059  12062     1  0.0000000  0.6508444  3
  12059  12063  12095  12085     1  180.0000771  6.0668000  2
  12059  12063  12095  12085     1  180.0000771  1.4644000  4
  12060  12057  12059  12063     1  0.0000000  0.6508444  3
  12060  12057  12059  12061     1  0.0000000  0.6508444  3
  12060  12057  12059  12062     1  0.0000000  0.6508444  3
  12061  12059  12063  12064     1  0.0000000  3.3472000  1
  12061  12059  12063  12064     1  0.0000000  0.0000000  2
  12061  12059  12063  12064     1  180.0000771  0.3347200  3
  12061  12059  12063  12095     1  180.0000771  0.0000000  2
  12062  12059  12063  12064     1  0.0000000  3.3472000  1
  12062  12059  12063  12064     1  0.0000000  0.0000000  2
  12062  12059  12063  12064     1  180.0000771  0.3347200  3
  12062  12059  12063  12095     1  180.0000771  0.0000000  2
  12063  12095  12076  12078     1  0.0000000  1.2552000  3
  12064  12063  12095  12085     1  180.0000771  6.0668000  2
  12064  12063  12095  12085     1  180.0000771  1.4644000  4
  12065  12056  12067  12070     1  0.0000000  0.6508444  3
  12065  12056  12067  12068     1  0.0000000  0.6508444  3
  12065  12056  12067  12069     1  0.0000000  0.6508444  3
  12066  12056  12067  12070     1  0.0000000  0.6508444  3
  12066  12056  12067  12068     1  0.0000000  0.6508444  3
  12066  12056  12067  12069     1  0.0000000  0.6508444  3
  12067  12070  12119  12109     1  180.0000771  6.0668000  2
  12067  12070  12119  12109     1  180.0000771  1.4644000  4
  12068  12067  12070  12071     1  0.0000000  3.3472000  1
  12068  12067  12070  12071     1  0.0000000  0.0000000  2
  12068  12067  12070  12071     1  180.0000771  0.3347200  3
  12068  12067  12070  12119     1  180.0000771  0.0000000  2
  12069  12067  12070  12071     1  0.0000000  3.3472000  1
  12069  12067  12070  12071     1  0.0000000  0.0000000  2
  12069  12067  12070  12071     1  180.0000771  0.3347200  3
  12069  12067  12070  12119     1  180.0000771  0.0000000  2
  12070  12119  12100  12102     1  0.0000000  1.2552000  3
  12071  12070  12119  12109     1  180.0000771  6.0668000  2
  12071  12070  12119  12109     1  180.0000771  1.4644000  4
  12072  12073  12075  12079     1  0.0000000  0.6508444  3
  12072  12073  12093  12094     1  0.0000000  1.0460000  1
  12072  12073  12093  12094     1  0.0000000  0.6694400  3
  12072  12083  12088  12089     1  0.0000000  1.0460000  1
  12072  12083  12088  12089     1  0.0000000  0.6694400  3
  12072  12090  12077  12080     1  0.0000000  1.6038667  3
  12073  12072  12083  12086     1  0.0000000  0.6508444  3
  12073  12072  12083  12087     1  0.0000000  0.6508444  3
  12073  12075  12076  12078     1  0.0000000  0.6508444  3
  12073  12075  12082  12084     1  0.0000000  1.0460000  1
  12073  12075  12082  12084     1  0.0000000  0.6694400  3
  12074  12072  12073  12075     1  0.0000000  0.6508444  3
  12074  12072  12073  12093     1  0.0000000  1.0460000  1
  12074  12072  12073  12093     1  0.0000000  0.0000000  3
  12074  12072  12073  12092     1  0.0000000  0.6508444  3
  12074  12072  12083  12088     1  0.0000000  1.0460000  1
  12074  12072  12083  12088     1  0.0000000  0.0000000  3
  12074  12072  12083  12086     1  0.0000000  0.6508444  3
  12074  12072  12083  12087     1  0.0000000  0.6508444  3
  12074  12072  12090  12077     1  0.0000000  1.6038667  3
  12075  12073  12093  12094     1  0.0000000  1.0460000  1
  12075  12073  12093  12094     1  0.0000000  0.6694400  3
  12075  12076  12077  12080     1  0.0000000  0.6508444  3
  12075  12076  12095  12085     1  0.0000000  1.2552000  3
  12076  12075  12073  12092     1  0.0000000  0.6508444  3
  12076  12075  12082  12084     1  0.0000000  1.0460000  1
  12076  12075  12082  12084     1  0.0000000  0.6694400  3
  12076  12077  12081  12091     1  0.0000000  1.0460000  1
  12076  12077  12081  12091     1  0.0000000  0.6694400  3
  12077  12076  12075  12079     1  0.0000000  0.6508444  3
  12077  12076  12095  12085     1  0.0000000  1.2552000  3
  12078  12076  12075  12082     1  0.0000000  1.0460000  1
  12078  12076  12075  12082     1  0.0000000  0.0000000  3
  12078  12076  12075  12079     1  0.0000000  0.6508444  3
  12078  12076  12077  12081     1  0.0000000  1.0460000  1
  12078  12076  12077  12081     1  0.0000000  0.0000000  3
  12078  12076  12077  12090     1  0.0000000  1.0460000  1
  12078  12076  12077  12090     1  0.0000000  0.0000000  3
  12078  12076  12077  12080     1  0.0000000  0.6508444  3
  12078  12076  12095  12085     1  0.0000000  1.2552000  3
  12079  12075  12073  12093     1  0.0000000  1.0460000  1
  12079  12075  12073  12093     1  0.0000000  0.0000000  3
  12079  12075  12073  12092     1  0.0000000  0.6508444  3
  12079  12075  12076  12095     1  0.0000000  0.6508444  3
  12079  12075  12082  12084     1  0.0000000  0.6973333  3
  12080  12077  12076  12095     1  0.0000000  0.6508444  3
  12080  12077  12081  12091     1  0.0000000  0.6973333  3
  12082  12075  12073  12092     1  0.0000000  1.0460000  1
  12082  12075  12073  12092     1  0.0000000  0.0000000  3
  12083  12072  12073  12092     1  0.0000000  0.6508444  3
  12086  12083  12072  12090     1  0.0000000  1.0460000  1
  12086  12083  12072  12090     1  0.0000000  0.0000000  3
  12086  12083  12088  12089     1  0.0000000  0.6973333  3
  12087  12083  12072  12090     1  0.0000000  1.0460000  1
  12087  12083  12072  12090     1  0.0000000  0.0000000  3
  12087  12083  12088  12089     1  0.0000000  0.6973333  3
  12090  12072  12073  12092     1  0.0000000  1.0460000  1
  12090  12072  12073  12092     1  0.0000000  0.0000000  3
  12090  12077  12081  12091     1  0.0000000  0.6973333  3
  12092  12073  12093  12094     1  0.0000000  0.6973333  3
  12096  12097  12099  12103     1  0.0000000  0.6508444  3
  12096  12097  12117  12118     1  0.0000000  1.0460000  1
  12096  12097  12117  12118     1  0.0000000  0.6694400  3
  12096  12107  12112  12113     1  0.0000000  1.0460000  1
  12096  12107  12112  12113     1  0.0000000  0.6694400  3
  12096  12114  12101  12104     1  0.0000000  1.6038667  3
  12097  12096  12107  12110     1  0.0000000  0.6508444  3
  12097  12096  12107  12111     1  0.0000000  0.6508444  3
  12097  12099  12100  12102     1  0.0000000  0.6508444  3
  12097  12099  12106  12108     1  0.0000000  1.0460000  1
  12097  12099  12106  12108     1  0.0000000  0.6694400  3
  12098  12096  12097  12099     1  0.0000000  0.6508444  3
  12098  12096  12097  12117     1  0.0000000  1.0460000  1
  12098  12096  12097  12117     1  0.0000000  0.0000000  3
  12098  12096  12097  12116     1  0.0000000  0.6508444  3
  12098  12096  12107  12112     1  0.0000000  1.0460000  1
  12098  12096  12107  12112     1  0.0000000  0.0000000  3
  12098  12096  12107  12110     1  0.0000000  0.6508444  3
  12098  12096  12107  12111     1  0.0000000  0.6508444  3
  12098  12096  12114  12101     1  0.0000000  1.6038667  3
  12099  12097  12117  12118     1  0.0000000  1.0460000  1
  12099  12097  12117  12118     1  0.0000000  0.6694400  3
  12099  12100  12101  12104     1  0.0000000  0.6508444  3
  12099  12100  12119  12109     1  0.0000000  1.2552000  3
  12100  12099  12097  12116     1  0.0000000  0.6508444  3
  12100  12099  12106  12108     1  0.0000000  1.0460000  1
  12100  12099  12106  12108     1  0.0000000  0.6694400  3
  12100  12101  12105  12115     1  0.0000000  1.0460000  1
  12100  12101  12105  12115     1  0.0000000  0.6694400  3
  12101  12100  12099  12103     1  0.0000000  0.6508444  3
  12101  12100  12119  12109     1  0.0000000  1.2552000  3
  12102  12100  12099  12106     1  0.0000000  1.0460000  1
  12102  12100  12099  12106     1  0.0000000  0.0000000  3
  12102  12100  12099  12103     1  0.0000000  0.6508444  3
  12102  12100  12101  12105     1  0.0000000  1.0460000  1
  12102  12100  12101  12105     1  0.0000000  0.0000000  3
  12102  12100  12101  12114     1  0.0000000  1.0460000  1
  12102  12100  12101  12114     1  0.0000000  0.0000000  3
  12102  12100  12101  12104     1  0.0000000  0.6508444  3
  12102  12100  12119  12109     1  0.0000000  1.2552000  3
  12103  12099  12097  12117     1  0.0000000  1.0460000  1
  12103  12099  12097  12117     1  0.0000000  0.0000000  3
  12103  12099  12097  12116     1  0.0000000  0.6508444  3
  12103  12099  12100  12119     1  0.0000000  0.6508444  3
  12103  12099  12106  12108     1  0.0000000  0.6973333  3
  12104  12101  12100  12119     1  0.0000000  0.6508444  3
  12104  12101  12105  12115     1  0.0000000  0.6973333  3
  12106  12099  12097  12116     1  0.0000000  1.0460000  1
  12106  12099  12097  12116     1  0.0000000  0.0000000  3
  12107  12096  12097  12116     1  0.0000000  0.6508444  3
  12110  12107  12096  12114     1  0.0000000  1.0460000  1
  12110  12107  12096  12114     1  0.0000000  0.0000000  3
  12110  12107  12112  12113     1  0.0000000  0.6973333  3
  12111  12107  12096  12114     1  0.0000000  1.0460000  1
  12111  12107  12096  12114     1  0.0000000  0.0000000  3
  12111  12107  12112  12113     1  0.0000000  0.6973333  3
  12114  12096  12097  12116     1  0.0000000  1.0460000  1
  12114  12096  12097  12116     1  0.0000000  0.0000000  3
  12114  12101  12105  12115     1  0.0000000  0.6973333  3
  12116  12097  12117  12118     1  0.0000000  0.6973333  3
  12120  12122  12124  12126     1  0.0000000  0.6508444  3
  12120  12122  12124  12127     1  0.0000000  0.6508444  3
  12121  12120  12122  12124     1  0.0000000  0.0000000  2
  12121  12120  12122  12123     1  0.0000000  0.0000000  2
  12121  12120  12122  12125     1  0.0000000  0.0000000  2
  12123  12122  12124  12128     1  0.0000000  0.6508444  3
  12123  12122  12124  12126     1  0.0000000  0.6508444  3
  12123  12122  12124  12127     1  0.0000000  0.6508444  3
  12124  12128  12129  12138     1  0.0000000  1.2552000  3
  12124  12128  12129  12139     1  0.0000000  1.2552000  3
  12124  12128  12130  12131     1  0.0000000  1.2552000  3
  12124  12128  12130  12133     1  0.0000000  1.2552000  3
  12125  12122  12124  12128     1  0.0000000  0.6508444  3
  12125  12122  12124  12126     1  0.0000000  0.6508444  3
  12125  12122  12124  12127     1  0.0000000  0.6508444  3
  12126  12124  12128  12129     1  0.0000000  1.2552000  3
  12126  12124  12128  12130     1  0.0000000  1.2552000  3
  12127  12124  12128  12129     1  0.0000000  1.2552000  3
  12127  12124  12128  12130     1  0.0000000  1.2552000  3
  12128  12129  12140  12141     1  0.0000000  0.6508444  3
  12128  12129  12140  12142     1  0.0000000  0.6508444  3
  12128  12130  12132  12134     1  0.0000000  0.6508444  3
  12128  12130  12132  12135     1  0.0000000  0.6508444  3
  12129  12128  12130  12131     1  0.0000000  1.2552000  3
  12129  12128  12130  12133     1  0.0000000  1.2552000  3
  12130  12128  12129  12138     1  0.0000000  1.2552000  3
  12130  12128  12129  12139     1  0.0000000  1.2552000  3
  12131  12130  12132  12136     1  0.0000000  0.6508444  3
  12131  12130  12132  12134     1  0.0000000  0.6508444  3
  12131  12130  12132  12135     1  0.0000000  0.6508444  3
  12132  12136  12168  12158     1  180.0000771  6.0668000  2
  12132  12136  12168  12158     1  180.0000771  1.4644000  4
  12133  12130  12132  12136     1  0.0000000  0.6508444  3
  12133  12130  12132  12134     1  0.0000000  0.6508444  3
  12133  12130  12132  12135     1  0.0000000  0.6508444  3
  12134  12132  12136  12137     1  0.0000000  3.3472000  1
  12134  12132  12136  12137     1  0.0000000  0.0000000  2
  12134  12132  12136  12137     1  180.0000771  0.3347200  3
  12134  12132  12136  12168     1  180.0000771  0.0000000  2
  12135  12132  12136  12137     1  0.0000000  3.3472000  1
  12135  12132  12136  12137     1  0.0000000  0.0000000  2
  12135  12132  12136  12137     1  180.0000771  0.3347200  3
  12135  12132  12136  12168     1  180.0000771  0.0000000  2
  12136  12168  12149  12151     1  0.0000000  1.2552000  3
  12137  12136  12168  12158     1  180.0000771  6.0668000  2
  12137  12136  12168  12158     1  180.0000771  1.4644000  4
  12138  12129  12140  12143     1  0.0000000  0.6508444  3
  12138  12129  12140  12141     1  0.0000000  0.6508444  3
  12138  12129  12140  12142     1  0.0000000  0.6508444  3
  12139  12129  12140  12143     1  0.0000000  0.6508444  3
  12139  12129  12140  12141     1  0.0000000  0.6508444  3
  12139  12129  12140  12142     1  0.0000000  0.6508444  3
  12140  12143  12192  12182     1  180.0000771  6.0668000  2
  12140  12143  12192  12182     1  180.0000771  1.4644000  4
  12141  12140  12143  12144     1  0.0000000  3.3472000  1
  12141  12140  12143  12144     1  0.0000000  0.0000000  2
  12141  12140  12143  12144     1  180.0000771  0.3347200  3
  12141  12140  12143  12192     1  180.0000771  0.0000000  2
  12142  12140  12143  12144     1  0.0000000  3.3472000  1
  12142  12140  12143  12144     1  0.0000000  0.0000000  2
  12142  12140  12143  12144     1  180.0000771  0.3347200  3
  12142  12140  12143  12192     1  180.0000771  0.0000000  2
  12143  12192  12173  12175     1  0.0000000  1.2552000  3
  12144  12143  12192  12182     1  180.0000771  6.0668000  2
  12144  12143  12192  12182     1  180.0000771  1.4644000  4
  12145  12146  12148  12152     1  0.0000000  0.6508444  3
  12145  12146  12166  12167     1  0.0000000  1.0460000  1
  12145  12146  12166  12167     1  0.0000000  0.6694400  3
  12145  12156  12161  12162     1  0.0000000  1.0460000  1
  12145  12156  12161  12162     1  0.0000000  0.6694400  3
  12145  12163  12150  12153     1  0.0000000  1.6038667  3
  12146  12148  12149  12151     1  0.0000000  0.6508444  3
  12146  12148  12155  12157     1  0.0000000  1.0460000  1
  12146  12148  12155  12157     1  0.0000000  0.6694400  3
  12146  12145  12156  12159     1  0.0000000  0.6508444  3
  12146  12145  12156  12160     1  0.0000000  0.6508444  3
  12147  12145  12146  12148     1  0.0000000  0.6508444  3
  12147  12145  12146  12166     1  0.0000000  1.0460000  1
  12147  12145  12146  12166     1  0.0000000  0.0000000  3
  12147  12145  12146  12165     1  0.0000000  0.6508444  3
  12147  12145  12156  12161     1  0.0000000  1.0460000  1
  12147  12145  12156  12161     1  0.0000000  0.0000000  3
  12147  12145  12156  12159     1  0.0000000  0.6508444  3
  12147  12145  12156  12160     1  0.0000000  0.6508444  3
  12147  12145  12163  12150     1  0.0000000  1.6038667  3
  12148  12149  12150  12153     1  0.0000000  0.6508444  3
  12148  12149  12168  12158     1  0.0000000  1.2552000  3
  12148  12146  12166  12167     1  0.0000000  1.0460000  1
  12148  12146  12166  12167     1  0.0000000  0.6694400  3
  12149  12150  12154  12164     1  0.0000000  1.0460000  1
  12149  12150  12154  12164     1  0.0000000  0.6694400  3
  12149  12148  12155  12157     1  0.0000000  1.0460000  1
  12149  12148  12155  12157     1  0.0000000  0.6694400  3
  12149  12148  12146  12165     1  0.0000000  0.6508444  3
  12150  12149  12168  12158     1  0.0000000  1.2552000  3
  12150  12149  12148  12152     1  0.0000000  0.6508444  3
  12151  12149  12150  12154     1  0.0000000  1.0460000  1
  12151  12149  12150  12154     1  0.0000000  0.0000000  3
  12151  12149  12150  12163     1  0.0000000  1.0460000  1
  12151  12149  12150  12163     1  0.0000000  0.0000000  3
  12151  12149  12150  12153     1  0.0000000  0.6508444  3
  12151  12149  12168  12158     1  0.0000000  1.2552000  3
  12151  12149  12148  12155     1  0.0000000  1.0460000  1
  12151  12149  12148  12155     1  0.0000000  0.0000000  3
  12151  12149  12148  12152     1  0.0000000  0.6508444  3
  12152  12148  12149  12168     1  0.0000000  0.6508444  3
  12152  12148  12155  12157     1  0.0000000  0.6973333  3
  12152  12148  12146  12166     1  0.0000000  1.0460000  1
  12152  12148  12146  12166     1  0.0000000  0.0000000  3
  12152  12148  12146  12165     1  0.0000000  0.6508444  3
  12153  12150  12154  12164     1  0.0000000  0.6973333  3
  12153  12150  12149  12168     1  0.0000000  0.6508444  3
  12155  12148  12146  12165     1  0.0000000  1.0460000  1
  12155  12148  12146  12165     1  0.0000000  0.0000000  3
  12156  12145  12146  12165     1  0.0000000  0.6508444  3
  12159  12156  12161  12162     1  0.0000000  0.6973333  3
  12159  12156  12145  12163     1  0.0000000  1.0460000  1
  12159  12156  12145  12163     1  0.0000000  0.0000000  3
  12160  12156  12161  12162     1  0.0000000  0.6973333  3
  12160  12156  12145  12163     1  0.0000000  1.0460000  1
  12160  12156  12145  12163     1  0.0000000  0.0000000  3
  12163  12150  12154  12164     1  0.0000000  0.6973333  3
  12163  12145  12146  12165     1  0.0000000  1.0460000  1
  12163  12145  12146  12165     1  0.0000000  0.0000000  3
  12165  12146  12166  12167     1  0.0000000  0.6973333  3
  12169  12170  12172  12176     1  0.0000000  0.6508444  3
  12169  12170  12190  12191     1  0.0000000  1.0460000  1
  12169  12170  12190  12191     1  0.0000000  0.6694400  3
  12169  12180  12185  12186     1  0.0000000  1.0460000  1
  12169  12180  12185  12186     1  0.0000000  0.6694400  3
  12169  12187  12174  12177     1  0.0000000  1.6038667  3
  12170  12172  12173  12175     1  0.0000000  0.6508444  3
  12170  12172  12179  12181     1  0.0000000  1.0460000  1
  12170  12172  12179  12181     1  0.0000000  0.6694400  3
  12170  12169  12180  12183     1  0.0000000  0.6508444  3
  12170  12169  12180  12184     1  0.0000000  0.6508444  3
  12171  12169  12170  12172     1  0.0000000  0.6508444  3
  12171  12169  12170  12190     1  0.0000000  1.0460000  1
  12171  12169  12170  12190     1  0.0000000  0.0000000  3
  12171  12169  12170  12189     1  0.0000000  0.6508444  3
  12171  12169  12180  12185     1  0.0000000  1.0460000  1
  12171  12169  12180  12185     1  0.0000000  0.0000000  3
  12171  12169  12180  12183     1  0.0000000  0.6508444  3
  12171  12169  12180  12184     1  0.0000000  0.6508444  3
  12171  12169  12187  12174     1  0.0000000  1.6038667  3
  12172  12173  12174  12177     1  0.0000000  0.6508444  3
  12172  12173  12192  12182     1  0.0000000  1.2552000  3
  12172  12170  12190  12191     1  0.0000000  1.0460000  1
  12172  12170  12190  12191     1  0.0000000  0.6694400  3
  12173  12174  12178  12188     1  0.0000000  1.0460000  1
  12173  12174  12178  12188     1  0.0000000  0.6694400  3
  12173  12172  12179  12181     1  0.0000000  1.0460000  1
  12173  12172  12179  12181     1  0.0000000  0.6694400  3
  12173  12172  12170  12189     1  0.0000000  0.6508444  3
  12174  12173  12192  12182     1  0.0000000  1.2552000  3
  12174  12173  12172  12176     1  0.0000000  0.6508444  3
  12175  12173  12174  12178     1  0.0000000  1.0460000  1
  12175  12173  12174  12178     1  0.0000000  0.0000000  3
  12175  12173  12174  12187     1  0.0000000  1.0460000  1
  12175  12173  12174  12187     1  0.0000000  0.0000000  3
  12175  12173  12174  12177     1  0.0000000  0.6508444  3
  12175  12173  12192  12182     1  0.0000000  1.2552000  3
  12175  12173  12172  12179     1  0.0000000  1.0460000  1
  12175  12173  12172  12179     1  0.0000000  0.0000000  3
  12175  12173  12172  12176     1  0.0000000  0.6508444  3
  12176  12172  12173  12192     1  0.0000000  0.6508444  3
  12176  12172  12179  12181     1  0.0000000  0.6973333  3
  12176  12172  12170  12190     1  0.0000000  1.0460000  1
  12176  12172  12170  12190     1  0.0000000  0.0000000  3
  12176  12172  12170  12189     1  0.0000000  0.6508444  3
  12177  12174  12178  12188     1  0.0000000  0.6973333  3
  12177  12174  12173  12192     1  0.0000000  0.6508444  3
  12179  12172  12170  12189     1  0.0000000  1.0460000  1
  12179  12172  12170  12189     1  0.0000000  0.0000000  3
  12180  12169  12170  12189     1  0.0000000  0.6508444  3
  12183  12180  12185  12186     1  0.0000000  0.6973333  3
  12183  12180  12169  12187     1  0.0000000  1.0460000  1
  12183  12180  12169  12187     1  0.0000000  0.0000000  3
  12184  12180  12185  12186     1  0.0000000  0.6973333  3
  12184  12180  12169  12187     1  0.0000000  1.0460000  1
  12184  12180  12169  12187     1  0.0000000  0.0000000  3
  12187  12174  12178  12188     1  0.0000000  0.6973333  3
  12187  12169  12170  12189     1  0.0000000  1.0460000  1
  12187  12169  12170  12189     1  0.0000000  0.0000000  3
  12189  12170  12190  12191     1  0.0000000  0.6973333  3
  12193  12195  12197  12199     1  0.0000000  0.6508444  3
  12193  12195  12197  12200     1  0.0000000  0.6508444  3
  12194  12193  12195  12197     1  0.0000000  0.0000000  2
  12194  12193  12195  12196     1  0.0000000  0.0000000  2
  12194  12193  12195  12198     1  0.0000000  0.0000000  2
  12196  12195  12197  12201     1  0.0000000  0.6508444  3
  12196  12195  12197  12199     1  0.0000000  0.6508444  3
  12196  12195  12197  12200     1  0.0000000  0.6508444  3
  12197  12201  12202  12211     1  0.0000000  1.2552000  3
  12197  12201  12202  12212     1  0.0000000  1.2552000  3
  12197  12201  12203  12204     1  0.0000000  1.2552000  3
  12197  12201  12203  12206     1  0.0000000  1.2552000  3
  12198  12195  12197  12201     1  0.0000000  0.6508444  3
  12198  12195  12197  12199     1  0.0000000  0.6508444  3
  12198  12195  12197  12200     1  0.0000000  0.6508444  3
  12199  12197  12201  12202     1  0.0000000  1.2552000  3
  12199  12197  12201  12203     1  0.0000000  1.2552000  3
  12200  12197  12201  12202     1  0.0000000  1.2552000  3
  12200  12197  12201  12203     1  0.0000000  1.2552000  3
  12201  12202  12213  12214     1  0.0000000  0.6508444  3
  12201  12202  12213  12215     1  0.0000000  0.6508444  3
  12201  12203  12205  12207     1  0.0000000  0.6508444  3
  12201  12203  12205  12208     1  0.0000000  0.6508444  3
  12202  12201  12203  12204     1  0.0000000  1.2552000  3
  12202  12201  12203  12206     1  0.0000000  1.2552000  3
  12203  12201  12202  12211     1  0.0000000  1.2552000  3
  12203  12201  12202  12212     1  0.0000000  1.2552000  3
  12204  12203  12205  12209     1  0.0000000  0.6508444  3
  12204  12203  12205  12207     1  0.0000000  0.6508444  3
  12204  12203  12205  12208     1  0.0000000  0.6508444  3
  12205  12209  12241  12231     1  180.0000771  6.0668000  2
  12205  12209  12241  12231     1  180.0000771  1.4644000  4
  12206  12203  12205  12209     1  0.0000000  0.6508444  3
  12206  12203  12205  12207     1  0.0000000  0.6508444  3
  12206  12203  12205  12208     1  0.0000000  0.6508444  3
  12207  12205  12209  12210     1  0.0000000  3.3472000  1
  12207  12205  12209  12210     1  0.0000000  0.0000000  2
  12207  12205  12209  12210     1  180.0000771  0.3347200  3
  12207  12205  12209  12241     1  180.0000771  0.0000000  2
  12208  12205  12209  12210     1  0.0000000  3.3472000  1
  12208  12205  12209  12210     1  0.0000000  0.0000000  2
  12208  12205  12209  12210     1  180.0000771  0.3347200  3
  12208  12205  12209  12241     1  180.0000771  0.0000000  2
  12209  12241  12222  12224     1  0.0000000  1.2552000  3
  12210  12209  12241  12231     1  180.0000771  6.0668000  2
  12210  12209  12241  12231     1  180.0000771  1.4644000  4
  12211  12202  12213  12216     1  0.0000000  0.6508444  3
  12211  12202  12213  12214     1  0.0000000  0.6508444  3
  12211  12202  12213  12215     1  0.0000000  0.6508444  3
  12212  12202  12213  12216     1  0.0000000  0.6508444  3
  12212  12202  12213  12214     1  0.0000000  0.6508444  3
  12212  12202  12213  12215     1  0.0000000  0.6508444  3
  12213  12216  12265  12255     1  180.0000771  6.0668000  2
  12213  12216  12265  12255     1  180.0000771  1.4644000  4
  12214  12213  12216  12217     1  0.0000000  3.3472000  1
  12214  12213  12216  12217     1  0.0000000  0.0000000  2
  12214  12213  12216  12217     1  180.0000771  0.3347200  3
  12214  12213  12216  12265     1  180.0000771  0.0000000  2
  12215  12213  12216  12217     1  0.0000000  3.3472000  1
  12215  12213  12216  12217     1  0.0000000  0.0000000  2
  12215  12213  12216  12217     1  180.0000771  0.3347200  3
  12215  12213  12216  12265     1  180.0000771  0.0000000  2
  12216  12265  12246  12248     1  0.0000000  1.2552000  3
  12217  12216  12265  12255     1  180.0000771  6.0668000  2
  12217  12216  12265  12255     1  180.0000771  1.4644000  4
  12218  12219  12221  12225     1  0.0000000  0.6508444  3
  12218  12219  12239  12240     1  0.0000000  1.0460000  1
  12218  12219  12239  12240     1  0.0000000  0.6694400  3
  12218  12229  12234  12235     1  0.0000000  1.0460000  1
  12218  12229  12234  12235     1  0.0000000  0.6694400  3
  12218  12236  12223  12226     1  0.0000000  1.6038667  3
  12219  12218  12229  12232     1  0.0000000  0.6508444  3
  12219  12218  12229  12233     1  0.0000000  0.6508444  3
  12219  12221  12222  12224     1  0.0000000  0.6508444  3
  12219  12221  12228  12230     1  0.0000000  1.0460000  1
  12219  12221  12228  12230     1  0.0000000  0.6694400  3
  12220  12218  12219  12221     1  0.0000000  0.6508444  3
  12220  12218  12219  12239     1  0.0000000  1.0460000  1
  12220  12218  12219  12239     1  0.0000000  0.0000000  3
  12220  12218  12219  12238     1  0.0000000  0.6508444  3
  12220  12218  12229  12234     1  0.0000000  1.0460000  1
  12220  12218  12229  12234     1  0.0000000  0.0000000  3
  12220  12218  12229  12232     1  0.0000000  0.6508444  3
  12220  12218  12229  12233     1  0.0000000  0.6508444  3
  12220  12218  12236  12223     1  0.0000000  1.6038667  3
  12221  12219  12239  12240     1  0.0000000  1.0460000  1
  12221  12219  12239  12240     1  0.0000000  0.6694400  3
  12221  12222  12223  12226     1  0.0000000  0.6508444  3
  12221  12222  12241  12231     1  0.0000000  1.2552000  3
  12222  12221  12219  12238     1  0.0000000  0.6508444  3
  12222  12221  12228  12230     1  0.0000000  1.0460000  1
  12222  12221  12228  12230     1  0.0000000  0.6694400  3
  12222  12223  12227  12237     1  0.0000000  1.0460000  1
  12222  12223  12227  12237     1  0.0000000  0.6694400  3
  12223  12222  12221  12225     1  0.0000000  0.6508444  3
  12223  12222  12241  12231     1  0.0000000  1.2552000  3
  12224  12222  12221  12228     1  0.0000000  1.0460000  1
  12224  12222  12221  12228     1  0.0000000  0.0000000  3
  12224  12222  12221  12225     1  0.0000000  0.6508444  3
  12224  12222  12223  12227     1  0.0000000  1.0460000  1
  12224  12222  12223  12227     1  0.0000000  0.0000000  3
  12224  12222  12223  12236     1  0.0000000  1.0460000  1
  12224  12222  12223  12236     1  0.0000000  0.0000000  3
  12224  12222  12223  12226     1  0.0000000  0.6508444  3
  12224  12222  12241  12231     1  0.0000000  1.2552000  3
  12225  12221  12219  12239     1  0.0000000  1.0460000  1
  12225  12221  12219  12239     1  0.0000000  0.0000000  3
  12225  12221  12219  12238     1  0.0000000  0.6508444  3
  12225  12221  12222  12241     1  0.0000000  0.6508444  3
  12225  12221  12228  12230     1  0.0000000  0.6973333  3
  12226  12223  12222  12241     1  0.0000000  0.6508444  3
  12226  12223  12227  12237     1  0.0000000  0.6973333  3
  12228  12221  12219  12238     1  0.0000000  1.0460000  1
  12228  12221  12219  12238     1  0.0000000  0.0000000  3
  12229  12218  12219  12238     1  0.0000000  0.6508444  3
  12232  12229  12218  12236     1  0.0000000  1.0460000  1
  12232  12229  12218  12236     1  0.0000000  0.0000000  3
  12232  12229  12234  12235     1  0.0000000  0.6973333  3
  12233  12229  12218  12236     1  0.0000000  1.0460000  1
  12233  12229  12218  12236     1  0.0000000  0.0000000  3
  12233  12229  12234  12235     1  0.0000000  0.6973333  3
  12236  12218  12219  12238     1  0.0000000  1.0460000  1
  12236  12218  12219  12238     1  0.0000000  0.0000000  3
  12236  12223  12227  12237     1  0.0000000  0.6973333  3
  12238  12219  12239  12240     1  0.0000000  0.6973333  3
  12242  12243  12245  12249     1  0.0000000  0.6508444  3
  12242  12243  12263  12264     1  0.0000000  1.0460000  1
  12242  12243  12263  12264     1  0.0000000  0.6694400  3
  12242  12253  12258  12259     1  0.0000000  1.0460000  1
  12242  12253  12258  12259     1  0.0000000  0.6694400  3
  12242  12260  12247  12250     1  0.0000000  1.6038667  3
  12243  12242  12253  12256     1  0.0000000  0.6508444  3
  12243  12242  12253  12257     1  0.0000000  0.6508444  3
  12243  12245  12246  12248     1  0.0000000  0.6508444  3
  12243  12245  12252  12254     1  0.0000000  1.0460000  1
  12243  12245  12252  12254     1  0.0000000  0.6694400  3
  12244  12242  12243  12245     1  0.0000000  0.6508444  3
  12244  12242  12243  12263     1  0.0000000  1.0460000  1
  12244  12242  12243  12263     1  0.0000000  0.0000000  3
  12244  12242  12243  12262     1  0.0000000  0.6508444  3
  12244  12242  12253  12258     1  0.0000000  1.0460000  1
  12244  12242  12253  12258     1  0.0000000  0.0000000  3
  12244  12242  12253  12256     1  0.0000000  0.6508444  3
  12244  12242  12253  12257     1  0.0000000  0.6508444  3
  12244  12242  12260  12247     1  0.0000000  1.6038667  3
  12245  12243  12263  12264     1  0.0000000  1.0460000  1
  12245  12243  12263  12264     1  0.0000000  0.6694400  3
  12245  12246  12247  12250     1  0.0000000  0.6508444  3
  12245  12246  12265  12255     1  0.0000000  1.2552000  3
  12246  12245  12243  12262     1  0.0000000  0.6508444  3
  12246  12245  12252  12254     1  0.0000000  1.0460000  1
  12246  12245  12252  12254     1  0.0000000  0.6694400  3
  12246  12247  12251  12261     1  0.0000000  1.0460000  1
  12246  12247  12251  12261     1  0.0000000  0.6694400  3
  12247  12246  12245  12249     1  0.0000000  0.6508444  3
  12247  12246  12265  12255     1  0.0000000  1.2552000  3
  12248  12246  12245  12252     1  0.0000000  1.0460000  1
  12248  12246  12245  12252     1  0.0000000  0.0000000  3
  12248  12246  12245  12249     1  0.0000000  0.6508444  3
  12248  12246  12247  12251     1  0.0000000  1.0460000  1
  12248  12246  12247  12251     1  0.0000000  0.0000000  3
  12248  12246  12247  12260     1  0.0000000  1.0460000  1
  12248  12246  12247  12260     1  0.0000000  0.0000000  3
  12248  12246  12247  12250     1  0.0000000  0.6508444  3
  12248  12246  12265  12255     1  0.0000000  1.2552000  3
  12249  12245  12243  12263     1  0.0000000  1.0460000  1
  12249  12245  12243  12263     1  0.0000000  0.0000000  3
  12249  12245  12243  12262     1  0.0000000  0.6508444  3
  12249  12245  12246  12265     1  0.0000000  0.6508444  3
  12249  12245  12252  12254     1  0.0000000  0.6973333  3
  12250  12247  12246  12265     1  0.0000000  0.6508444  3
  12250  12247  12251  12261     1  0.0000000  0.6973333  3
  12252  12245  12243  12262     1  0.0000000  1.0460000  1
  12252  12245  12243  12262     1  0.0000000  0.0000000  3
  12253  12242  12243  12262     1  0.0000000  0.6508444  3
  12256  12253  12242  12260     1  0.0000000  1.0460000  1
  12256  12253  12242  12260     1  0.0000000  0.0000000  3
  12256  12253  12258  12259     1  0.0000000  0.6973333  3
  12257  12253  12242  12260     1  0.0000000  1.0460000  1
  12257  12253  12242  12260     1  0.0000000  0.0000000  3
  12257  12253  12258  12259     1  0.0000000  0.6973333  3
  12260  12242  12243  12262     1  0.0000000  1.0460000  1
  12260  12242  12243  12262     1  0.0000000  0.0000000  3
  12260  12247  12251  12261     1  0.0000000  0.6973333  3
  12262  12243  12263  12264     1  0.0000000  0.6973333  3
  12266  12268  12270  12272     1  0.0000000  0.6508444  3
  12266  12268  12270  12273     1  0.0000000  0.6508444  3
  12267  12266  12268  12270     1  0.0000000  0.0000000  2
  12267  12266  12268  12269     1  0.0000000  0.0000000  2
  12267  12266  12268  12271     1  0.0000000  0.0000000  2
  12269  12268  12270  12274     1  0.0000000  0.6508444  3
  12269  12268  12270  12272     1  0.0000000  0.6508444  3
  12269  12268  12270  12273     1  0.0000000  0.6508444  3
  12270  12274  12275  12284     1  0.0000000  1.2552000  3
  12270  12274  12275  12285     1  0.0000000  1.2552000  3
  12270  12274  12276  12277     1  0.0000000  1.2552000  3
  12270  12274  12276  12279     1  0.0000000  1.2552000  3
  12271  12268  12270  12274     1  0.0000000  0.6508444  3
  12271  12268  12270  12272     1  0.0000000  0.6508444  3
  12271  12268  12270  12273     1  0.0000000  0.6508444  3
  12272  12270  12274  12275     1  0.0000000  1.2552000  3
  12272  12270  12274  12276     1  0.0000000  1.2552000  3
  12273  12270  12274  12275     1  0.0000000  1.2552000  3
  12273  12270  12274  12276     1  0.0000000  1.2552000  3
  12274  12275  12286  12287     1  0.0000000  0.6508444  3
  12274  12275  12286  12288     1  0.0000000  0.6508444  3
  12274  12276  12278  12280     1  0.0000000  0.6508444  3
  12274  12276  12278  12281     1  0.0000000  0.6508444  3
  12275  12274  12276  12277     1  0.0000000  1.2552000  3
  12275  12274  12276  12279     1  0.0000000  1.2552000  3
  12276  12274  12275  12284     1  0.0000000  1.2552000  3
  12276  12274  12275  12285     1  0.0000000  1.2552000  3
  12277  12276  12278  12282     1  0.0000000  0.6508444  3
  12277  12276  12278  12280     1  0.0000000  0.6508444  3
  12277  12276  12278  12281     1  0.0000000  0.6508444  3
  12278  12282  12314  12304     1  180.0000771  6.0668000  2
  12278  12282  12314  12304     1  180.0000771  1.4644000  4
  12279  12276  12278  12282     1  0.0000000  0.6508444  3
  12279  12276  12278  12280     1  0.0000000  0.6508444  3
  12279  12276  12278  12281     1  0.0000000  0.6508444  3
  12280  12278  12282  12283     1  0.0000000  3.3472000  1
  12280  12278  12282  12283     1  0.0000000  0.0000000  2
  12280  12278  12282  12283     1  180.0000771  0.3347200  3
  12280  12278  12282  12314     1  180.0000771  0.0000000  2
  12281  12278  12282  12283     1  0.0000000  3.3472000  1
  12281  12278  12282  12283     1  0.0000000  0.0000000  2
  12281  12278  12282  12283     1  180.0000771  0.3347200  3
  12281  12278  12282  12314     1  180.0000771  0.0000000  2
  12282  12314  12295  12297     1  0.0000000  1.2552000  3
  12283  12282  12314  12304     1  180.0000771  6.0668000  2
  12283  12282  12314  12304     1  180.0000771  1.4644000  4
  12284  12275  12286  12289     1  0.0000000  0.6508444  3
  12284  12275  12286  12287     1  0.0000000  0.6508444  3
  12284  12275  12286  12288     1  0.0000000  0.6508444  3
  12285  12275  12286  12289     1  0.0000000  0.6508444  3
  12285  12275  12286  12287     1  0.0000000  0.6508444  3
  12285  12275  12286  12288     1  0.0000000  0.6508444  3
  12286  12289  12338  12328     1  180.0000771  6.0668000  2
  12286  12289  12338  12328     1  180.0000771  1.4644000  4
  12287  12286  12289  12290     1  0.0000000  3.3472000  1
  12287  12286  12289  12290     1  0.0000000  0.0000000  2
  12287  12286  12289  12290     1  180.0000771  0.3347200  3
  12287  12286  12289  12338     1  180.0000771  0.0000000  2
  12288  12286  12289  12290     1  0.0000000  3.3472000  1
  12288  12286  12289  12290     1  0.0000000  0.0000000  2
  12288  12286  12289  12290     1  180.0000771  0.3347200  3
  12288  12286  12289  12338     1  180.0000771  0.0000000  2
  12289  12338  12319  12321     1  0.0000000  1.2552000  3
  12290  12289  12338  12328     1  180.0000771  6.0668000  2
  12290  12289  12338  12328     1  180.0000771  1.4644000  4
  12291  12292  12294  12298     1  0.0000000  0.6508444  3
  12291  12292  12312  12313     1  0.0000000  1.0460000  1
  12291  12292  12312  12313     1  0.0000000  0.6694400  3
  12291  12302  12307  12308     1  0.0000000  1.0460000  1
  12291  12302  12307  12308     1  0.0000000  0.6694400  3
  12291  12309  12296  12299     1  0.0000000  1.6038667  3
  12292  12294  12295  12297     1  0.0000000  0.6508444  3
  12292  12294  12301  12303     1  0.0000000  1.0460000  1
  12292  12294  12301  12303     1  0.0000000  0.6694400  3
  12292  12291  12302  12305     1  0.0000000  0.6508444  3
  12292  12291  12302  12306     1  0.0000000  0.6508444  3
  12293  12291  12292  12294     1  0.0000000  0.6508444  3
  12293  12291  12292  12312     1  0.0000000  1.0460000  1
  12293  12291  12292  12312     1  0.0000000  0.0000000  3
  12293  12291  12292  12311     1  0.0000000  0.6508444  3
  12293  12291  12302  12307     1  0.0000000  1.0460000  1
  12293  12291  12302  12307     1  0.0000000  0.0000000  3
  12293  12291  12302  12305     1  0.0000000  0.6508444  3
  12293  12291  12302  12306     1  0.0000000  0.6508444  3
  12293  12291  12309  12296     1  0.0000000  1.6038667  3
  12294  12295  12296  12299     1  0.0000000  0.6508444  3
  12294  12295  12314  12304     1  0.0000000  1.2552000  3
  12294  12292  12312  12313     1  0.0000000  1.0460000  1
  12294  12292  12312  12313     1  0.0000000  0.6694400  3
  12295  12296  12300  12310     1  0.0000000  1.0460000  1
  12295  12296  12300  12310     1  0.0000000  0.6694400  3
  12295  12294  12301  12303     1  0.0000000  1.0460000  1
  12295  12294  12301  12303     1  0.0000000  0.6694400  3
  12295  12294  12292  12311     1  0.0000000  0.6508444  3
  12296  12295  12314  12304     1  0.0000000  1.2552000  3
  12296  12295  12294  12298     1  0.0000000  0.6508444  3
  12297  12295  12296  12300     1  0.0000000  1.0460000  1
  12297  12295  12296  12300     1  0.0000000  0.0000000  3
  12297  12295  12296  12309     1  0.0000000  1.0460000  1
  12297  12295  12296  12309     1  0.0000000  0.0000000  3
  12297  12295  12296  12299     1  0.0000000  0.6508444  3
  12297  12295  12314  12304     1  0.0000000  1.2552000  3
  12297  12295  12294  12301     1  0.0000000  1.0460000  1
  12297  12295  12294  12301     1  0.0000000  0.0000000  3
  12297  12295  12294  12298     1  0.0000000  0.6508444  3
  12298  12294  12295  12314     1  0.0000000  0.6508444  3
  12298  12294  12301  12303     1  0.0000000  0.6973333  3
  12298  12294  12292  12312     1  0.0000000  1.0460000  1
  12298  12294  12292  12312     1  0.0000000  0.0000000  3
  12298  12294  12292  12311     1  0.0000000  0.6508444  3
  12299  12296  12300  12310     1  0.0000000  0.6973333  3
  12299  12296  12295  12314     1  0.0000000  0.6508444  3
  12301  12294  12292  12311     1  0.0000000  1.0460000  1
  12301  12294  12292  12311     1  0.0000000  0.0000000  3
  12302  12291  12292  12311     1  0.0000000  0.6508444  3
  12305  12302  12307  12308     1  0.0000000  0.6973333  3
  12305  12302  12291  12309     1  0.0000000  1.0460000  1
  12305  12302  12291  12309     1  0.0000000  0.0000000  3
  12306  12302  12307  12308     1  0.0000000  0.6973333  3
  12306  12302  12291  12309     1  0.0000000  1.0460000  1
  12306  12302  12291  12309     1  0.0000000  0.0000000  3
  12309  12296  12300  12310     1  0.0000000  0.6973333  3
  12309  12291  12292  12311     1  0.0000000  1.0460000  1
  12309  12291  12292  12311     1  0.0000000  0.0000000  3
  12311  12292  12312  12313     1  0.0000000  0.6973333  3
  12315  12316  12318  12322     1  0.0000000  0.6508444  3
  12315  12316  12336  12337     1  0.0000000  1.0460000  1
  12315  12316  12336  12337     1  0.0000000  0.6694400  3
  12315  12326  12331  12332     1  0.0000000  1.0460000  1
  12315  12326  12331  12332     1  0.0000000  0.6694400  3
  12315  12333  12320  12323     1  0.0000000  1.6038667  3
  12316  12318  12319  12321     1  0.0000000  0.6508444  3
  12316  12318  12325  12327     1  0.0000000  1.0460000  1
  12316  12318  12325  12327     1  0.0000000  0.6694400  3
  12316  12315  12326  12329     1  0.0000000  0.6508444  3
  12316  12315  12326  12330     1  0.0000000  0.6508444  3
  12317  12315  12316  12318     1  0.0000000  0.6508444  3
  12317  12315  12316  12336     1  0.0000000  1.0460000  1
  12317  12315  12316  12336     1  0.0000000  0.0000000  3
  12317  12315  12316  12335     1  0.0000000  0.6508444  3
  12317  12315  12326  12331     1  0.0000000  1.0460000  1
  12317  12315  12326  12331     1  0.0000000  0.0000000  3
  12317  12315  12326  12329     1  0.0000000  0.6508444  3
  12317  12315  12326  12330     1  0.0000000  0.6508444  3
  12317  12315  12333  12320     1  0.0000000  1.6038667  3
  12318  12319  12320  12323     1  0.0000000  0.6508444  3
  12318  12319  12338  12328     1  0.0000000  1.2552000  3
  12318  12316  12336  12337     1  0.0000000  1.0460000  1
  12318  12316  12336  12337     1  0.0000000  0.6694400  3
  12319  12320  12324  12334     1  0.0000000  1.0460000  1
  12319  12320  12324  12334     1  0.0000000  0.6694400  3
  12319  12318  12325  12327     1  0.0000000  1.0460000  1
  12319  12318  12325  12327     1  0.0000000  0.6694400  3
  12319  12318  12316  12335     1  0.0000000  0.6508444  3
  12320  12319  12338  12328     1  0.0000000  1.2552000  3
  12320  12319  12318  12322     1  0.0000000  0.6508444  3
  12321  12319  12320  12324     1  0.0000000  1.0460000  1
  12321  12319  12320  12324     1  0.0000000  0.0000000  3
  12321  12319  12320  12333     1  0.0000000  1.0460000  1
  12321  12319  12320  12333     1  0.0000000  0.0000000  3
  12321  12319  12320  12323     1  0.0000000  0.6508444  3
  12321  12319  12338  12328     1  0.0000000  1.2552000  3
  12321  12319  12318  12325     1  0.0000000  1.0460000  1
  12321  12319  12318  12325     1  0.0000000  0.0000000  3
  12321  12319  12318  12322     1  0.0000000  0.6508444  3
  12322  12318  12319  12338     1  0.0000000  0.6508444  3
  12322  12318  12325  12327     1  0.0000000  0.6973333  3
  12322  12318  12316  12336     1  0.0000000  1.0460000  1
  12322  12318  12316  12336     1  0.0000000  0.0000000  3
  12322  12318  12316  12335     1  0.0000000  0.6508444  3
  12323  12320  12324  12334     1  0.0000000  0.6973333  3
  12323  12320  12319  12338     1  0.0000000  0.6508444  3
  12325  12318  12316  12335     1  0.0000000  1.0460000  1
  12325  12318  12316  12335     1  0.0000000  0.0000000  3
  12326  12315  12316  12335     1  0.0000000  0.6508444  3
  12329  12326  12331  12332     1  0.0000000  0.6973333  3
  12329  12326  12315  12333     1  0.0000000  1.0460000  1
  12329  12326  12315  12333     1  0.0000000  0.0000000  3
  12330  12326  12331  12332     1  0.0000000  0.6973333  3
  12330  12326  12315  12333     1  0.0000000  1.0460000  1
  12330  12326  12315  12333     1  0.0000000  0.0000000  3
  12333  12320  12324  12334     1  0.0000000  0.6973333  3
  12333  12315  12316  12335     1  0.0000000  1.0460000  1
  12333  12315  12316  12335     1  0.0000000  0.0000000  3
  12335  12316  12336  12337     1  0.0000000  0.6973333  3
  12339  12341  12343  12345     1  0.0000000  0.6508444  3
  12339  12341  12343  12346     1  0.0000000  0.6508444  3
  12340  12339  12341  12343     1  0.0000000  0.0000000  2
  12340  12339  12341  12342     1  0.0000000  0.0000000  2
  12340  12339  12341  12344     1  0.0000000  0.0000000  2
  12342  12341  12343  12347     1  0.0000000  0.6508444  3
  12342  12341  12343  12345     1  0.0000000  0.6508444  3
  12342  12341  12343  12346     1  0.0000000  0.6508444  3
  12343  12347  12348  12357     1  0.0000000  1.2552000  3
  12343  12347  12348  12358     1  0.0000000  1.2552000  3
  12343  12347  12349  12350     1  0.0000000  1.2552000  3
  12343  12347  12349  12352     1  0.0000000  1.2552000  3
  12344  12341  12343  12347     1  0.0000000  0.6508444  3
  12344  12341  12343  12345     1  0.0000000  0.6508444  3
  12344  12341  12343  12346     1  0.0000000  0.6508444  3
  12345  12343  12347  12348     1  0.0000000  1.2552000  3
  12345  12343  12347  12349     1  0.0000000  1.2552000  3
  12346  12343  12347  12348     1  0.0000000  1.2552000  3
  12346  12343  12347  12349     1  0.0000000  1.2552000  3
  12347  12348  12359  12360     1  0.0000000  0.6508444  3
  12347  12348  12359  12361     1  0.0000000  0.6508444  3
  12347  12349  12351  12353     1  0.0000000  0.6508444  3
  12347  12349  12351  12354     1  0.0000000  0.6508444  3
  12348  12347  12349  12350     1  0.0000000  1.2552000  3
  12348  12347  12349  12352     1  0.0000000  1.2552000  3
  12349  12347  12348  12357     1  0.0000000  1.2552000  3
  12349  12347  12348  12358     1  0.0000000  1.2552000  3
  12350  12349  12351  12355     1  0.0000000  0.6508444  3
  12350  12349  12351  12353     1  0.0000000  0.6508444  3
  12350  12349  12351  12354     1  0.0000000  0.6508444  3
  12351  12355  12387  12377     1  180.0000771  6.0668000  2
  12351  12355  12387  12377     1  180.0000771  1.4644000  4
  12352  12349  12351  12355     1  0.0000000  0.6508444  3
  12352  12349  12351  12353     1  0.0000000  0.6508444  3
  12352  12349  12351  12354     1  0.0000000  0.6508444  3
  12353  12351  12355  12356     1  0.0000000  3.3472000  1
  12353  12351  12355  12356     1  0.0000000  0.0000000  2
  12353  12351  12355  12356     1  180.0000771  0.3347200  3
  12353  12351  12355  12387     1  180.0000771  0.0000000  2
  12354  12351  12355  12356     1  0.0000000  3.3472000  1
  12354  12351  12355  12356     1  0.0000000  0.0000000  2
  12354  12351  12355  12356     1  180.0000771  0.3347200  3
  12354  12351  12355  12387     1  180.0000771  0.0000000  2
  12355  12387  12368  12370     1  0.0000000  1.2552000  3
  12356  12355  12387  12377     1  180.0000771  6.0668000  2
  12356  12355  12387  12377     1  180.0000771  1.4644000  4
  12357  12348  12359  12362     1  0.0000000  0.6508444  3
  12357  12348  12359  12360     1  0.0000000  0.6508444  3
  12357  12348  12359  12361     1  0.0000000  0.6508444  3
  12358  12348  12359  12362     1  0.0000000  0.6508444  3
  12358  12348  12359  12360     1  0.0000000  0.6508444  3
  12358  12348  12359  12361     1  0.0000000  0.6508444  3
  12359  12362  12411  12401     1  180.0000771  6.0668000  2
  12359  12362  12411  12401     1  180.0000771  1.4644000  4
  12360  12359  12362  12363     1  0.0000000  3.3472000  1
  12360  12359  12362  12363     1  0.0000000  0.0000000  2
  12360  12359  12362  12363     1  180.0000771  0.3347200  3
  12360  12359  12362  12411     1  180.0000771  0.0000000  2
  12361  12359  12362  12363     1  0.0000000  3.3472000  1
  12361  12359  12362  12363     1  0.0000000  0.0000000  2
  12361  12359  12362  12363     1  180.0000771  0.3347200  3
  12361  12359  12362  12411     1  180.0000771  0.0000000  2
  12362  12411  12392  12394     1  0.0000000  1.2552000  3
  12363  12362  12411  12401     1  180.0000771  6.0668000  2
  12363  12362  12411  12401     1  180.0000771  1.4644000  4
  12364  12365  12367  12371     1  0.0000000  0.6508444  3
  12364  12365  12385  12386     1  0.0000000  1.0460000  1
  12364  12365  12385  12386     1  0.0000000  0.6694400  3
  12364  12375  12380  12381     1  0.0000000  1.0460000  1
  12364  12375  12380  12381     1  0.0000000  0.6694400  3
  12364  12382  12369  12372     1  0.0000000  1.6038667  3
  12365  12364  12375  12378     1  0.0000000  0.6508444  3
  12365  12364  12375  12379     1  0.0000000  0.6508444  3
  12365  12367  12368  12370     1  0.0000000  0.6508444  3
  12365  12367  12374  12376     1  0.0000000  1.0460000  1
  12365  12367  12374  12376     1  0.0000000  0.6694400  3
  12366  12364  12365  12367     1  0.0000000  0.6508444  3
  12366  12364  12365  12385     1  0.0000000  1.0460000  1
  12366  12364  12365  12385     1  0.0000000  0.0000000  3
  12366  12364  12365  12384     1  0.0000000  0.6508444  3
  12366  12364  12375  12380     1  0.0000000  1.0460000  1
  12366  12364  12375  12380     1  0.0000000  0.0000000  3
  12366  12364  12375  12378     1  0.0000000  0.6508444  3
  12366  12364  12375  12379     1  0.0000000  0.6508444  3
  12366  12364  12382  12369     1  0.0000000  1.6038667  3
  12367  12365  12385  12386     1  0.0000000  1.0460000  1
  12367  12365  12385  12386     1  0.0000000  0.6694400  3
  12367  12368  12369  12372     1  0.0000000  0.6508444  3
  12367  12368  12387  12377     1  0.0000000  1.2552000  3
  12368  12367  12365  12384     1  0.0000000  0.6508444  3
  12368  12367  12374  12376     1  0.0000000  1.0460000  1
  12368  12367  12374  12376     1  0.0000000  0.6694400  3
  12368  12369  12373  12383     1  0.0000000  1.0460000  1
  12368  12369  12373  12383     1  0.0000000  0.6694400  3
  12369  12368  12367  12371     1  0.0000000  0.6508444  3
  12369  12368  12387  12377     1  0.0000000  1.2552000  3
  12370  12368  12367  12374     1  0.0000000  1.0460000  1
  12370  12368  12367  12374     1  0.0000000  0.0000000  3
  12370  12368  12367  12371     1  0.0000000  0.6508444  3
  12370  12368  12369  12373     1  0.0000000  1.0460000  1
  12370  12368  12369  12373     1  0.0000000  0.0000000  3
  12370  12368  12369  12382     1  0.0000000  1.0460000  1
  12370  12368  12369  12382     1  0.0000000  0.0000000  3
  12370  12368  12369  12372     1  0.0000000  0.6508444  3
  12370  12368  12387  12377     1  0.0000000  1.2552000  3
  12371  12367  12365  12385     1  0.0000000  1.0460000  1
  12371  12367  12365  12385     1  0.0000000  0.0000000  3
  12371  12367  12365  12384     1  0.0000000  0.6508444  3
  12371  12367  12368  12387     1  0.0000000  0.6508444  3
  12371  12367  12374  12376     1  0.0000000  0.6973333  3
  12372  12369  12368  12387     1  0.0000000  0.6508444  3
  12372  12369  12373  12383     1  0.0000000  0.6973333  3
  12374  12367  12365  12384     1  0.0000000  1.0460000  1
  12374  12367  12365  12384     1  0.0000000  0.0000000  3
  12375  12364  12365  12384     1  0.0000000  0.6508444  3
  12378  12375  12364  12382     1  0.0000000  1.0460000  1
  12378  12375  12364  12382     1  0.0000000  0.0000000  3
  12378  12375  12380  12381     1  0.0000000  0.6973333  3
  12379  12375  12364  12382     1  0.0000000  1.0460000  1
  12379  12375  12364  12382     1  0.0000000  0.0000000  3
  12379  12375  12380  12381     1  0.0000000  0.6973333  3
  12382  12364  12365  12384     1  0.0000000  1.0460000  1
  12382  12364  12365  12384     1  0.0000000  0.0000000  3
  12382  12369  12373  12383     1  0.0000000  0.6973333  3
  12384  12365  12385  12386     1  0.0000000  0.6973333  3
  12388  12389  12391  12395     1  0.0000000  0.6508444  3
  12388  12389  12409  12410     1  0.0000000  1.0460000  1
  12388  12389  12409  12410     1  0.0000000  0.6694400  3
  12388  12399  12404  12405     1  0.0000000  1.0460000  1
  12388  12399  12404  12405     1  0.0000000  0.6694400  3
  12388  12406  12393  12396     1  0.0000000  1.6038667  3
  12389  12388  12399  12402     1  0.0000000  0.6508444  3
  12389  12388  12399  12403     1  0.0000000  0.6508444  3
  12389  12391  12392  12394     1  0.0000000  0.6508444  3
  12389  12391  12398  12400     1  0.0000000  1.0460000  1
  12389  12391  12398  12400     1  0.0000000  0.6694400  3
  12390  12388  12389  12391     1  0.0000000  0.6508444  3
  12390  12388  12389  12409     1  0.0000000  1.0460000  1
  12390  12388  12389  12409     1  0.0000000  0.0000000  3
  12390  12388  12389  12408     1  0.0000000  0.6508444  3
  12390  12388  12399  12404     1  0.0000000  1.0460000  1
  12390  12388  12399  12404     1  0.0000000  0.0000000  3
  12390  12388  12399  12402     1  0.0000000  0.6508444  3
  12390  12388  12399  12403     1  0.0000000  0.6508444  3
  12390  12388  12406  12393     1  0.0000000  1.6038667  3
  12391  12389  12409  12410     1  0.0000000  1.0460000  1
  12391  12389  12409  12410     1  0.0000000  0.6694400  3
  12391  12392  12393  12396     1  0.0000000  0.6508444  3
  12391  12392  12411  12401     1  0.0000000  1.2552000  3
  12392  12391  12389  12408     1  0.0000000  0.6508444  3
  12392  12391  12398  12400     1  0.0000000  1.0460000  1
  12392  12391  12398  12400     1  0.0000000  0.6694400  3
  12392  12393  12397  12407     1  0.0000000  1.0460000  1
  12392  12393  12397  12407     1  0.0000000  0.6694400  3
  12393  12392  12391  12395     1  0.0000000  0.6508444  3
  12393  12392  12411  12401     1  0.0000000  1.2552000  3
  12394  12392  12391  12398     1  0.0000000  1.0460000  1
  12394  12392  12391  12398     1  0.0000000  0.0000000  3
  12394  12392  12391  12395     1  0.0000000  0.6508444  3
  12394  12392  12393  12397     1  0.0000000  1.0460000  1
  12394  12392  12393  12397     1  0.0000000  0.0000000  3
  12394  12392  12393  12406     1  0.0000000  1.0460000  1
  12394  12392  12393  12406     1  0.0000000  0.0000000  3
  12394  12392  12393  12396     1  0.0000000  0.6508444  3
  12394  12392  12411  12401     1  0.0000000  1.2552000  3
  12395  12391  12389  12409     1  0.0000000  1.0460000  1
  12395  12391  12389  12409     1  0.0000000  0.0000000  3
  12395  12391  12389  12408     1  0.0000000  0.6508444  3
  12395  12391  12392  12411     1  0.0000000  0.6508444  3
  12395  12391  12398  12400     1  0.0000000  0.6973333  3
  12396  12393  12392  12411     1  0.0000000  0.6508444  3
  12396  12393  12397  12407     1  0.0000000  0.6973333  3
  12398  12391  12389  12408     1  0.0000000  1.0460000  1
  12398  12391  12389  12408     1  0.0000000  0.0000000  3
  12399  12388  12389  12408     1  0.0000000  0.6508444  3
  12402  12399  12388  12406     1  0.0000000  1.0460000  1
  12402  12399  12388  12406     1  0.0000000  0.0000000  3
  12402  12399  12404  12405     1  0.0000000  0.6973333  3
  12403  12399  12388  12406     1  0.0000000  1.0460000  1
  12403  12399  12388  12406     1  0.0000000  0.0000000  3
  12403  12399  12404  12405     1  0.0000000  0.6973333  3
  12406  12388  12389  12408     1  0.0000000  1.0460000  1
  12406  12388  12389  12408     1  0.0000000  0.0000000  3
  12406  12393  12397  12407     1  0.0000000  0.6973333  3
  12408  12389  12409  12410     1  0.0000000  0.6973333  3
  12412  12414  12416  12418     1  0.0000000  0.6508444  3
  12412  12414  12416  12419     1  0.0000000  0.6508444  3
  12413  12412  12414  12416     1  0.0000000  0.0000000  2
  12413  12412  12414  12415     1  0.0000000  0.0000000  2
  12413  12412  12414  12417     1  0.0000000  0.0000000  2
  12415  12414  12416  12420     1  0.0000000  0.6508444  3
  12415  12414  12416  12418     1  0.0000000  0.6508444  3
  12415  12414  12416  12419     1  0.0000000  0.6508444  3
  12416  12420  12421  12430     1  0.0000000  1.2552000  3
  12416  12420  12421  12431     1  0.0000000  1.2552000  3
  12416  12420  12422  12423     1  0.0000000  1.2552000  3
  12416  12420  12422  12425     1  0.0000000  1.2552000  3
  12417  12414  12416  12420     1  0.0000000  0.6508444  3
  12417  12414  12416  12418     1  0.0000000  0.6508444  3
  12417  12414  12416  12419     1  0.0000000  0.6508444  3
  12418  12416  12420  12421     1  0.0000000  1.2552000  3
  12418  12416  12420  12422     1  0.0000000  1.2552000  3
  12419  12416  12420  12421     1  0.0000000  1.2552000  3
  12419  12416  12420  12422     1  0.0000000  1.2552000  3
  12420  12421  12432  12433     1  0.0000000  0.6508444  3
  12420  12421  12432  12434     1  0.0000000  0.6508444  3
  12420  12422  12424  12426     1  0.0000000  0.6508444  3
  12420  12422  12424  12427     1  0.0000000  0.6508444  3
  12421  12420  12422  12423     1  0.0000000  1.2552000  3
  12421  12420  12422  12425     1  0.0000000  1.2552000  3
  12422  12420  12421  12430     1  0.0000000  1.2552000  3
  12422  12420  12421  12431     1  0.0000000  1.2552000  3
  12423  12422  12424  12428     1  0.0000000  0.6508444  3
  12423  12422  12424  12426     1  0.0000000  0.6508444  3
  12423  12422  12424  12427     1  0.0000000  0.6508444  3
  12424  12428  12460  12450     1  180.0000771  6.0668000  2
  12424  12428  12460  12450     1  180.0000771  1.4644000  4
  12425  12422  12424  12428     1  0.0000000  0.6508444  3
  12425  12422  12424  12426     1  0.0000000  0.6508444  3
  12425  12422  12424  12427     1  0.0000000  0.6508444  3
  12426  12424  12428  12429     1  0.0000000  3.3472000  1
  12426  12424  12428  12429     1  0.0000000  0.0000000  2
  12426  12424  12428  12429     1  180.0000771  0.3347200  3
  12426  12424  12428  12460     1  180.0000771  0.0000000  2
  12427  12424  12428  12429     1  0.0000000  3.3472000  1
  12427  12424  12428  12429     1  0.0000000  0.0000000  2
  12427  12424  12428  12429     1  180.0000771  0.3347200  3
  12427  12424  12428  12460     1  180.0000771  0.0000000  2
  12428  12460  12441  12443     1  0.0000000  1.2552000  3
  12429  12428  12460  12450     1  180.0000771  6.0668000  2
  12429  12428  12460  12450     1  180.0000771  1.4644000  4
  12430  12421  12432  12435     1  0.0000000  0.6508444  3
  12430  12421  12432  12433     1  0.0000000  0.6508444  3
  12430  12421  12432  12434     1  0.0000000  0.6508444  3
  12431  12421  12432  12435     1  0.0000000  0.6508444  3
  12431  12421  12432  12433     1  0.0000000  0.6508444  3
  12431  12421  12432  12434     1  0.0000000  0.6508444  3
  12432  12435  12484  12474     1  180.0000771  6.0668000  2
  12432  12435  12484  12474     1  180.0000771  1.4644000  4
  12433  12432  12435  12436     1  0.0000000  3.3472000  1
  12433  12432  12435  12436     1  0.0000000  0.0000000  2
  12433  12432  12435  12436     1  180.0000771  0.3347200  3
  12433  12432  12435  12484     1  180.0000771  0.0000000  2
  12434  12432  12435  12436     1  0.0000000  3.3472000  1
  12434  12432  12435  12436     1  0.0000000  0.0000000  2
  12434  12432  12435  12436     1  180.0000771  0.3347200  3
  12434  12432  12435  12484     1  180.0000771  0.0000000  2
  12435  12484  12465  12467     1  0.0000000  1.2552000  3
  12436  12435  12484  12474     1  180.0000771  6.0668000  2
  12436  12435  12484  12474     1  180.0000771  1.4644000  4
  12437  12438  12440  12444     1  0.0000000  0.6508444  3
  12437  12438  12458  12459     1  0.0000000  1.0460000  1
  12437  12438  12458  12459     1  0.0000000  0.6694400  3
  12437  12448  12453  12454     1  0.0000000  1.0460000  1
  12437  12448  12453  12454     1  0.0000000  0.6694400  3
  12437  12455  12442  12445     1  0.0000000  1.6038667  3
  12438  12440  12441  12443     1  0.0000000  0.6508444  3
  12438  12440  12447  12449     1  0.0000000  1.0460000  1
  12438  12440  12447  12449     1  0.0000000  0.6694400  3
  12438  12437  12448  12451     1  0.0000000  0.6508444  3
  12438  12437  12448  12452     1  0.0000000  0.6508444  3
  12439  12437  12438  12440     1  0.0000000  0.6508444  3
  12439  12437  12438  12458     1  0.0000000  1.0460000  1
  12439  12437  12438  12458     1  0.0000000  0.0000000  3
  12439  12437  12438  12457     1  0.0000000  0.6508444  3
  12439  12437  12448  12453     1  0.0000000  1.0460000  1
  12439  12437  12448  12453     1  0.0000000  0.0000000  3
  12439  12437  12448  12451     1  0.0000000  0.6508444  3
  12439  12437  12448  12452     1  0.0000000  0.6508444  3
  12439  12437  12455  12442     1  0.0000000  1.6038667  3
  12440  12441  12442  12445     1  0.0000000  0.6508444  3
  12440  12441  12460  12450     1  0.0000000  1.2552000  3
  12440  12438  12458  12459     1  0.0000000  1.0460000  1
  12440  12438  12458  12459     1  0.0000000  0.6694400  3
  12441  12442  12446  12456     1  0.0000000  1.0460000  1
  12441  12442  12446  12456     1  0.0000000  0.6694400  3
  12441  12440  12447  12449     1  0.0000000  1.0460000  1
  12441  12440  12447  12449     1  0.0000000  0.6694400  3
  12441  12440  12438  12457     1  0.0000000  0.6508444  3
  12442  12441  12460  12450     1  0.0000000  1.2552000  3
  12442  12441  12440  12444     1  0.0000000  0.6508444  3
  12443  12441  12442  12446     1  0.0000000  1.0460000  1
  12443  12441  12442  12446     1  0.0000000  0.0000000  3
  12443  12441  12442  12455     1  0.0000000  1.0460000  1
  12443  12441  12442  12455     1  0.0000000  0.0000000  3
  12443  12441  12442  12445     1  0.0000000  0.6508444  3
  12443  12441  12460  12450     1  0.0000000  1.2552000  3
  12443  12441  12440  12447     1  0.0000000  1.0460000  1
  12443  12441  12440  12447     1  0.0000000  0.0000000  3
  12443  12441  12440  12444     1  0.0000000  0.6508444  3
  12444  12440  12441  12460     1  0.0000000  0.6508444  3
  12444  12440  12447  12449     1  0.0000000  0.6973333  3
  12444  12440  12438  12458     1  0.0000000  1.0460000  1
  12444  12440  12438  12458     1  0.0000000  0.0000000  3
  12444  12440  12438  12457     1  0.0000000  0.6508444  3
  12445  12442  12446  12456     1  0.0000000  0.6973333  3
  12445  12442  12441  12460     1  0.0000000  0.6508444  3
  12447  12440  12438  12457     1  0.0000000  1.0460000  1
  12447  12440  12438  12457     1  0.0000000  0.0000000  3
  12448  12437  12438  12457     1  0.0000000  0.6508444  3
  12451  12448  12453  12454     1  0.0000000  0.6973333  3
  12451  12448  12437  12455     1  0.0000000  1.0460000  1
  12451  12448  12437  12455     1  0.0000000  0.0000000  3
  12452  12448  12453  12454     1  0.0000000  0.6973333  3
  12452  12448  12437  12455     1  0.0000000  1.0460000  1
  12452  12448  12437  12455     1  0.0000000  0.0000000  3
  12455  12442  12446  12456     1  0.0000000  0.6973333  3
  12455  12437  12438  12457     1  0.0000000  1.0460000  1
  12455  12437  12438  12457     1  0.0000000  0.0000000  3
  12457  12438  12458  12459     1  0.0000000  0.6973333  3
  12461  12462  12464  12468     1  0.0000000  0.6508444  3
  12461  12462  12482  12483     1  0.0000000  1.0460000  1
  12461  12462  12482  12483     1  0.0000000  0.6694400  3
  12461  12472  12477  12478     1  0.0000000  1.0460000  1
  12461  12472  12477  12478     1  0.0000000  0.6694400  3
  12461  12479  12466  12469     1  0.0000000  1.6038667  3
  12462  12464  12465  12467     1  0.0000000  0.6508444  3
  12462  12464  12471  12473     1  0.0000000  1.0460000  1
  12462  12464  12471  12473     1  0.0000000  0.6694400  3
  12462  12461  12472  12475     1  0.0000000  0.6508444  3
  12462  12461  12472  12476     1  0.0000000  0.6508444  3
  12463  12461  12462  12464     1  0.0000000  0.6508444  3
  12463  12461  12462  12482     1  0.0000000  1.0460000  1
  12463  12461  12462  12482     1  0.0000000  0.0000000  3
  12463  12461  12462  12481     1  0.0000000  0.6508444  3
  12463  12461  12472  12477     1  0.0000000  1.0460000  1
  12463  12461  12472  12477     1  0.0000000  0.0000000  3
  12463  12461  12472  12475     1  0.0000000  0.6508444  3
  12463  12461  12472  12476     1  0.0000000  0.6508444  3
  12463  12461  12479  12466     1  0.0000000  1.6038667  3
  12464  12465  12466  12469     1  0.0000000  0.6508444  3
  12464  12465  12484  12474     1  0.0000000  1.2552000  3
  12464  12462  12482  12483     1  0.0000000  1.0460000  1
  12464  12462  12482  12483     1  0.0000000  0.6694400  3
  12465  12466  12470  12480     1  0.0000000  1.0460000  1
  12465  12466  12470  12480     1  0.0000000  0.6694400  3
  12465  12464  12471  12473     1  0.0000000  1.0460000  1
  12465  12464  12471  12473     1  0.0000000  0.6694400  3
  12465  12464  12462  12481     1  0.0000000  0.6508444  3
  12466  12465  12484  12474     1  0.0000000  1.2552000  3
  12466  12465  12464  12468     1  0.0000000  0.6508444  3
  12467  12465  12466  12470     1  0.0000000  1.0460000  1
  12467  12465  12466  12470     1  0.0000000  0.0000000  3
  12467  12465  12466  12479     1  0.0000000  1.0460000  1
  12467  12465  12466  12479     1  0.0000000  0.0000000  3
  12467  12465  12466  12469     1  0.0000000  0.6508444  3
  12467  12465  12484  12474     1  0.0000000  1.2552000  3
  12467  12465  12464  12471     1  0.0000000  1.0460000  1
  12467  12465  12464  12471     1  0.0000000  0.0000000  3
  12467  12465  12464  12468     1  0.0000000  0.6508444  3
  12468  12464  12465  12484     1  0.0000000  0.6508444  3
  12468  12464  12471  12473     1  0.0000000  0.6973333  3
  12468  12464  12462  12482     1  0.0000000  1.0460000  1
  12468  12464  12462  12482     1  0.0000000  0.0000000  3
  12468  12464  12462  12481     1  0.0000000  0.6508444  3
  12469  12466  12470  12480     1  0.0000000  0.6973333  3
  12469  12466  12465  12484     1  0.0000000  0.6508444  3
  12471  12464  12462  12481     1  0.0000000  1.0460000  1
  12471  12464  12462  12481     1  0.0000000  0.0000000  3
  12472  12461  12462  12481     1  0.0000000  0.6508444  3
  12475  12472  12477  12478     1  0.0000000  0.6973333  3
  12475  12472  12461  12479     1  0.0000000  1.0460000  1
  12475  12472  12461  12479     1  0.0000000  0.0000000  3
  12476  12472  12477  12478     1  0.0000000  0.6973333  3
  12476  12472  12461  12479     1  0.0000000  1.0460000  1
  12476  12472  12461  12479     1  0.0000000  0.0000000  3
  12479  12466  12470  12480     1  0.0000000  0.6973333  3
  12479  12461  12462  12481     1  0.0000000  1.0460000  1
  12479  12461  12462  12481     1  0.0000000  0.0000000  3
  12481  12462  12482  12483     1  0.0000000  0.6973333  3
     33     44     64     65     4  180.0000771  4.6024000  2
     34     69     89     90     4  180.0000771  4.6024000  2
     35     94    114    115     4  180.0000771  4.6024000  2
     36    119    139    140     4  180.0000771  4.6024000  2
     60    144    164    165     4  180.0000771  4.6024000  2
     61    169    189    190     4  180.0000771  4.6024000  2
     85    194    214    215     4  180.0000771  4.6024000  2
     86    219    239    240     4  180.0000771  4.6024000  2
    110    244    264    265     4  180.0000771  4.6024000  2
    111    269    289    290     4  180.0000771  4.6024000  2
    135    294    314    315     4  180.0000771  4.6024000  2
    136    319    339    340     4  180.0000771  4.6024000  2
    160    344    364    365     4  180.0000771  4.6024000  2
    161    369    389    390     4  180.0000771  4.6024000  2
    185    394    414    415     4  180.0000771  4.6024000  2
    186    419    439    440     4  180.0000771  4.6024000  2
    210    444    464    465     4  180.0000771  4.6024000  2
    211    469    489    490     4  180.0000771  4.6024000  2
    235    494    514    515     4  180.0000771  4.6024000  2
    236    519    539    540     4  180.0000771  4.6024000  2
    260    544    564    565     4  180.0000771  4.6024000  2
    261    569    589    590     4  180.0000771  4.6024000  2
    285    594    614    615     4  180.0000771  4.6024000  2
    286    619    639    640     4  180.0000771  4.6024000  2
    310    644    664    665     4  180.0000771  4.6024000  2
    311    669    689    690     4  180.0000771  4.6024000  2
    335    694    714    715     4  180.0000771  4.6024000  2
    336    719    739    740     4  180.0000771  4.6024000  2
    360    744    764    765     4  180.0000771  4.6024000  2
    361    769    789    790     4  180.0000771  4.6024000  2
    385    794    814    815     4  180.0000771  4.6024000  2
    386    819    839    840     4  180.0000771  4.6024000  2
    410    844    864    865     4  180.0000771  4.6024000  2
    411    869    889    890     4  180.0000771  4.6024000  2
    435    894    914    915     4  180.0000771  4.6024000  2
    436    919    939    940     4  180.0000771  4.6024000  2
    460    944    964    965     4  180.0000771  4.6024000  2
    461    969    989    990     4  180.0000771  4.6024000  2
    485    994   1014   1015     4  180.0000771  4.6024000  2
    486   1019   1039   1040     4  180.0000771  4.6024000  2
    510   1044   1064   1065     4  180.0000771  4.6024000  2
    511   1069   1089   1090     4  180.0000771  4.6024000  2
    535   1094   1114   1115     4  180.0000771  4.6024000  2
    536   1119   1139   1140     4  180.0000771  4.6024000  2
    560   1144   1164   1165     4  180.0000771  4.6024000  2
    561   1169   1189   1190     4  180.0000771  4.6024000  2
    585   1194   1214   1215     4  180.0000771  4.6024000  2
    586   1219   1239   1240     4  180.0000771  4.6024000  2
    610   1244   1264   1265     4  180.0000771  4.6024000  2
    611   1269   1289   1290     4  180.0000771  4.6024000  2
    635   1294   1314   1315     4  180.0000771  4.6024000  2
    636   1319   1339   1340     4  180.0000771  4.6024000  2
    660   1344   1364   1365     4  180.0000771  4.6024000  2
    661   1369   1389   1390     4  180.0000771  4.6024000  2
    685   1394   1414   1415     4  180.0000771  4.6024000  2
    686   1419   1439   1440     4  180.0000771  4.6024000  2
    710   1444   1464   1465     4  180.0000771  4.6024000  2
    711   1469   1489   1490     4  180.0000771  4.6024000  2
    735   1494   1514   1515     4  180.0000771  4.6024000  2
    736   1519   1539   1540     4  180.0000771  4.6024000  2
    760   1544   1564   1565     4  180.0000771  4.6024000  2
    761   1569   1589   1590     4  180.0000771  4.6024000  2
    785   1594   1614   1615     4  180.0000771  4.6024000  2
    786   1619   1639   1640     4  180.0000771  4.6024000  2
    810   1644   1664   1665     4  180.0000771  4.6024000  2
    811   1669   1689   1690     4  180.0000771  4.6024000  2
    835   1694   1714   1715     4  180.0000771  4.6024000  2
    836   1719   1739   1740     4  180.0000771  4.6024000  2
    860   1744   1764   1765     4  180.0000771  4.6024000  2
    861   1769   1789   1790     4  180.0000771  4.6024000  2
    885   1794   1814   1815     4  180.0000771  4.6024000  2
    886   1819   1839   1840     4  180.0000771  4.6024000  2
    910   1844   1864   1865     4  180.0000771  4.6024000  2
    911   1869   1889   1890     4  180.0000771  4.6024000  2
    935   1894   1914   1915     4  180.0000771  4.6024000  2
    936   1919   1939   1940     4  180.0000771  4.6024000  2
    960   1944   1964   1965     4  180.0000771  4.6024000  2
    961   1969   1989   1990     4  180.0000771  4.6024000  2
    985   1994   2014   2015     4  180.0000771  4.6024000  2
    986   2019   2039   2040     4  180.0000771  4.6024000  2
   1010   2044   2064   2065     4  180.0000771  4.6024000  2
   1011   2069   2089   2090     4  180.0000771  4.6024000  2
   1035   2094   2114   2115     4  180.0000771  4.6024000  2
   1036   2119   2139   2140     4  180.0000771  4.6024000  2
   1060   2144   2164   2165     4  180.0000771  4.6024000  2
   1061   2169   2189   2190     4  180.0000771  4.6024000  2
   1085   2194   2214   2215     4  180.0000771  4.6024000  2
   1086   2219   2239   2240     4  180.0000771  4.6024000  2
   1110   2244   2264   2265     4  180.0000771  4.6024000  2
   1111   2269   2289   2290     4  180.0000771  4.6024000  2
   1135   2294   2314   2315     4  180.0000771  4.6024000  2
   1136   2319   2339   2340     4  180.0000771  4.6024000  2
   1160   2344   2364   2365     4  180.0000771  4.6024000  2
   1161   2369   2389   2390     4  180.0000771  4.6024000  2
   1185   2394   2414   2415     4  180.0000771  4.6024000  2
   1186   2419   2439   2440     4  180.0000771  4.6024000  2
   1210   2444   2464   2465     4  180.0000771  4.6024000  2
   1211   2469   2489   2490     4  180.0000771  4.6024000  2
   1235   2494   2514   2515     4  180.0000771  4.6024000  2
   1236   2519   2539   2540     4  180.0000771  4.6024000  2
   1260   2544   2564   2565     4  180.0000771  4.6024000  2
   1261   2569   2589   2590     4  180.0000771  4.6024000  2
   1285   2594   2614   2615     4  180.0000771  4.6024000  2
   1286   2619   2639   2640     4  180.0000771  4.6024000  2
   1310   2644   2664   2665     4  180.0000771  4.6024000  2
   1311   2669   2689   2690     4  180.0000771  4.6024000  2
   1335   2694   2714   2715     4  180.0000771  4.6024000  2
   1336   2719   2739   2740     4  180.0000771  4.6024000  2
   1360   2744   2764   2765     4  180.0000771  4.6024000  2
   1361   2769   2789   2790     4  180.0000771  4.6024000  2
   1385   2794   2814   2815     4  180.0000771  4.6024000  2
   1386   2819   2839   2840     4  180.0000771  4.6024000  2
   1410   2844   2864   2865     4  180.0000771  4.6024000  2
   1411   2869   2889   2890     4  180.0000771  4.6024000  2
   1435   2894   2914   2915     4  180.0000771  4.6024000  2
   1436   2919   2939   2940     4  180.0000771  4.6024000  2
   1460   2944   2964   2965     4  180.0000771  4.6024000  2
   1461   2969   2989   2990     4  180.0000771  4.6024000  2
   1485   2994   3014   3015     4  180.0000771  4.6024000  2
   1486   3019   3039   3040     4  180.0000771  4.6024000  2
   1510   3044   3064   3065     4  180.0000771  4.6024000  2
   1511   3069   3089   3090     4  180.0000771  4.6024000  2
   1535   3094   3114   3115     4  180.0000771  4.6024000  2
   1536   3119   3139   3140     4  180.0000771  4.6024000  2
   1560   3143   3141   3142     4  180.0000771  4.6024000  2
   1561   3216   3214   3215     4  180.0000771  4.6024000  2
   1585   3289   3287   3288     4  180.0000771  4.6024000  2
   1586   3362   3360   3361     4  180.0000771  4.6024000  2
   1610   3435   3433   3434     4  180.0000771  4.6024000  2
   1611   3508   3506   3507     4  180.0000771  4.6024000  2
   1635   3581   3579   3580     4  180.0000771  4.6024000  2
   1636   3654   3652   3653     4  180.0000771  4.6024000  2
   1660   3727   3725   3726     4  180.0000771  4.6024000  2
   1661   3800   3798   3799     4  180.0000771  4.6024000  2
   1685   3873   3871   3872     4  180.0000771  4.6024000  2
   1686   3946   3944   3945     4  180.0000771  4.6024000  2
   1710   4019   4017   4018     4  180.0000771  4.6024000  2
   1711   4092   4090   4091     4  180.0000771  4.6024000  2
   1735   4165   4163   4164     4  180.0000771  4.6024000  2
   1736   4238   4236   4237     4  180.0000771  4.6024000  2
   1760   4311   4309   4310     4  180.0000771  4.6024000  2
   1761   4384   4382   4383     4  180.0000771  4.6024000  2
   1785   4457   4455   4456     4  180.0000771  4.6024000  2
   1786   4530   4528   4529     4  180.0000771  4.6024000  2
   1810   4603   4601   4602     4  180.0000771  4.6024000  2
   1811   4676   4674   4675     4  180.0000771  4.6024000  2
   1835   4749   4747   4748     4  180.0000771  4.6024000  2
   1836   4822   4820   4821     4  180.0000771  4.6024000  2
   1860   4895   4893   4894     4  180.0000771  4.6024000  2
   1861   4968   4966   4967     4  180.0000771  4.6024000  2
   1885   5041   5039   5040     4  180.0000771  4.6024000  2
   1886   5114   5112   5113     4  180.0000771  4.6024000  2
   1910   5187   5185   5186     4  180.0000771  4.6024000  2
   1911   5260   5258   5259     4  180.0000771  4.6024000  2
   1935   5333   5331   5332     4  180.0000771  4.6024000  2
   1936   5406   5404   5405     4  180.0000771  4.6024000  2
   1960   5479   5477   5478     4  180.0000771  4.6024000  2
   1961   5552   5550   5551     4  180.0000771  4.6024000  2
   1985   5625   5623   5624     4  180.0000771  4.6024000  2
   1986   5698   5696   5697     4  180.0000771  4.6024000  2
   2010   5771   5769   5770     4  180.0000771  4.6024000  2
   2011   5844   5842   5843     4  180.0000771  4.6024000  2
   2035   5917   5915   5916     4  180.0000771  4.6024000  2
   2036   5990   5988   5989     4  180.0000771  4.6024000  2
   2060   6063   6061   6062     4  180.0000771  4.6024000  2
   2061   6136   6134   6135     4  180.0000771  4.6024000  2
   2085   6209   6207   6208     4  180.0000771  4.6024000  2
   2086   6282   6280   6281     4  180.0000771  4.6024000  2
   2110   6355   6353   6354     4  180.0000771  4.6024000  2
   2111   6428   6426   6427     4  180.0000771  4.6024000  2
   2135   6501   6499   6500     4  180.0000771  4.6024000  2
   2136   6574   6572   6573     4  180.0000771  4.6024000  2
   2160   6647   6645   6646     4  180.0000771  4.6024000  2
   2161   6720   6718   6719     4  180.0000771  4.6024000  2
   2185   6793   6791   6792     4  180.0000771  4.6024000  2
   2186   6866   6864   6865     4  180.0000771  4.6024000  2
   2210   6939   6937   6938     4  180.0000771  4.6024000  2
   2211   7012   7010   7011     4  180.0000771  4.6024000  2
   2235   7085   7083   7084     4  180.0000771  4.6024000  2
   2236   7158   7156   7157     4  180.0000771  4.6024000  2
   2260   7231   7229   7230     4  180.0000771  4.6024000  2
   2261   7304   7302   7303     4  180.0000771  4.6024000  2
   2285   7377   7375   7376     4  180.0000771  4.6024000  2
   2286   7450   7448   7449     4  180.0000771  4.6024000  2
   2310   7523   7521   7522     4  180.0000771  4.6024000  2
   2311   7596   7594   7595     4  180.0000771  4.6024000  2
   2335   7669   7667   7668     4  180.0000771  4.6024000  2
   2336   7742   7740   7741     4  180.0000771  4.6024000  2
   2360   7815   7813   7814     4  180.0000771  4.6024000  2
   2361   7888   7886   7887     4  180.0000771  4.6024000  2
   2385   7961   7959   7960     4  180.0000771  4.6024000  2
   2386   8034   8032   8033     4  180.0000771  4.6024000  2
   2410   8107   8105   8106     4  180.0000771  4.6024000  2
   2411   8180   8178   8179     4  180.0000771  4.6024000  2
   2435   8253   8251   8252     4  180.0000771  4.6024000  2
   2436   8326   8324   8325     4  180.0000771  4.6024000  2
   2460   8399   8397   8398     4  180.0000771  4.6024000  2
   2461   8472   8470   8471     4  180.0000771  4.6024000  2
   2485   8545   8543   8544     4  180.0000771  4.6024000  2
   2486   8618   8616   8617     4  180.0000771  4.6024000  2
   2510   8691   8689   8690     4  180.0000771  4.6024000  2
   2511   8764   8762   8763     4  180.0000771  4.6024000  2
   2535   8837   8835   8836     4  180.0000771  4.6024000  2
   2536   8910   8908   8909     4  180.0000771  4.6024000  2
   2560   8983   8981   8982     4  180.0000771  4.6024000  2
   2561   9056   9054   9055     4  180.0000771  4.6024000  2
   2585   9129   9127   9128     4  180.0000771  4.6024000  2
   2586   9202   9200   9201     4  180.0000771  4.6024000  2
   2610   9275   9273   9274     4  180.0000771  4.6024000  2
   2611   9348   9346   9347     4  180.0000771  4.6024000  2
   2635   9421   9419   9420     4  180.0000771  4.6024000  2
   2636   9494   9492   9493     4  180.0000771  4.6024000  2
   2660   9567   9565   9566     4  180.0000771  4.6024000  2
   2661   9640   9638   9639     4  180.0000771  4.6024000  2
   2685   9713   9711   9712     4  180.0000771  4.6024000  2
   2686   9786   9784   9785     4  180.0000771  4.6024000  2
   2710   9859   9857   9858     4  180.0000771  4.6024000  2
   2711   9932   9930   9931     4  180.0000771  4.6024000  2
   2735  10005  10003  10004     4  180.0000771  4.6024000  2
   2736  10078  10076  10077     4  180.0000771  4.6024000  2
   2760  10151  10149  10150     4  180.0000771  4.6024000  2
   2761  10224  10222  10223     4  180.0000771  4.6024000  2
   2785  10297  10295  10296     4  180.0000771  4.6024000  2
   2786  10370  10368  10369     4  180.0000771  4.6024000  2
   2810  10443  10441  10442     4  180.0000771  4.6024000  2
   2811  10516  10514  10515     4  180.0000771  4.6024000  2
   2835  10589  10587  10588     4  180.0000771  4.6024000  2
   2836  10662  10660  10661     4  180.0000771  4.6024000  2
   2860  10735  10733  10734     4  180.0000771  4.6024000  2
   2861  10808  10806  10807     4  180.0000771  4.6024000  2
   2885  10881  10879  10880     4  180.0000771  4.6024000  2
   2886  10954  10952  10953     4  180.0000771  4.6024000  2
   2910  11027  11025  11026     4  180.0000771  4.6024000  2
   2911  11100  11098  11099     4  180.0000771  4.6024000  2
   2935  11173  11171  11172     4  180.0000771  4.6024000  2
   2936  11246  11244  11245     4  180.0000771  4.6024000  2
   2960  11319  11317  11318     4  180.0000771  4.6024000  2
   2961  11392  11390  11391     4  180.0000771  4.6024000  2
   2985  11465  11463  11464     4  180.0000771  4.6024000  2
   2986  11538  11536  11537     4  180.0000771  4.6024000  2
   3010  11611  11609  11610     4  180.0000771  4.6024000  2
   3011  11684  11682  11683     4  180.0000771  4.6024000  2
   3035  11757  11755  11756     4  180.0000771  4.6024000  2
   3036  11830  11828  11829     4  180.0000771  4.6024000  2
   3060  11903  11901  11902     4  180.0000771  4.6024000  2
   3061  11976  11974  11975     4  180.0000771  4.6024000  2
   3085  12049  12047  12048     4  180.0000771  4.6024000  2
   3086  12122  12120  12121     4  180.0000771  4.6024000  2
   3110  12195  12193  12194     4  180.0000771  4.6024000  2
   3111  12268  12266  12267     4  180.0000771  4.6024000  2
   3135  12341  12339  12340     4  180.0000771  4.6024000  2
   3136  12414  12412  12413     4  180.0000771  4.6024000  2

;[ system ]
;; Name
;Generic title
;
;[ molecules ]
;; Compound       #mols
;system1              1
