;
;   File g4.5dp_cooh_pamam.itp  was generated
;   By user: sairam (1000)
;   On host: sairam
;   At date: Tue. February  2 11:26:02 2025
;
;   This is a standalone topology file
;
;   Created by:
;   ParmEd:       amb2gro_top_gro.py, VERSION 3.4.1
;   Executable:   amb2gro_top_gro.py
;   Library dir:  /usr/local/gromacs/share/gromacs/top
;   Command line:
;     ./amb2gro_top_gro.py -p g4.5dp_cooh_pamam.prmtop -c g4.5dp_cooh_pamam.inpcrd -t g4.5dp_cooh_pamam.itp -g g4.5dp_cooh_pamam.gro -b g4.5dp_cooh_pamam.pdb
;

;[ defaults ]
;; nbfunc        comb-rule       gen-pairs       fudgeLJ fudgeQQ
;1               2               yes             0.5          0.83333333  
;
;[ atomtypes ]
;; name    at.num    mass    charge ptype  sigma      epsilon
;n4             7  14.010000  0.00000000  A     0.32499985        0.71128
;c3             6  12.010000  0.00000000  A     0.33996695      0.4577296
;c              6  12.010000  0.00000000  A     0.33996695       0.359824
;o              8  16.000000  0.00000000  A     0.29599219        0.87864
;hx             1   1.008000  0.00000000  A     0.19599772      0.0656888
;hc             1   1.008000  0.00000000  A     0.26495328      0.0656888
;hn             1   1.008000  0.00000000  A     0.10690785      0.0656888
;n              7  14.010000  0.00000000  A     0.32499985        0.71128
;h1             1   1.008000  0.00000000  A      0.2471353      0.0656888
;oh             8  16.000000  0.00000000  A     0.30664734      0.8803136
;ho             1   1.008000  0.00000000  A              0              0


[ moleculetype ]
; Name            nrexcl
g4.5dp_cooh_pamam          3

[ atoms ]
;   nr       type  resnr residue  atom   cgnr    charge       mass  typeB    chargeB      massB
; residue    1 aaa rtp aaa q 2.0
    1         n4      1    aaa     N1      1 -0.01815100  14.010000   ; qtot -0.018151
    2         c3      1    aaa     C1      2 0.01243000  12.010000   ; qtot -0.005721
    3         c3      1    aaa     C2      3 0.01243000  12.010000   ; qtot 0.006709
    4         n4      1    aaa     N2      4 -0.01815100  14.010000   ; qtot -0.011442
    5         c3      1    aaa     C3      5 -0.01431700  12.010000   ; qtot -0.025759
    6         c3      1    aaa     C4      6 -0.01431700  12.010000   ; qtot -0.040076
    7         c3      1    aaa     C5      7 -0.01431700  12.010000   ; qtot -0.054393
    8         c3      1    aaa     C6      8 -0.01431700  12.010000   ; qtot -0.068710
    9         c3      1    aaa     C7      9 -0.26758200  12.010000   ; qtot -0.336292
   10          c      1    aaa     C8     10 0.71337400  12.010000   ; qtot 0.377082
   11         c3      1    aaa     C9     11 -0.26758200  12.010000   ; qtot 0.109500
   12          c      1    aaa    C10     12 0.71337400  12.010000   ; qtot 0.822874
   13         c3      1    aaa    C11     13 -0.26758200  12.010000   ; qtot 0.555292
   14          c      1    aaa    C12     14 0.71337400  12.010000   ; qtot 1.268666
   15         c3      1    aaa    C13     15 -0.26758200  12.010000   ; qtot 1.001084
   16          c      1    aaa    C14     16 0.71337400  12.010000   ; qtot 1.714458
   17          o      1    aaa     O1     17 -0.55531800  16.000000   ; qtot 1.159140
   18          o      1    aaa     O2     18 -0.55531800  16.000000   ; qtot 0.603822
   19          o      1    aaa     O3     19 -0.55531800  16.000000   ; qtot 0.048504
   20          o      1    aaa     O4     20 -0.55531800  16.000000   ; qtot -0.506814
   21         hx      1    aaa     H1     21 0.08276100   1.008000   ; qtot -0.424053
   22         hx      1    aaa     H2     22 0.08276100   1.008000   ; qtot -0.341292
   23         hx      1    aaa     H3     23 0.08276100   1.008000   ; qtot -0.258531
   24         hx      1    aaa     H4     24 0.08276100   1.008000   ; qtot -0.175770
   25         hx      1    aaa     H5     25 0.10467000   1.008000   ; qtot -0.071100
   26         hx      1    aaa     H6     26 0.10467000   1.008000   ; qtot 0.033570
   27         hx      1    aaa     H7     27 0.10467000   1.008000   ; qtot 0.138240
   28         hx      1    aaa     H8     28 0.10467000   1.008000   ; qtot 0.242910
   29         hx      1    aaa     H9     29 0.10467000   1.008000   ; qtot 0.347580
   30         hx      1    aaa    H10     30 0.10467000   1.008000   ; qtot 0.452250
   31         hx      1    aaa    H11     31 0.10467000   1.008000   ; qtot 0.556920
   32         hx      1    aaa    H12     32 0.10467000   1.008000   ; qtot 0.661590
   33         hc      1    aaa    H13     33 0.11830200   1.008000   ; qtot 0.779892
   34         hc      1    aaa    H14     34 0.11830200   1.008000   ; qtot 0.898194
   35         hc      1    aaa    H15     35 0.11830200   1.008000   ; qtot 1.016496
   36         hc      1    aaa    H16     36 0.11830200   1.008000   ; qtot 1.134798
   37         hc      1    aaa    H17     37 0.11830200   1.008000   ; qtot 1.253100
   38         hc      1    aaa    H18     38 0.11830200   1.008000   ; qtot 1.371402
   39         hc      1    aaa    H19     39 0.11830200   1.008000   ; qtot 1.489704
   40         hc      1    aaa    H20     40 0.11830200   1.008000   ; qtot 1.608006
   41         hn      1    aaa    H37     41 0.19599700   1.008000   ; qtot 1.804003
   42         hn      1    aaa    H38     42 0.19599700   1.008000   ; qtot 2.000000
; residue    2 bbb rtp bbb q 1.0
   43         n4      2    bbb     N1     43 -0.02747900  14.010000   ; qtot 1.972521
   44         c3      2    bbb     C1     44 -0.05097600  12.010000   ; qtot 1.921545
   45         c3      2    bbb     C2     45 -0.05097600  12.010000   ; qtot 1.870569
   46         c3      2    bbb     C3     46 -0.18457900  12.010000   ; qtot 1.685990
   47          c      2    bbb     C4     47 0.67254400  12.010000   ; qtot 2.358534
   48         c3      2    bbb     C5     48 -0.18457900  12.010000   ; qtot 2.173955
   49          c      2    bbb     C6     49 0.67254400  12.010000   ; qtot 2.846499
   50         c3      2    bbb     C7     50 -0.02083000  12.010000   ; qtot 2.825669
   51         c3      2    bbb     C8     51 -0.03328100  12.010000   ; qtot 2.792388
   52          n      2    bbb     N2     52 -0.33303000  14.010000   ; qtot 2.459358
   53          o      2    bbb     O1     53 -0.52917200  16.000000   ; qtot 1.930186
   54          o      2    bbb     O2     54 -0.52917200  16.000000   ; qtot 1.401014
   55         hx      2    bbb     H1     55 0.11563300   1.008000   ; qtot 1.516647
   56         hx      2    bbb     H2     56 0.11563300   1.008000   ; qtot 1.632280
   57         hx      2    bbb     H3     57 0.11563300   1.008000   ; qtot 1.747913
   58         hx      2    bbb     H4     58 0.11563300   1.008000   ; qtot 1.863546
   59         hc      2    bbb     H5     59 0.08347900   1.008000   ; qtot 1.947025
   60         hc      2    bbb     H6     60 0.08347900   1.008000   ; qtot 2.030504
   61         hc      2    bbb     H7     61 0.08347900   1.008000   ; qtot 2.113983
   62         hc      2    bbb     H8     62 0.08347900   1.008000   ; qtot 2.197462
   63         hx      2    bbb     H9     63 0.07988000   1.008000   ; qtot 2.277342
   64         hx      2    bbb    H10     64 0.07988000   1.008000   ; qtot 2.357222
   65         h1      2    bbb    H11     65 0.10618100   1.008000   ; qtot 2.463403
   66         h1      2    bbb    H12     66 0.10618100   1.008000   ; qtot 2.569584
   67         hn      2    bbb    H13     67 0.25916100   1.008000   ; qtot 2.828745
   68         hn      2    bbb    H25     68 0.17125500   1.008000   ; qtot 3.000000
; residue    3 bbb rtp bbb q 1.0
   69         n4      3    bbb     N1     69 -0.02747900  14.010000   ; qtot 2.972521
   70         c3      3    bbb     C1     70 -0.05097600  12.010000   ; qtot 2.921545
   71         c3      3    bbb     C2     71 -0.05097600  12.010000   ; qtot 2.870569
   72         c3      3    bbb     C3     72 -0.18457900  12.010000   ; qtot 2.685990
   73          c      3    bbb     C4     73 0.67254400  12.010000   ; qtot 3.358534
   74         c3      3    bbb     C5     74 -0.18457900  12.010000   ; qtot 3.173955
   75          c      3    bbb     C6     75 0.67254400  12.010000   ; qtot 3.846499
   76         c3      3    bbb     C7     76 -0.02083000  12.010000   ; qtot 3.825669
   77         c3      3    bbb     C8     77 -0.03328100  12.010000   ; qtot 3.792388
   78          n      3    bbb     N2     78 -0.33303000  14.010000   ; qtot 3.459358
   79          o      3    bbb     O1     79 -0.52917200  16.000000   ; qtot 2.930186
   80          o      3    bbb     O2     80 -0.52917200  16.000000   ; qtot 2.401014
   81         hx      3    bbb     H1     81 0.11563300   1.008000   ; qtot 2.516647
   82         hx      3    bbb     H2     82 0.11563300   1.008000   ; qtot 2.632280
   83         hx      3    bbb     H3     83 0.11563300   1.008000   ; qtot 2.747913
   84         hx      3    bbb     H4     84 0.11563300   1.008000   ; qtot 2.863546
   85         hc      3    bbb     H5     85 0.08347900   1.008000   ; qtot 2.947025
   86         hc      3    bbb     H6     86 0.08347900   1.008000   ; qtot 3.030504
   87         hc      3    bbb     H7     87 0.08347900   1.008000   ; qtot 3.113983
   88         hc      3    bbb     H8     88 0.08347900   1.008000   ; qtot 3.197462
   89         hx      3    bbb     H9     89 0.07988000   1.008000   ; qtot 3.277342
   90         hx      3    bbb    H10     90 0.07988000   1.008000   ; qtot 3.357222
   91         h1      3    bbb    H11     91 0.10618100   1.008000   ; qtot 3.463403
   92         h1      3    bbb    H12     92 0.10618100   1.008000   ; qtot 3.569584
   93         hn      3    bbb    H13     93 0.25916100   1.008000   ; qtot 3.828745
   94         hn      3    bbb    H25     94 0.17125500   1.008000   ; qtot 4.000000
; residue    4 bbb rtp bbb q 1.0
   95         n4      4    bbb     N1     95 -0.02747900  14.010000   ; qtot 3.972521
   96         c3      4    bbb     C1     96 -0.05097600  12.010000   ; qtot 3.921545
   97         c3      4    bbb     C2     97 -0.05097600  12.010000   ; qtot 3.870569
   98         c3      4    bbb     C3     98 -0.18457900  12.010000   ; qtot 3.685990
   99          c      4    bbb     C4     99 0.67254400  12.010000   ; qtot 4.358534
  100         c3      4    bbb     C5    100 -0.18457900  12.010000   ; qtot 4.173955
  101          c      4    bbb     C6    101 0.67254400  12.010000   ; qtot 4.846499
  102         c3      4    bbb     C7    102 -0.02083000  12.010000   ; qtot 4.825669
  103         c3      4    bbb     C8    103 -0.03328100  12.010000   ; qtot 4.792388
  104          n      4    bbb     N2    104 -0.33303000  14.010000   ; qtot 4.459358
  105          o      4    bbb     O1    105 -0.52917200  16.000000   ; qtot 3.930186
  106          o      4    bbb     O2    106 -0.52917200  16.000000   ; qtot 3.401014
  107         hx      4    bbb     H1    107 0.11563300   1.008000   ; qtot 3.516647
  108         hx      4    bbb     H2    108 0.11563300   1.008000   ; qtot 3.632280
  109         hx      4    bbb     H3    109 0.11563300   1.008000   ; qtot 3.747913
  110         hx      4    bbb     H4    110 0.11563300   1.008000   ; qtot 3.863546
  111         hc      4    bbb     H5    111 0.08347900   1.008000   ; qtot 3.947025
  112         hc      4    bbb     H6    112 0.08347900   1.008000   ; qtot 4.030504
  113         hc      4    bbb     H7    113 0.08347900   1.008000   ; qtot 4.113983
  114         hc      4    bbb     H8    114 0.08347900   1.008000   ; qtot 4.197462
  115         hx      4    bbb     H9    115 0.07988000   1.008000   ; qtot 4.277342
  116         hx      4    bbb    H10    116 0.07988000   1.008000   ; qtot 4.357222
  117         h1      4    bbb    H11    117 0.10618100   1.008000   ; qtot 4.463403
  118         h1      4    bbb    H12    118 0.10618100   1.008000   ; qtot 4.569584
  119         hn      4    bbb    H13    119 0.25916100   1.008000   ; qtot 4.828745
  120         hn      4    bbb    H25    120 0.17125500   1.008000   ; qtot 5.000000
; residue    5 bbb rtp bbb q 1.0
  121         n4      5    bbb     N1    121 -0.02747900  14.010000   ; qtot 4.972521
  122         c3      5    bbb     C1    122 -0.05097600  12.010000   ; qtot 4.921545
  123         c3      5    bbb     C2    123 -0.05097600  12.010000   ; qtot 4.870569
  124         c3      5    bbb     C3    124 -0.18457900  12.010000   ; qtot 4.685990
  125          c      5    bbb     C4    125 0.67254400  12.010000   ; qtot 5.358534
  126         c3      5    bbb     C5    126 -0.18457900  12.010000   ; qtot 5.173955
  127          c      5    bbb     C6    127 0.67254400  12.010000   ; qtot 5.846499
  128         c3      5    bbb     C7    128 -0.02083000  12.010000   ; qtot 5.825669
  129         c3      5    bbb     C8    129 -0.03328100  12.010000   ; qtot 5.792388
  130          n      5    bbb     N2    130 -0.33303000  14.010000   ; qtot 5.459358
  131          o      5    bbb     O1    131 -0.52917200  16.000000   ; qtot 4.930186
  132          o      5    bbb     O2    132 -0.52917200  16.000000   ; qtot 4.401014
  133         hx      5    bbb     H1    133 0.11563300   1.008000   ; qtot 4.516647
  134         hx      5    bbb     H2    134 0.11563300   1.008000   ; qtot 4.632280
  135         hx      5    bbb     H3    135 0.11563300   1.008000   ; qtot 4.747913
  136         hx      5    bbb     H4    136 0.11563300   1.008000   ; qtot 4.863546
  137         hc      5    bbb     H5    137 0.08347900   1.008000   ; qtot 4.947025
  138         hc      5    bbb     H6    138 0.08347900   1.008000   ; qtot 5.030504
  139         hc      5    bbb     H7    139 0.08347900   1.008000   ; qtot 5.113983
  140         hc      5    bbb     H8    140 0.08347900   1.008000   ; qtot 5.197462
  141         hx      5    bbb     H9    141 0.07988000   1.008000   ; qtot 5.277342
  142         hx      5    bbb    H10    142 0.07988000   1.008000   ; qtot 5.357222
  143         h1      5    bbb    H11    143 0.10618100   1.008000   ; qtot 5.463403
  144         h1      5    bbb    H12    144 0.10618100   1.008000   ; qtot 5.569584
  145         hn      5    bbb    H13    145 0.25916100   1.008000   ; qtot 5.828745
  146         hn      5    bbb    H25    146 0.17125500   1.008000   ; qtot 6.000000
; residue    6 bbb rtp bbb q 1.0
  147         n4      6    bbb     N1    147 -0.02747900  14.010000   ; qtot 5.972521
  148         c3      6    bbb     C1    148 -0.05097600  12.010000   ; qtot 5.921545
  149         c3      6    bbb     C2    149 -0.05097600  12.010000   ; qtot 5.870569
  150         c3      6    bbb     C3    150 -0.18457900  12.010000   ; qtot 5.685990
  151          c      6    bbb     C4    151 0.67254400  12.010000   ; qtot 6.358534
  152         c3      6    bbb     C5    152 -0.18457900  12.010000   ; qtot 6.173955
  153          c      6    bbb     C6    153 0.67254400  12.010000   ; qtot 6.846499
  154         c3      6    bbb     C7    154 -0.02083000  12.010000   ; qtot 6.825669
  155         c3      6    bbb     C8    155 -0.03328100  12.010000   ; qtot 6.792388
  156          n      6    bbb     N2    156 -0.33303000  14.010000   ; qtot 6.459358
  157          o      6    bbb     O1    157 -0.52917200  16.000000   ; qtot 5.930186
  158          o      6    bbb     O2    158 -0.52917200  16.000000   ; qtot 5.401014
  159         hx      6    bbb     H1    159 0.11563300   1.008000   ; qtot 5.516647
  160         hx      6    bbb     H2    160 0.11563300   1.008000   ; qtot 5.632280
  161         hx      6    bbb     H3    161 0.11563300   1.008000   ; qtot 5.747913
  162         hx      6    bbb     H4    162 0.11563300   1.008000   ; qtot 5.863546
  163         hc      6    bbb     H5    163 0.08347900   1.008000   ; qtot 5.947025
  164         hc      6    bbb     H6    164 0.08347900   1.008000   ; qtot 6.030504
  165         hc      6    bbb     H7    165 0.08347900   1.008000   ; qtot 6.113983
  166         hc      6    bbb     H8    166 0.08347900   1.008000   ; qtot 6.197462
  167         hx      6    bbb     H9    167 0.07988000   1.008000   ; qtot 6.277342
  168         hx      6    bbb    H10    168 0.07988000   1.008000   ; qtot 6.357222
  169         h1      6    bbb    H11    169 0.10618100   1.008000   ; qtot 6.463403
  170         h1      6    bbb    H12    170 0.10618100   1.008000   ; qtot 6.569584
  171         hn      6    bbb    H13    171 0.25916100   1.008000   ; qtot 6.828745
  172         hn      6    bbb    H25    172 0.17125500   1.008000   ; qtot 7.000000
; residue    7 bbb rtp bbb q 1.0
  173         n4      7    bbb     N1    173 -0.02747900  14.010000   ; qtot 6.972521
  174         c3      7    bbb     C1    174 -0.05097600  12.010000   ; qtot 6.921545
  175         c3      7    bbb     C2    175 -0.05097600  12.010000   ; qtot 6.870569
  176         c3      7    bbb     C3    176 -0.18457900  12.010000   ; qtot 6.685990
  177          c      7    bbb     C4    177 0.67254400  12.010000   ; qtot 7.358534
  178         c3      7    bbb     C5    178 -0.18457900  12.010000   ; qtot 7.173955
  179          c      7    bbb     C6    179 0.67254400  12.010000   ; qtot 7.846499
  180         c3      7    bbb     C7    180 -0.02083000  12.010000   ; qtot 7.825669
  181         c3      7    bbb     C8    181 -0.03328100  12.010000   ; qtot 7.792388
  182          n      7    bbb     N2    182 -0.33303000  14.010000   ; qtot 7.459358
  183          o      7    bbb     O1    183 -0.52917200  16.000000   ; qtot 6.930186
  184          o      7    bbb     O2    184 -0.52917200  16.000000   ; qtot 6.401014
  185         hx      7    bbb     H1    185 0.11563300   1.008000   ; qtot 6.516647
  186         hx      7    bbb     H2    186 0.11563300   1.008000   ; qtot 6.632280
  187         hx      7    bbb     H3    187 0.11563300   1.008000   ; qtot 6.747913
  188         hx      7    bbb     H4    188 0.11563300   1.008000   ; qtot 6.863546
  189         hc      7    bbb     H5    189 0.08347900   1.008000   ; qtot 6.947025
  190         hc      7    bbb     H6    190 0.08347900   1.008000   ; qtot 7.030504
  191         hc      7    bbb     H7    191 0.08347900   1.008000   ; qtot 7.113983
  192         hc      7    bbb     H8    192 0.08347900   1.008000   ; qtot 7.197462
  193         hx      7    bbb     H9    193 0.07988000   1.008000   ; qtot 7.277342
  194         hx      7    bbb    H10    194 0.07988000   1.008000   ; qtot 7.357222
  195         h1      7    bbb    H11    195 0.10618100   1.008000   ; qtot 7.463403
  196         h1      7    bbb    H12    196 0.10618100   1.008000   ; qtot 7.569584
  197         hn      7    bbb    H13    197 0.25916100   1.008000   ; qtot 7.828745
  198         hn      7    bbb    H25    198 0.17125500   1.008000   ; qtot 8.000000
; residue    8 bbb rtp bbb q 1.0
  199         n4      8    bbb     N1    199 -0.02747900  14.010000   ; qtot 7.972521
  200         c3      8    bbb     C1    200 -0.05097600  12.010000   ; qtot 7.921545
  201         c3      8    bbb     C2    201 -0.05097600  12.010000   ; qtot 7.870569
  202         c3      8    bbb     C3    202 -0.18457900  12.010000   ; qtot 7.685990
  203          c      8    bbb     C4    203 0.67254400  12.010000   ; qtot 8.358534
  204         c3      8    bbb     C5    204 -0.18457900  12.010000   ; qtot 8.173955
  205          c      8    bbb     C6    205 0.67254400  12.010000   ; qtot 8.846499
  206         c3      8    bbb     C7    206 -0.02083000  12.010000   ; qtot 8.825669
  207         c3      8    bbb     C8    207 -0.03328100  12.010000   ; qtot 8.792388
  208          n      8    bbb     N2    208 -0.33303000  14.010000   ; qtot 8.459358
  209          o      8    bbb     O1    209 -0.52917200  16.000000   ; qtot 7.930186
  210          o      8    bbb     O2    210 -0.52917200  16.000000   ; qtot 7.401014
  211         hx      8    bbb     H1    211 0.11563300   1.008000   ; qtot 7.516647
  212         hx      8    bbb     H2    212 0.11563300   1.008000   ; qtot 7.632280
  213         hx      8    bbb     H3    213 0.11563300   1.008000   ; qtot 7.747913
  214         hx      8    bbb     H4    214 0.11563300   1.008000   ; qtot 7.863546
  215         hc      8    bbb     H5    215 0.08347900   1.008000   ; qtot 7.947025
  216         hc      8    bbb     H6    216 0.08347900   1.008000   ; qtot 8.030504
  217         hc      8    bbb     H7    217 0.08347900   1.008000   ; qtot 8.113983
  218         hc      8    bbb     H8    218 0.08347900   1.008000   ; qtot 8.197462
  219         hx      8    bbb     H9    219 0.07988000   1.008000   ; qtot 8.277342
  220         hx      8    bbb    H10    220 0.07988000   1.008000   ; qtot 8.357222
  221         h1      8    bbb    H11    221 0.10618100   1.008000   ; qtot 8.463403
  222         h1      8    bbb    H12    222 0.10618100   1.008000   ; qtot 8.569584
  223         hn      8    bbb    H13    223 0.25916100   1.008000   ; qtot 8.828745
  224         hn      8    bbb    H25    224 0.17125500   1.008000   ; qtot 9.000000
; residue    9 bbb rtp bbb q 1.0
  225         n4      9    bbb     N1    225 -0.02747900  14.010000   ; qtot 8.972521
  226         c3      9    bbb     C1    226 -0.05097600  12.010000   ; qtot 8.921545
  227         c3      9    bbb     C2    227 -0.05097600  12.010000   ; qtot 8.870569
  228         c3      9    bbb     C3    228 -0.18457900  12.010000   ; qtot 8.685990
  229          c      9    bbb     C4    229 0.67254400  12.010000   ; qtot 9.358534
  230         c3      9    bbb     C5    230 -0.18457900  12.010000   ; qtot 9.173955
  231          c      9    bbb     C6    231 0.67254400  12.010000   ; qtot 9.846499
  232         c3      9    bbb     C7    232 -0.02083000  12.010000   ; qtot 9.825669
  233         c3      9    bbb     C8    233 -0.03328100  12.010000   ; qtot 9.792388
  234          n      9    bbb     N2    234 -0.33303000  14.010000   ; qtot 9.459358
  235          o      9    bbb     O1    235 -0.52917200  16.000000   ; qtot 8.930186
  236          o      9    bbb     O2    236 -0.52917200  16.000000   ; qtot 8.401014
  237         hx      9    bbb     H1    237 0.11563300   1.008000   ; qtot 8.516647
  238         hx      9    bbb     H2    238 0.11563300   1.008000   ; qtot 8.632280
  239         hx      9    bbb     H3    239 0.11563300   1.008000   ; qtot 8.747913
  240         hx      9    bbb     H4    240 0.11563300   1.008000   ; qtot 8.863546
  241         hc      9    bbb     H5    241 0.08347900   1.008000   ; qtot 8.947025
  242         hc      9    bbb     H6    242 0.08347900   1.008000   ; qtot 9.030504
  243         hc      9    bbb     H7    243 0.08347900   1.008000   ; qtot 9.113983
  244         hc      9    bbb     H8    244 0.08347900   1.008000   ; qtot 9.197462
  245         hx      9    bbb     H9    245 0.07988000   1.008000   ; qtot 9.277342
  246         hx      9    bbb    H10    246 0.07988000   1.008000   ; qtot 9.357222
  247         h1      9    bbb    H11    247 0.10618100   1.008000   ; qtot 9.463403
  248         h1      9    bbb    H12    248 0.10618100   1.008000   ; qtot 9.569584
  249         hn      9    bbb    H13    249 0.25916100   1.008000   ; qtot 9.828745
  250         hn      9    bbb    H25    250 0.17125500   1.008000   ; qtot 10.000000
; residue   10 bbb rtp bbb q 1.0
  251         n4     10    bbb     N1    251 -0.02747900  14.010000   ; qtot 9.972521
  252         c3     10    bbb     C1    252 -0.05097600  12.010000   ; qtot 9.921545
  253         c3     10    bbb     C2    253 -0.05097600  12.010000   ; qtot 9.870569
  254         c3     10    bbb     C3    254 -0.18457900  12.010000   ; qtot 9.685990
  255          c     10    bbb     C4    255 0.67254400  12.010000   ; qtot 10.358534
  256         c3     10    bbb     C5    256 -0.18457900  12.010000   ; qtot 10.173955
  257          c     10    bbb     C6    257 0.67254400  12.010000   ; qtot 10.846499
  258         c3     10    bbb     C7    258 -0.02083000  12.010000   ; qtot 10.825669
  259         c3     10    bbb     C8    259 -0.03328100  12.010000   ; qtot 10.792388
  260          n     10    bbb     N2    260 -0.33303000  14.010000   ; qtot 10.459358
  261          o     10    bbb     O1    261 -0.52917200  16.000000   ; qtot 9.930186
  262          o     10    bbb     O2    262 -0.52917200  16.000000   ; qtot 9.401014
  263         hx     10    bbb     H1    263 0.11563300   1.008000   ; qtot 9.516647
  264         hx     10    bbb     H2    264 0.11563300   1.008000   ; qtot 9.632280
  265         hx     10    bbb     H3    265 0.11563300   1.008000   ; qtot 9.747913
  266         hx     10    bbb     H4    266 0.11563300   1.008000   ; qtot 9.863546
  267         hc     10    bbb     H5    267 0.08347900   1.008000   ; qtot 9.947025
  268         hc     10    bbb     H6    268 0.08347900   1.008000   ; qtot 10.030504
  269         hc     10    bbb     H7    269 0.08347900   1.008000   ; qtot 10.113983
  270         hc     10    bbb     H8    270 0.08347900   1.008000   ; qtot 10.197462
  271         hx     10    bbb     H9    271 0.07988000   1.008000   ; qtot 10.277342
  272         hx     10    bbb    H10    272 0.07988000   1.008000   ; qtot 10.357222
  273         h1     10    bbb    H11    273 0.10618100   1.008000   ; qtot 10.463403
  274         h1     10    bbb    H12    274 0.10618100   1.008000   ; qtot 10.569584
  275         hn     10    bbb    H13    275 0.25916100   1.008000   ; qtot 10.828745
  276         hn     10    bbb    H25    276 0.17125500   1.008000   ; qtot 11.000000
; residue   11 bbb rtp bbb q 1.0
  277         n4     11    bbb     N1    277 -0.02747900  14.010000   ; qtot 10.972521
  278         c3     11    bbb     C1    278 -0.05097600  12.010000   ; qtot 10.921545
  279         c3     11    bbb     C2    279 -0.05097600  12.010000   ; qtot 10.870569
  280         c3     11    bbb     C3    280 -0.18457900  12.010000   ; qtot 10.685990
  281          c     11    bbb     C4    281 0.67254400  12.010000   ; qtot 11.358534
  282         c3     11    bbb     C5    282 -0.18457900  12.010000   ; qtot 11.173955
  283          c     11    bbb     C6    283 0.67254400  12.010000   ; qtot 11.846499
  284         c3     11    bbb     C7    284 -0.02083000  12.010000   ; qtot 11.825669
  285         c3     11    bbb     C8    285 -0.03328100  12.010000   ; qtot 11.792388
  286          n     11    bbb     N2    286 -0.33303000  14.010000   ; qtot 11.459358
  287          o     11    bbb     O1    287 -0.52917200  16.000000   ; qtot 10.930186
  288          o     11    bbb     O2    288 -0.52917200  16.000000   ; qtot 10.401014
  289         hx     11    bbb     H1    289 0.11563300   1.008000   ; qtot 10.516647
  290         hx     11    bbb     H2    290 0.11563300   1.008000   ; qtot 10.632280
  291         hx     11    bbb     H3    291 0.11563300   1.008000   ; qtot 10.747913
  292         hx     11    bbb     H4    292 0.11563300   1.008000   ; qtot 10.863546
  293         hc     11    bbb     H5    293 0.08347900   1.008000   ; qtot 10.947025
  294         hc     11    bbb     H6    294 0.08347900   1.008000   ; qtot 11.030504
  295         hc     11    bbb     H7    295 0.08347900   1.008000   ; qtot 11.113983
  296         hc     11    bbb     H8    296 0.08347900   1.008000   ; qtot 11.197462
  297         hx     11    bbb     H9    297 0.07988000   1.008000   ; qtot 11.277342
  298         hx     11    bbb    H10    298 0.07988000   1.008000   ; qtot 11.357222
  299         h1     11    bbb    H11    299 0.10618100   1.008000   ; qtot 11.463403
  300         h1     11    bbb    H12    300 0.10618100   1.008000   ; qtot 11.569584
  301         hn     11    bbb    H13    301 0.25916100   1.008000   ; qtot 11.828745
  302         hn     11    bbb    H25    302 0.17125500   1.008000   ; qtot 12.000000
; residue   12 bbb rtp bbb q 1.0
  303         n4     12    bbb     N1    303 -0.02747900  14.010000   ; qtot 11.972521
  304         c3     12    bbb     C1    304 -0.05097600  12.010000   ; qtot 11.921545
  305         c3     12    bbb     C2    305 -0.05097600  12.010000   ; qtot 11.870569
  306         c3     12    bbb     C3    306 -0.18457900  12.010000   ; qtot 11.685990
  307          c     12    bbb     C4    307 0.67254400  12.010000   ; qtot 12.358534
  308         c3     12    bbb     C5    308 -0.18457900  12.010000   ; qtot 12.173955
  309          c     12    bbb     C6    309 0.67254400  12.010000   ; qtot 12.846499
  310         c3     12    bbb     C7    310 -0.02083000  12.010000   ; qtot 12.825669
  311         c3     12    bbb     C8    311 -0.03328100  12.010000   ; qtot 12.792388
  312          n     12    bbb     N2    312 -0.33303000  14.010000   ; qtot 12.459358
  313          o     12    bbb     O1    313 -0.52917200  16.000000   ; qtot 11.930186
  314          o     12    bbb     O2    314 -0.52917200  16.000000   ; qtot 11.401014
  315         hx     12    bbb     H1    315 0.11563300   1.008000   ; qtot 11.516647
  316         hx     12    bbb     H2    316 0.11563300   1.008000   ; qtot 11.632280
  317         hx     12    bbb     H3    317 0.11563300   1.008000   ; qtot 11.747913
  318         hx     12    bbb     H4    318 0.11563300   1.008000   ; qtot 11.863546
  319         hc     12    bbb     H5    319 0.08347900   1.008000   ; qtot 11.947025
  320         hc     12    bbb     H6    320 0.08347900   1.008000   ; qtot 12.030504
  321         hc     12    bbb     H7    321 0.08347900   1.008000   ; qtot 12.113983
  322         hc     12    bbb     H8    322 0.08347900   1.008000   ; qtot 12.197462
  323         hx     12    bbb     H9    323 0.07988000   1.008000   ; qtot 12.277342
  324         hx     12    bbb    H10    324 0.07988000   1.008000   ; qtot 12.357222
  325         h1     12    bbb    H11    325 0.10618100   1.008000   ; qtot 12.463403
  326         h1     12    bbb    H12    326 0.10618100   1.008000   ; qtot 12.569584
  327         hn     12    bbb    H13    327 0.25916100   1.008000   ; qtot 12.828745
  328         hn     12    bbb    H25    328 0.17125500   1.008000   ; qtot 13.000000
; residue   13 bbb rtp bbb q 1.0
  329         n4     13    bbb     N1    329 -0.02747900  14.010000   ; qtot 12.972521
  330         c3     13    bbb     C1    330 -0.05097600  12.010000   ; qtot 12.921545
  331         c3     13    bbb     C2    331 -0.05097600  12.010000   ; qtot 12.870569
  332         c3     13    bbb     C3    332 -0.18457900  12.010000   ; qtot 12.685990
  333          c     13    bbb     C4    333 0.67254400  12.010000   ; qtot 13.358534
  334         c3     13    bbb     C5    334 -0.18457900  12.010000   ; qtot 13.173955
  335          c     13    bbb     C6    335 0.67254400  12.010000   ; qtot 13.846499
  336         c3     13    bbb     C7    336 -0.02083000  12.010000   ; qtot 13.825669
  337         c3     13    bbb     C8    337 -0.03328100  12.010000   ; qtot 13.792388
  338          n     13    bbb     N2    338 -0.33303000  14.010000   ; qtot 13.459358
  339          o     13    bbb     O1    339 -0.52917200  16.000000   ; qtot 12.930186
  340          o     13    bbb     O2    340 -0.52917200  16.000000   ; qtot 12.401014
  341         hx     13    bbb     H1    341 0.11563300   1.008000   ; qtot 12.516647
  342         hx     13    bbb     H2    342 0.11563300   1.008000   ; qtot 12.632280
  343         hx     13    bbb     H3    343 0.11563300   1.008000   ; qtot 12.747913
  344         hx     13    bbb     H4    344 0.11563300   1.008000   ; qtot 12.863546
  345         hc     13    bbb     H5    345 0.08347900   1.008000   ; qtot 12.947025
  346         hc     13    bbb     H6    346 0.08347900   1.008000   ; qtot 13.030504
  347         hc     13    bbb     H7    347 0.08347900   1.008000   ; qtot 13.113983
  348         hc     13    bbb     H8    348 0.08347900   1.008000   ; qtot 13.197462
  349         hx     13    bbb     H9    349 0.07988000   1.008000   ; qtot 13.277342
  350         hx     13    bbb    H10    350 0.07988000   1.008000   ; qtot 13.357222
  351         h1     13    bbb    H11    351 0.10618100   1.008000   ; qtot 13.463403
  352         h1     13    bbb    H12    352 0.10618100   1.008000   ; qtot 13.569584
  353         hn     13    bbb    H13    353 0.25916100   1.008000   ; qtot 13.828745
  354         hn     13    bbb    H25    354 0.17125500   1.008000   ; qtot 14.000000
; residue   14 bbb rtp bbb q 1.0
  355         n4     14    bbb     N1    355 -0.02747900  14.010000   ; qtot 13.972521
  356         c3     14    bbb     C1    356 -0.05097600  12.010000   ; qtot 13.921545
  357         c3     14    bbb     C2    357 -0.05097600  12.010000   ; qtot 13.870569
  358         c3     14    bbb     C3    358 -0.18457900  12.010000   ; qtot 13.685990
  359          c     14    bbb     C4    359 0.67254400  12.010000   ; qtot 14.358534
  360         c3     14    bbb     C5    360 -0.18457900  12.010000   ; qtot 14.173955
  361          c     14    bbb     C6    361 0.67254400  12.010000   ; qtot 14.846499
  362         c3     14    bbb     C7    362 -0.02083000  12.010000   ; qtot 14.825669
  363         c3     14    bbb     C8    363 -0.03328100  12.010000   ; qtot 14.792388
  364          n     14    bbb     N2    364 -0.33303000  14.010000   ; qtot 14.459358
  365          o     14    bbb     O1    365 -0.52917200  16.000000   ; qtot 13.930186
  366          o     14    bbb     O2    366 -0.52917200  16.000000   ; qtot 13.401014
  367         hx     14    bbb     H1    367 0.11563300   1.008000   ; qtot 13.516647
  368         hx     14    bbb     H2    368 0.11563300   1.008000   ; qtot 13.632280
  369         hx     14    bbb     H3    369 0.11563300   1.008000   ; qtot 13.747913
  370         hx     14    bbb     H4    370 0.11563300   1.008000   ; qtot 13.863546
  371         hc     14    bbb     H5    371 0.08347900   1.008000   ; qtot 13.947025
  372         hc     14    bbb     H6    372 0.08347900   1.008000   ; qtot 14.030504
  373         hc     14    bbb     H7    373 0.08347900   1.008000   ; qtot 14.113983
  374         hc     14    bbb     H8    374 0.08347900   1.008000   ; qtot 14.197462
  375         hx     14    bbb     H9    375 0.07988000   1.008000   ; qtot 14.277342
  376         hx     14    bbb    H10    376 0.07988000   1.008000   ; qtot 14.357222
  377         h1     14    bbb    H11    377 0.10618100   1.008000   ; qtot 14.463403
  378         h1     14    bbb    H12    378 0.10618100   1.008000   ; qtot 14.569584
  379         hn     14    bbb    H13    379 0.25916100   1.008000   ; qtot 14.828745
  380         hn     14    bbb    H25    380 0.17125500   1.008000   ; qtot 15.000000
; residue   15 bbb rtp bbb q 1.0
  381         n4     15    bbb     N1    381 -0.02747900  14.010000   ; qtot 14.972521
  382         c3     15    bbb     C1    382 -0.05097600  12.010000   ; qtot 14.921545
  383         c3     15    bbb     C2    383 -0.05097600  12.010000   ; qtot 14.870569
  384         c3     15    bbb     C3    384 -0.18457900  12.010000   ; qtot 14.685990
  385          c     15    bbb     C4    385 0.67254400  12.010000   ; qtot 15.358534
  386         c3     15    bbb     C5    386 -0.18457900  12.010000   ; qtot 15.173955
  387          c     15    bbb     C6    387 0.67254400  12.010000   ; qtot 15.846499
  388         c3     15    bbb     C7    388 -0.02083000  12.010000   ; qtot 15.825669
  389         c3     15    bbb     C8    389 -0.03328100  12.010000   ; qtot 15.792388
  390          n     15    bbb     N2    390 -0.33303000  14.010000   ; qtot 15.459358
  391          o     15    bbb     O1    391 -0.52917200  16.000000   ; qtot 14.930186
  392          o     15    bbb     O2    392 -0.52917200  16.000000   ; qtot 14.401014
  393         hx     15    bbb     H1    393 0.11563300   1.008000   ; qtot 14.516647
  394         hx     15    bbb     H2    394 0.11563300   1.008000   ; qtot 14.632280
  395         hx     15    bbb     H3    395 0.11563300   1.008000   ; qtot 14.747913
  396         hx     15    bbb     H4    396 0.11563300   1.008000   ; qtot 14.863546
  397         hc     15    bbb     H5    397 0.08347900   1.008000   ; qtot 14.947025
  398         hc     15    bbb     H6    398 0.08347900   1.008000   ; qtot 15.030504
  399         hc     15    bbb     H7    399 0.08347900   1.008000   ; qtot 15.113983
  400         hc     15    bbb     H8    400 0.08347900   1.008000   ; qtot 15.197462
  401         hx     15    bbb     H9    401 0.07988000   1.008000   ; qtot 15.277342
  402         hx     15    bbb    H10    402 0.07988000   1.008000   ; qtot 15.357222
  403         h1     15    bbb    H11    403 0.10618100   1.008000   ; qtot 15.463403
  404         h1     15    bbb    H12    404 0.10618100   1.008000   ; qtot 15.569584
  405         hn     15    bbb    H13    405 0.25916100   1.008000   ; qtot 15.828745
  406         hn     15    bbb    H25    406 0.17125500   1.008000   ; qtot 16.000000
; residue   16 bbb rtp bbb q 1.0
  407         n4     16    bbb     N1    407 -0.02747900  14.010000   ; qtot 15.972521
  408         c3     16    bbb     C1    408 -0.05097600  12.010000   ; qtot 15.921545
  409         c3     16    bbb     C2    409 -0.05097600  12.010000   ; qtot 15.870569
  410         c3     16    bbb     C3    410 -0.18457900  12.010000   ; qtot 15.685990
  411          c     16    bbb     C4    411 0.67254400  12.010000   ; qtot 16.358534
  412         c3     16    bbb     C5    412 -0.18457900  12.010000   ; qtot 16.173955
  413          c     16    bbb     C6    413 0.67254400  12.010000   ; qtot 16.846499
  414         c3     16    bbb     C7    414 -0.02083000  12.010000   ; qtot 16.825669
  415         c3     16    bbb     C8    415 -0.03328100  12.010000   ; qtot 16.792388
  416          n     16    bbb     N2    416 -0.33303000  14.010000   ; qtot 16.459358
  417          o     16    bbb     O1    417 -0.52917200  16.000000   ; qtot 15.930186
  418          o     16    bbb     O2    418 -0.52917200  16.000000   ; qtot 15.401014
  419         hx     16    bbb     H1    419 0.11563300   1.008000   ; qtot 15.516647
  420         hx     16    bbb     H2    420 0.11563300   1.008000   ; qtot 15.632280
  421         hx     16    bbb     H3    421 0.11563300   1.008000   ; qtot 15.747913
  422         hx     16    bbb     H4    422 0.11563300   1.008000   ; qtot 15.863546
  423         hc     16    bbb     H5    423 0.08347900   1.008000   ; qtot 15.947025
  424         hc     16    bbb     H6    424 0.08347900   1.008000   ; qtot 16.030504
  425         hc     16    bbb     H7    425 0.08347900   1.008000   ; qtot 16.113983
  426         hc     16    bbb     H8    426 0.08347900   1.008000   ; qtot 16.197462
  427         hx     16    bbb     H9    427 0.07988000   1.008000   ; qtot 16.277342
  428         hx     16    bbb    H10    428 0.07988000   1.008000   ; qtot 16.357222
  429         h1     16    bbb    H11    429 0.10618100   1.008000   ; qtot 16.463403
  430         h1     16    bbb    H12    430 0.10618100   1.008000   ; qtot 16.569584
  431         hn     16    bbb    H13    431 0.25916100   1.008000   ; qtot 16.828745
  432         hn     16    bbb    H25    432 0.17125500   1.008000   ; qtot 17.000000
; residue   17 bbb rtp bbb q 1.0
  433         n4     17    bbb     N1    433 -0.02747900  14.010000   ; qtot 16.972521
  434         c3     17    bbb     C1    434 -0.05097600  12.010000   ; qtot 16.921545
  435         c3     17    bbb     C2    435 -0.05097600  12.010000   ; qtot 16.870569
  436         c3     17    bbb     C3    436 -0.18457900  12.010000   ; qtot 16.685990
  437          c     17    bbb     C4    437 0.67254400  12.010000   ; qtot 17.358534
  438         c3     17    bbb     C5    438 -0.18457900  12.010000   ; qtot 17.173955
  439          c     17    bbb     C6    439 0.67254400  12.010000   ; qtot 17.846499
  440         c3     17    bbb     C7    440 -0.02083000  12.010000   ; qtot 17.825669
  441         c3     17    bbb     C8    441 -0.03328100  12.010000   ; qtot 17.792388
  442          n     17    bbb     N2    442 -0.33303000  14.010000   ; qtot 17.459358
  443          o     17    bbb     O1    443 -0.52917200  16.000000   ; qtot 16.930186
  444          o     17    bbb     O2    444 -0.52917200  16.000000   ; qtot 16.401014
  445         hx     17    bbb     H1    445 0.11563300   1.008000   ; qtot 16.516647
  446         hx     17    bbb     H2    446 0.11563300   1.008000   ; qtot 16.632280
  447         hx     17    bbb     H3    447 0.11563300   1.008000   ; qtot 16.747913
  448         hx     17    bbb     H4    448 0.11563300   1.008000   ; qtot 16.863546
  449         hc     17    bbb     H5    449 0.08347900   1.008000   ; qtot 16.947025
  450         hc     17    bbb     H6    450 0.08347900   1.008000   ; qtot 17.030504
  451         hc     17    bbb     H7    451 0.08347900   1.008000   ; qtot 17.113983
  452         hc     17    bbb     H8    452 0.08347900   1.008000   ; qtot 17.197462
  453         hx     17    bbb     H9    453 0.07988000   1.008000   ; qtot 17.277342
  454         hx     17    bbb    H10    454 0.07988000   1.008000   ; qtot 17.357222
  455         h1     17    bbb    H11    455 0.10618100   1.008000   ; qtot 17.463403
  456         h1     17    bbb    H12    456 0.10618100   1.008000   ; qtot 17.569584
  457         hn     17    bbb    H13    457 0.25916100   1.008000   ; qtot 17.828745
  458         hn     17    bbb    H25    458 0.17125500   1.008000   ; qtot 18.000000
; residue   18 bbb rtp bbb q 1.0
  459         n4     18    bbb     N1    459 -0.02747900  14.010000   ; qtot 17.972521
  460         c3     18    bbb     C1    460 -0.05097600  12.010000   ; qtot 17.921545
  461         c3     18    bbb     C2    461 -0.05097600  12.010000   ; qtot 17.870569
  462         c3     18    bbb     C3    462 -0.18457900  12.010000   ; qtot 17.685990
  463          c     18    bbb     C4    463 0.67254400  12.010000   ; qtot 18.358534
  464         c3     18    bbb     C5    464 -0.18457900  12.010000   ; qtot 18.173955
  465          c     18    bbb     C6    465 0.67254400  12.010000   ; qtot 18.846499
  466         c3     18    bbb     C7    466 -0.02083000  12.010000   ; qtot 18.825669
  467         c3     18    bbb     C8    467 -0.03328100  12.010000   ; qtot 18.792388
  468          n     18    bbb     N2    468 -0.33303000  14.010000   ; qtot 18.459358
  469          o     18    bbb     O1    469 -0.52917200  16.000000   ; qtot 17.930186
  470          o     18    bbb     O2    470 -0.52917200  16.000000   ; qtot 17.401014
  471         hx     18    bbb     H1    471 0.11563300   1.008000   ; qtot 17.516647
  472         hx     18    bbb     H2    472 0.11563300   1.008000   ; qtot 17.632280
  473         hx     18    bbb     H3    473 0.11563300   1.008000   ; qtot 17.747913
  474         hx     18    bbb     H4    474 0.11563300   1.008000   ; qtot 17.863546
  475         hc     18    bbb     H5    475 0.08347900   1.008000   ; qtot 17.947025
  476         hc     18    bbb     H6    476 0.08347900   1.008000   ; qtot 18.030504
  477         hc     18    bbb     H7    477 0.08347900   1.008000   ; qtot 18.113983
  478         hc     18    bbb     H8    478 0.08347900   1.008000   ; qtot 18.197462
  479         hx     18    bbb     H9    479 0.07988000   1.008000   ; qtot 18.277342
  480         hx     18    bbb    H10    480 0.07988000   1.008000   ; qtot 18.357222
  481         h1     18    bbb    H11    481 0.10618100   1.008000   ; qtot 18.463403
  482         h1     18    bbb    H12    482 0.10618100   1.008000   ; qtot 18.569584
  483         hn     18    bbb    H13    483 0.25916100   1.008000   ; qtot 18.828745
  484         hn     18    bbb    H25    484 0.17125500   1.008000   ; qtot 19.000000
; residue   19 bbb rtp bbb q 1.0
  485         n4     19    bbb     N1    485 -0.02747900  14.010000   ; qtot 18.972521
  486         c3     19    bbb     C1    486 -0.05097600  12.010000   ; qtot 18.921545
  487         c3     19    bbb     C2    487 -0.05097600  12.010000   ; qtot 18.870569
  488         c3     19    bbb     C3    488 -0.18457900  12.010000   ; qtot 18.685990
  489          c     19    bbb     C4    489 0.67254400  12.010000   ; qtot 19.358534
  490         c3     19    bbb     C5    490 -0.18457900  12.010000   ; qtot 19.173955
  491          c     19    bbb     C6    491 0.67254400  12.010000   ; qtot 19.846499
  492         c3     19    bbb     C7    492 -0.02083000  12.010000   ; qtot 19.825669
  493         c3     19    bbb     C8    493 -0.03328100  12.010000   ; qtot 19.792388
  494          n     19    bbb     N2    494 -0.33303000  14.010000   ; qtot 19.459358
  495          o     19    bbb     O1    495 -0.52917200  16.000000   ; qtot 18.930186
  496          o     19    bbb     O2    496 -0.52917200  16.000000   ; qtot 18.401014
  497         hx     19    bbb     H1    497 0.11563300   1.008000   ; qtot 18.516647
  498         hx     19    bbb     H2    498 0.11563300   1.008000   ; qtot 18.632280
  499         hx     19    bbb     H3    499 0.11563300   1.008000   ; qtot 18.747913
  500         hx     19    bbb     H4    500 0.11563300   1.008000   ; qtot 18.863546
  501         hc     19    bbb     H5    501 0.08347900   1.008000   ; qtot 18.947025
  502         hc     19    bbb     H6    502 0.08347900   1.008000   ; qtot 19.030504
  503         hc     19    bbb     H7    503 0.08347900   1.008000   ; qtot 19.113983
  504         hc     19    bbb     H8    504 0.08347900   1.008000   ; qtot 19.197462
  505         hx     19    bbb     H9    505 0.07988000   1.008000   ; qtot 19.277342
  506         hx     19    bbb    H10    506 0.07988000   1.008000   ; qtot 19.357222
  507         h1     19    bbb    H11    507 0.10618100   1.008000   ; qtot 19.463403
  508         h1     19    bbb    H12    508 0.10618100   1.008000   ; qtot 19.569584
  509         hn     19    bbb    H13    509 0.25916100   1.008000   ; qtot 19.828745
  510         hn     19    bbb    H25    510 0.17125500   1.008000   ; qtot 20.000000
; residue   20 bbb rtp bbb q 1.0
  511         n4     20    bbb     N1    511 -0.02747900  14.010000   ; qtot 19.972521
  512         c3     20    bbb     C1    512 -0.05097600  12.010000   ; qtot 19.921545
  513         c3     20    bbb     C2    513 -0.05097600  12.010000   ; qtot 19.870569
  514         c3     20    bbb     C3    514 -0.18457900  12.010000   ; qtot 19.685990
  515          c     20    bbb     C4    515 0.67254400  12.010000   ; qtot 20.358534
  516         c3     20    bbb     C5    516 -0.18457900  12.010000   ; qtot 20.173955
  517          c     20    bbb     C6    517 0.67254400  12.010000   ; qtot 20.846499
  518         c3     20    bbb     C7    518 -0.02083000  12.010000   ; qtot 20.825669
  519         c3     20    bbb     C8    519 -0.03328100  12.010000   ; qtot 20.792388
  520          n     20    bbb     N2    520 -0.33303000  14.010000   ; qtot 20.459358
  521          o     20    bbb     O1    521 -0.52917200  16.000000   ; qtot 19.930186
  522          o     20    bbb     O2    522 -0.52917200  16.000000   ; qtot 19.401014
  523         hx     20    bbb     H1    523 0.11563300   1.008000   ; qtot 19.516647
  524         hx     20    bbb     H2    524 0.11563300   1.008000   ; qtot 19.632280
  525         hx     20    bbb     H3    525 0.11563300   1.008000   ; qtot 19.747913
  526         hx     20    bbb     H4    526 0.11563300   1.008000   ; qtot 19.863546
  527         hc     20    bbb     H5    527 0.08347900   1.008000   ; qtot 19.947025
  528         hc     20    bbb     H6    528 0.08347900   1.008000   ; qtot 20.030504
  529         hc     20    bbb     H7    529 0.08347900   1.008000   ; qtot 20.113983
  530         hc     20    bbb     H8    530 0.08347900   1.008000   ; qtot 20.197462
  531         hx     20    bbb     H9    531 0.07988000   1.008000   ; qtot 20.277342
  532         hx     20    bbb    H10    532 0.07988000   1.008000   ; qtot 20.357222
  533         h1     20    bbb    H11    533 0.10618100   1.008000   ; qtot 20.463403
  534         h1     20    bbb    H12    534 0.10618100   1.008000   ; qtot 20.569584
  535         hn     20    bbb    H13    535 0.25916100   1.008000   ; qtot 20.828745
  536         hn     20    bbb    H25    536 0.17125500   1.008000   ; qtot 21.000000
; residue   21 bbb rtp bbb q 1.0
  537         n4     21    bbb     N1    537 -0.02747900  14.010000   ; qtot 20.972521
  538         c3     21    bbb     C1    538 -0.05097600  12.010000   ; qtot 20.921545
  539         c3     21    bbb     C2    539 -0.05097600  12.010000   ; qtot 20.870569
  540         c3     21    bbb     C3    540 -0.18457900  12.010000   ; qtot 20.685990
  541          c     21    bbb     C4    541 0.67254400  12.010000   ; qtot 21.358534
  542         c3     21    bbb     C5    542 -0.18457900  12.010000   ; qtot 21.173955
  543          c     21    bbb     C6    543 0.67254400  12.010000   ; qtot 21.846499
  544         c3     21    bbb     C7    544 -0.02083000  12.010000   ; qtot 21.825669
  545         c3     21    bbb     C8    545 -0.03328100  12.010000   ; qtot 21.792388
  546          n     21    bbb     N2    546 -0.33303000  14.010000   ; qtot 21.459358
  547          o     21    bbb     O1    547 -0.52917200  16.000000   ; qtot 20.930186
  548          o     21    bbb     O2    548 -0.52917200  16.000000   ; qtot 20.401014
  549         hx     21    bbb     H1    549 0.11563300   1.008000   ; qtot 20.516647
  550         hx     21    bbb     H2    550 0.11563300   1.008000   ; qtot 20.632280
  551         hx     21    bbb     H3    551 0.11563300   1.008000   ; qtot 20.747913
  552         hx     21    bbb     H4    552 0.11563300   1.008000   ; qtot 20.863546
  553         hc     21    bbb     H5    553 0.08347900   1.008000   ; qtot 20.947025
  554         hc     21    bbb     H6    554 0.08347900   1.008000   ; qtot 21.030504
  555         hc     21    bbb     H7    555 0.08347900   1.008000   ; qtot 21.113983
  556         hc     21    bbb     H8    556 0.08347900   1.008000   ; qtot 21.197462
  557         hx     21    bbb     H9    557 0.07988000   1.008000   ; qtot 21.277342
  558         hx     21    bbb    H10    558 0.07988000   1.008000   ; qtot 21.357222
  559         h1     21    bbb    H11    559 0.10618100   1.008000   ; qtot 21.463403
  560         h1     21    bbb    H12    560 0.10618100   1.008000   ; qtot 21.569584
  561         hn     21    bbb    H13    561 0.25916100   1.008000   ; qtot 21.828745
  562         hn     21    bbb    H25    562 0.17125500   1.008000   ; qtot 22.000000
; residue   22 bbb rtp bbb q 1.0
  563         n4     22    bbb     N1    563 -0.02747900  14.010000   ; qtot 21.972521
  564         c3     22    bbb     C1    564 -0.05097600  12.010000   ; qtot 21.921545
  565         c3     22    bbb     C2    565 -0.05097600  12.010000   ; qtot 21.870569
  566         c3     22    bbb     C3    566 -0.18457900  12.010000   ; qtot 21.685990
  567          c     22    bbb     C4    567 0.67254400  12.010000   ; qtot 22.358534
  568         c3     22    bbb     C5    568 -0.18457900  12.010000   ; qtot 22.173955
  569          c     22    bbb     C6    569 0.67254400  12.010000   ; qtot 22.846499
  570         c3     22    bbb     C7    570 -0.02083000  12.010000   ; qtot 22.825669
  571         c3     22    bbb     C8    571 -0.03328100  12.010000   ; qtot 22.792388
  572          n     22    bbb     N2    572 -0.33303000  14.010000   ; qtot 22.459358
  573          o     22    bbb     O1    573 -0.52917200  16.000000   ; qtot 21.930186
  574          o     22    bbb     O2    574 -0.52917200  16.000000   ; qtot 21.401014
  575         hx     22    bbb     H1    575 0.11563300   1.008000   ; qtot 21.516647
  576         hx     22    bbb     H2    576 0.11563300   1.008000   ; qtot 21.632280
  577         hx     22    bbb     H3    577 0.11563300   1.008000   ; qtot 21.747913
  578         hx     22    bbb     H4    578 0.11563300   1.008000   ; qtot 21.863546
  579         hc     22    bbb     H5    579 0.08347900   1.008000   ; qtot 21.947025
  580         hc     22    bbb     H6    580 0.08347900   1.008000   ; qtot 22.030504
  581         hc     22    bbb     H7    581 0.08347900   1.008000   ; qtot 22.113983
  582         hc     22    bbb     H8    582 0.08347900   1.008000   ; qtot 22.197462
  583         hx     22    bbb     H9    583 0.07988000   1.008000   ; qtot 22.277342
  584         hx     22    bbb    H10    584 0.07988000   1.008000   ; qtot 22.357222
  585         h1     22    bbb    H11    585 0.10618100   1.008000   ; qtot 22.463403
  586         h1     22    bbb    H12    586 0.10618100   1.008000   ; qtot 22.569584
  587         hn     22    bbb    H13    587 0.25916100   1.008000   ; qtot 22.828745
  588         hn     22    bbb    H25    588 0.17125500   1.008000   ; qtot 23.000000
; residue   23 bbb rtp bbb q 1.0
  589         n4     23    bbb     N1    589 -0.02747900  14.010000   ; qtot 22.972521
  590         c3     23    bbb     C1    590 -0.05097600  12.010000   ; qtot 22.921545
  591         c3     23    bbb     C2    591 -0.05097600  12.010000   ; qtot 22.870569
  592         c3     23    bbb     C3    592 -0.18457900  12.010000   ; qtot 22.685990
  593          c     23    bbb     C4    593 0.67254400  12.010000   ; qtot 23.358534
  594         c3     23    bbb     C5    594 -0.18457900  12.010000   ; qtot 23.173955
  595          c     23    bbb     C6    595 0.67254400  12.010000   ; qtot 23.846499
  596         c3     23    bbb     C7    596 -0.02083000  12.010000   ; qtot 23.825669
  597         c3     23    bbb     C8    597 -0.03328100  12.010000   ; qtot 23.792388
  598          n     23    bbb     N2    598 -0.33303000  14.010000   ; qtot 23.459358
  599          o     23    bbb     O1    599 -0.52917200  16.000000   ; qtot 22.930186
  600          o     23    bbb     O2    600 -0.52917200  16.000000   ; qtot 22.401014
  601         hx     23    bbb     H1    601 0.11563300   1.008000   ; qtot 22.516647
  602         hx     23    bbb     H2    602 0.11563300   1.008000   ; qtot 22.632280
  603         hx     23    bbb     H3    603 0.11563300   1.008000   ; qtot 22.747913
  604         hx     23    bbb     H4    604 0.11563300   1.008000   ; qtot 22.863546
  605         hc     23    bbb     H5    605 0.08347900   1.008000   ; qtot 22.947025
  606         hc     23    bbb     H6    606 0.08347900   1.008000   ; qtot 23.030504
  607         hc     23    bbb     H7    607 0.08347900   1.008000   ; qtot 23.113983
  608         hc     23    bbb     H8    608 0.08347900   1.008000   ; qtot 23.197462
  609         hx     23    bbb     H9    609 0.07988000   1.008000   ; qtot 23.277342
  610         hx     23    bbb    H10    610 0.07988000   1.008000   ; qtot 23.357222
  611         h1     23    bbb    H11    611 0.10618100   1.008000   ; qtot 23.463403
  612         h1     23    bbb    H12    612 0.10618100   1.008000   ; qtot 23.569584
  613         hn     23    bbb    H13    613 0.25916100   1.008000   ; qtot 23.828745
  614         hn     23    bbb    H25    614 0.17125500   1.008000   ; qtot 24.000000
; residue   24 bbb rtp bbb q 1.0
  615         n4     24    bbb     N1    615 -0.02747900  14.010000   ; qtot 23.972521
  616         c3     24    bbb     C1    616 -0.05097600  12.010000   ; qtot 23.921545
  617         c3     24    bbb     C2    617 -0.05097600  12.010000   ; qtot 23.870569
  618         c3     24    bbb     C3    618 -0.18457900  12.010000   ; qtot 23.685990
  619          c     24    bbb     C4    619 0.67254400  12.010000   ; qtot 24.358534
  620         c3     24    bbb     C5    620 -0.18457900  12.010000   ; qtot 24.173955
  621          c     24    bbb     C6    621 0.67254400  12.010000   ; qtot 24.846499
  622         c3     24    bbb     C7    622 -0.02083000  12.010000   ; qtot 24.825669
  623         c3     24    bbb     C8    623 -0.03328100  12.010000   ; qtot 24.792388
  624          n     24    bbb     N2    624 -0.33303000  14.010000   ; qtot 24.459358
  625          o     24    bbb     O1    625 -0.52917200  16.000000   ; qtot 23.930186
  626          o     24    bbb     O2    626 -0.52917200  16.000000   ; qtot 23.401014
  627         hx     24    bbb     H1    627 0.11563300   1.008000   ; qtot 23.516647
  628         hx     24    bbb     H2    628 0.11563300   1.008000   ; qtot 23.632280
  629         hx     24    bbb     H3    629 0.11563300   1.008000   ; qtot 23.747913
  630         hx     24    bbb     H4    630 0.11563300   1.008000   ; qtot 23.863546
  631         hc     24    bbb     H5    631 0.08347900   1.008000   ; qtot 23.947025
  632         hc     24    bbb     H6    632 0.08347900   1.008000   ; qtot 24.030504
  633         hc     24    bbb     H7    633 0.08347900   1.008000   ; qtot 24.113983
  634         hc     24    bbb     H8    634 0.08347900   1.008000   ; qtot 24.197462
  635         hx     24    bbb     H9    635 0.07988000   1.008000   ; qtot 24.277342
  636         hx     24    bbb    H10    636 0.07988000   1.008000   ; qtot 24.357222
  637         h1     24    bbb    H11    637 0.10618100   1.008000   ; qtot 24.463403
  638         h1     24    bbb    H12    638 0.10618100   1.008000   ; qtot 24.569584
  639         hn     24    bbb    H13    639 0.25916100   1.008000   ; qtot 24.828745
  640         hn     24    bbb    H25    640 0.17125500   1.008000   ; qtot 25.000000
; residue   25 bbb rtp bbb q 1.0
  641         n4     25    bbb     N1    641 -0.02747900  14.010000   ; qtot 24.972521
  642         c3     25    bbb     C1    642 -0.05097600  12.010000   ; qtot 24.921545
  643         c3     25    bbb     C2    643 -0.05097600  12.010000   ; qtot 24.870569
  644         c3     25    bbb     C3    644 -0.18457900  12.010000   ; qtot 24.685990
  645          c     25    bbb     C4    645 0.67254400  12.010000   ; qtot 25.358534
  646         c3     25    bbb     C5    646 -0.18457900  12.010000   ; qtot 25.173955
  647          c     25    bbb     C6    647 0.67254400  12.010000   ; qtot 25.846499
  648         c3     25    bbb     C7    648 -0.02083000  12.010000   ; qtot 25.825669
  649         c3     25    bbb     C8    649 -0.03328100  12.010000   ; qtot 25.792388
  650          n     25    bbb     N2    650 -0.33303000  14.010000   ; qtot 25.459358
  651          o     25    bbb     O1    651 -0.52917200  16.000000   ; qtot 24.930186
  652          o     25    bbb     O2    652 -0.52917200  16.000000   ; qtot 24.401014
  653         hx     25    bbb     H1    653 0.11563300   1.008000   ; qtot 24.516647
  654         hx     25    bbb     H2    654 0.11563300   1.008000   ; qtot 24.632280
  655         hx     25    bbb     H3    655 0.11563300   1.008000   ; qtot 24.747913
  656         hx     25    bbb     H4    656 0.11563300   1.008000   ; qtot 24.863546
  657         hc     25    bbb     H5    657 0.08347900   1.008000   ; qtot 24.947025
  658         hc     25    bbb     H6    658 0.08347900   1.008000   ; qtot 25.030504
  659         hc     25    bbb     H7    659 0.08347900   1.008000   ; qtot 25.113983
  660         hc     25    bbb     H8    660 0.08347900   1.008000   ; qtot 25.197462
  661         hx     25    bbb     H9    661 0.07988000   1.008000   ; qtot 25.277342
  662         hx     25    bbb    H10    662 0.07988000   1.008000   ; qtot 25.357222
  663         h1     25    bbb    H11    663 0.10618100   1.008000   ; qtot 25.463403
  664         h1     25    bbb    H12    664 0.10618100   1.008000   ; qtot 25.569584
  665         hn     25    bbb    H13    665 0.25916100   1.008000   ; qtot 25.828745
  666         hn     25    bbb    H25    666 0.17125500   1.008000   ; qtot 26.000000
; residue   26 bbb rtp bbb q 1.0
  667         n4     26    bbb     N1    667 -0.02747900  14.010000   ; qtot 25.972521
  668         c3     26    bbb     C1    668 -0.05097600  12.010000   ; qtot 25.921545
  669         c3     26    bbb     C2    669 -0.05097600  12.010000   ; qtot 25.870569
  670         c3     26    bbb     C3    670 -0.18457900  12.010000   ; qtot 25.685990
  671          c     26    bbb     C4    671 0.67254400  12.010000   ; qtot 26.358534
  672         c3     26    bbb     C5    672 -0.18457900  12.010000   ; qtot 26.173955
  673          c     26    bbb     C6    673 0.67254400  12.010000   ; qtot 26.846499
  674         c3     26    bbb     C7    674 -0.02083000  12.010000   ; qtot 26.825669
  675         c3     26    bbb     C8    675 -0.03328100  12.010000   ; qtot 26.792388
  676          n     26    bbb     N2    676 -0.33303000  14.010000   ; qtot 26.459358
  677          o     26    bbb     O1    677 -0.52917200  16.000000   ; qtot 25.930186
  678          o     26    bbb     O2    678 -0.52917200  16.000000   ; qtot 25.401014
  679         hx     26    bbb     H1    679 0.11563300   1.008000   ; qtot 25.516647
  680         hx     26    bbb     H2    680 0.11563300   1.008000   ; qtot 25.632280
  681         hx     26    bbb     H3    681 0.11563300   1.008000   ; qtot 25.747913
  682         hx     26    bbb     H4    682 0.11563300   1.008000   ; qtot 25.863546
  683         hc     26    bbb     H5    683 0.08347900   1.008000   ; qtot 25.947025
  684         hc     26    bbb     H6    684 0.08347900   1.008000   ; qtot 26.030504
  685         hc     26    bbb     H7    685 0.08347900   1.008000   ; qtot 26.113983
  686         hc     26    bbb     H8    686 0.08347900   1.008000   ; qtot 26.197462
  687         hx     26    bbb     H9    687 0.07988000   1.008000   ; qtot 26.277342
  688         hx     26    bbb    H10    688 0.07988000   1.008000   ; qtot 26.357222
  689         h1     26    bbb    H11    689 0.10618100   1.008000   ; qtot 26.463403
  690         h1     26    bbb    H12    690 0.10618100   1.008000   ; qtot 26.569584
  691         hn     26    bbb    H13    691 0.25916100   1.008000   ; qtot 26.828745
  692         hn     26    bbb    H25    692 0.17125500   1.008000   ; qtot 27.000000
; residue   27 bbb rtp bbb q 1.0
  693         n4     27    bbb     N1    693 -0.02747900  14.010000   ; qtot 26.972521
  694         c3     27    bbb     C1    694 -0.05097600  12.010000   ; qtot 26.921545
  695         c3     27    bbb     C2    695 -0.05097600  12.010000   ; qtot 26.870569
  696         c3     27    bbb     C3    696 -0.18457900  12.010000   ; qtot 26.685990
  697          c     27    bbb     C4    697 0.67254400  12.010000   ; qtot 27.358534
  698         c3     27    bbb     C5    698 -0.18457900  12.010000   ; qtot 27.173955
  699          c     27    bbb     C6    699 0.67254400  12.010000   ; qtot 27.846499
  700         c3     27    bbb     C7    700 -0.02083000  12.010000   ; qtot 27.825669
  701         c3     27    bbb     C8    701 -0.03328100  12.010000   ; qtot 27.792388
  702          n     27    bbb     N2    702 -0.33303000  14.010000   ; qtot 27.459358
  703          o     27    bbb     O1    703 -0.52917200  16.000000   ; qtot 26.930186
  704          o     27    bbb     O2    704 -0.52917200  16.000000   ; qtot 26.401014
  705         hx     27    bbb     H1    705 0.11563300   1.008000   ; qtot 26.516647
  706         hx     27    bbb     H2    706 0.11563300   1.008000   ; qtot 26.632280
  707         hx     27    bbb     H3    707 0.11563300   1.008000   ; qtot 26.747913
  708         hx     27    bbb     H4    708 0.11563300   1.008000   ; qtot 26.863546
  709         hc     27    bbb     H5    709 0.08347900   1.008000   ; qtot 26.947025
  710         hc     27    bbb     H6    710 0.08347900   1.008000   ; qtot 27.030504
  711         hc     27    bbb     H7    711 0.08347900   1.008000   ; qtot 27.113983
  712         hc     27    bbb     H8    712 0.08347900   1.008000   ; qtot 27.197462
  713         hx     27    bbb     H9    713 0.07988000   1.008000   ; qtot 27.277342
  714         hx     27    bbb    H10    714 0.07988000   1.008000   ; qtot 27.357222
  715         h1     27    bbb    H11    715 0.10618100   1.008000   ; qtot 27.463403
  716         h1     27    bbb    H12    716 0.10618100   1.008000   ; qtot 27.569584
  717         hn     27    bbb    H13    717 0.25916100   1.008000   ; qtot 27.828745
  718         hn     27    bbb    H25    718 0.17125500   1.008000   ; qtot 28.000000
; residue   28 bbb rtp bbb q 1.0
  719         n4     28    bbb     N1    719 -0.02747900  14.010000   ; qtot 27.972521
  720         c3     28    bbb     C1    720 -0.05097600  12.010000   ; qtot 27.921545
  721         c3     28    bbb     C2    721 -0.05097600  12.010000   ; qtot 27.870569
  722         c3     28    bbb     C3    722 -0.18457900  12.010000   ; qtot 27.685990
  723          c     28    bbb     C4    723 0.67254400  12.010000   ; qtot 28.358534
  724         c3     28    bbb     C5    724 -0.18457900  12.010000   ; qtot 28.173955
  725          c     28    bbb     C6    725 0.67254400  12.010000   ; qtot 28.846499
  726         c3     28    bbb     C7    726 -0.02083000  12.010000   ; qtot 28.825669
  727         c3     28    bbb     C8    727 -0.03328100  12.010000   ; qtot 28.792388
  728          n     28    bbb     N2    728 -0.33303000  14.010000   ; qtot 28.459358
  729          o     28    bbb     O1    729 -0.52917200  16.000000   ; qtot 27.930186
  730          o     28    bbb     O2    730 -0.52917200  16.000000   ; qtot 27.401014
  731         hx     28    bbb     H1    731 0.11563300   1.008000   ; qtot 27.516647
  732         hx     28    bbb     H2    732 0.11563300   1.008000   ; qtot 27.632280
  733         hx     28    bbb     H3    733 0.11563300   1.008000   ; qtot 27.747913
  734         hx     28    bbb     H4    734 0.11563300   1.008000   ; qtot 27.863546
  735         hc     28    bbb     H5    735 0.08347900   1.008000   ; qtot 27.947025
  736         hc     28    bbb     H6    736 0.08347900   1.008000   ; qtot 28.030504
  737         hc     28    bbb     H7    737 0.08347900   1.008000   ; qtot 28.113983
  738         hc     28    bbb     H8    738 0.08347900   1.008000   ; qtot 28.197462
  739         hx     28    bbb     H9    739 0.07988000   1.008000   ; qtot 28.277342
  740         hx     28    bbb    H10    740 0.07988000   1.008000   ; qtot 28.357222
  741         h1     28    bbb    H11    741 0.10618100   1.008000   ; qtot 28.463403
  742         h1     28    bbb    H12    742 0.10618100   1.008000   ; qtot 28.569584
  743         hn     28    bbb    H13    743 0.25916100   1.008000   ; qtot 28.828745
  744         hn     28    bbb    H25    744 0.17125500   1.008000   ; qtot 29.000000
; residue   29 bbb rtp bbb q 1.0
  745         n4     29    bbb     N1    745 -0.02747900  14.010000   ; qtot 28.972521
  746         c3     29    bbb     C1    746 -0.05097600  12.010000   ; qtot 28.921545
  747         c3     29    bbb     C2    747 -0.05097600  12.010000   ; qtot 28.870569
  748         c3     29    bbb     C3    748 -0.18457900  12.010000   ; qtot 28.685990
  749          c     29    bbb     C4    749 0.67254400  12.010000   ; qtot 29.358534
  750         c3     29    bbb     C5    750 -0.18457900  12.010000   ; qtot 29.173955
  751          c     29    bbb     C6    751 0.67254400  12.010000   ; qtot 29.846499
  752         c3     29    bbb     C7    752 -0.02083000  12.010000   ; qtot 29.825669
  753         c3     29    bbb     C8    753 -0.03328100  12.010000   ; qtot 29.792388
  754          n     29    bbb     N2    754 -0.33303000  14.010000   ; qtot 29.459358
  755          o     29    bbb     O1    755 -0.52917200  16.000000   ; qtot 28.930186
  756          o     29    bbb     O2    756 -0.52917200  16.000000   ; qtot 28.401014
  757         hx     29    bbb     H1    757 0.11563300   1.008000   ; qtot 28.516647
  758         hx     29    bbb     H2    758 0.11563300   1.008000   ; qtot 28.632280
  759         hx     29    bbb     H3    759 0.11563300   1.008000   ; qtot 28.747913
  760         hx     29    bbb     H4    760 0.11563300   1.008000   ; qtot 28.863546
  761         hc     29    bbb     H5    761 0.08347900   1.008000   ; qtot 28.947025
  762         hc     29    bbb     H6    762 0.08347900   1.008000   ; qtot 29.030504
  763         hc     29    bbb     H7    763 0.08347900   1.008000   ; qtot 29.113983
  764         hc     29    bbb     H8    764 0.08347900   1.008000   ; qtot 29.197462
  765         hx     29    bbb     H9    765 0.07988000   1.008000   ; qtot 29.277342
  766         hx     29    bbb    H10    766 0.07988000   1.008000   ; qtot 29.357222
  767         h1     29    bbb    H11    767 0.10618100   1.008000   ; qtot 29.463403
  768         h1     29    bbb    H12    768 0.10618100   1.008000   ; qtot 29.569584
  769         hn     29    bbb    H13    769 0.25916100   1.008000   ; qtot 29.828745
  770         hn     29    bbb    H25    770 0.17125500   1.008000   ; qtot 30.000000
; residue   30 bbb rtp bbb q 1.0
  771         n4     30    bbb     N1    771 -0.02747900  14.010000   ; qtot 29.972521
  772         c3     30    bbb     C1    772 -0.05097600  12.010000   ; qtot 29.921545
  773         c3     30    bbb     C2    773 -0.05097600  12.010000   ; qtot 29.870569
  774         c3     30    bbb     C3    774 -0.18457900  12.010000   ; qtot 29.685990
  775          c     30    bbb     C4    775 0.67254400  12.010000   ; qtot 30.358534
  776         c3     30    bbb     C5    776 -0.18457900  12.010000   ; qtot 30.173955
  777          c     30    bbb     C6    777 0.67254400  12.010000   ; qtot 30.846499
  778         c3     30    bbb     C7    778 -0.02083000  12.010000   ; qtot 30.825669
  779         c3     30    bbb     C8    779 -0.03328100  12.010000   ; qtot 30.792388
  780          n     30    bbb     N2    780 -0.33303000  14.010000   ; qtot 30.459358
  781          o     30    bbb     O1    781 -0.52917200  16.000000   ; qtot 29.930186
  782          o     30    bbb     O2    782 -0.52917200  16.000000   ; qtot 29.401014
  783         hx     30    bbb     H1    783 0.11563300   1.008000   ; qtot 29.516647
  784         hx     30    bbb     H2    784 0.11563300   1.008000   ; qtot 29.632280
  785         hx     30    bbb     H3    785 0.11563300   1.008000   ; qtot 29.747913
  786         hx     30    bbb     H4    786 0.11563300   1.008000   ; qtot 29.863546
  787         hc     30    bbb     H5    787 0.08347900   1.008000   ; qtot 29.947025
  788         hc     30    bbb     H6    788 0.08347900   1.008000   ; qtot 30.030504
  789         hc     30    bbb     H7    789 0.08347900   1.008000   ; qtot 30.113983
  790         hc     30    bbb     H8    790 0.08347900   1.008000   ; qtot 30.197462
  791         hx     30    bbb     H9    791 0.07988000   1.008000   ; qtot 30.277342
  792         hx     30    bbb    H10    792 0.07988000   1.008000   ; qtot 30.357222
  793         h1     30    bbb    H11    793 0.10618100   1.008000   ; qtot 30.463403
  794         h1     30    bbb    H12    794 0.10618100   1.008000   ; qtot 30.569584
  795         hn     30    bbb    H13    795 0.25916100   1.008000   ; qtot 30.828745
  796         hn     30    bbb    H25    796 0.17125500   1.008000   ; qtot 31.000000
; residue   31 bbb rtp bbb q 1.0
  797         n4     31    bbb     N1    797 -0.02747900  14.010000   ; qtot 30.972521
  798         c3     31    bbb     C1    798 -0.05097600  12.010000   ; qtot 30.921545
  799         c3     31    bbb     C2    799 -0.05097600  12.010000   ; qtot 30.870569
  800         c3     31    bbb     C3    800 -0.18457900  12.010000   ; qtot 30.685990
  801          c     31    bbb     C4    801 0.67254400  12.010000   ; qtot 31.358534
  802         c3     31    bbb     C5    802 -0.18457900  12.010000   ; qtot 31.173955
  803          c     31    bbb     C6    803 0.67254400  12.010000   ; qtot 31.846499
  804         c3     31    bbb     C7    804 -0.02083000  12.010000   ; qtot 31.825669
  805         c3     31    bbb     C8    805 -0.03328100  12.010000   ; qtot 31.792388
  806          n     31    bbb     N2    806 -0.33303000  14.010000   ; qtot 31.459358
  807          o     31    bbb     O1    807 -0.52917200  16.000000   ; qtot 30.930186
  808          o     31    bbb     O2    808 -0.52917200  16.000000   ; qtot 30.401014
  809         hx     31    bbb     H1    809 0.11563300   1.008000   ; qtot 30.516647
  810         hx     31    bbb     H2    810 0.11563300   1.008000   ; qtot 30.632280
  811         hx     31    bbb     H3    811 0.11563300   1.008000   ; qtot 30.747913
  812         hx     31    bbb     H4    812 0.11563300   1.008000   ; qtot 30.863546
  813         hc     31    bbb     H5    813 0.08347900   1.008000   ; qtot 30.947025
  814         hc     31    bbb     H6    814 0.08347900   1.008000   ; qtot 31.030504
  815         hc     31    bbb     H7    815 0.08347900   1.008000   ; qtot 31.113983
  816         hc     31    bbb     H8    816 0.08347900   1.008000   ; qtot 31.197462
  817         hx     31    bbb     H9    817 0.07988000   1.008000   ; qtot 31.277342
  818         hx     31    bbb    H10    818 0.07988000   1.008000   ; qtot 31.357222
  819         h1     31    bbb    H11    819 0.10618100   1.008000   ; qtot 31.463403
  820         h1     31    bbb    H12    820 0.10618100   1.008000   ; qtot 31.569584
  821         hn     31    bbb    H13    821 0.25916100   1.008000   ; qtot 31.828745
  822         hn     31    bbb    H25    822 0.17125500   1.008000   ; qtot 32.000000
; residue   32 bbb rtp bbb q 1.0
  823         n4     32    bbb     N1    823 -0.02747900  14.010000   ; qtot 31.972521
  824         c3     32    bbb     C1    824 -0.05097600  12.010000   ; qtot 31.921545
  825         c3     32    bbb     C2    825 -0.05097600  12.010000   ; qtot 31.870569
  826         c3     32    bbb     C3    826 -0.18457900  12.010000   ; qtot 31.685990
  827          c     32    bbb     C4    827 0.67254400  12.010000   ; qtot 32.358534
  828         c3     32    bbb     C5    828 -0.18457900  12.010000   ; qtot 32.173955
  829          c     32    bbb     C6    829 0.67254400  12.010000   ; qtot 32.846499
  830         c3     32    bbb     C7    830 -0.02083000  12.010000   ; qtot 32.825669
  831         c3     32    bbb     C8    831 -0.03328100  12.010000   ; qtot 32.792388
  832          n     32    bbb     N2    832 -0.33303000  14.010000   ; qtot 32.459358
  833          o     32    bbb     O1    833 -0.52917200  16.000000   ; qtot 31.930186
  834          o     32    bbb     O2    834 -0.52917200  16.000000   ; qtot 31.401014
  835         hx     32    bbb     H1    835 0.11563300   1.008000   ; qtot 31.516647
  836         hx     32    bbb     H2    836 0.11563300   1.008000   ; qtot 31.632280
  837         hx     32    bbb     H3    837 0.11563300   1.008000   ; qtot 31.747913
  838         hx     32    bbb     H4    838 0.11563300   1.008000   ; qtot 31.863546
  839         hc     32    bbb     H5    839 0.08347900   1.008000   ; qtot 31.947025
  840         hc     32    bbb     H6    840 0.08347900   1.008000   ; qtot 32.030504
  841         hc     32    bbb     H7    841 0.08347900   1.008000   ; qtot 32.113983
  842         hc     32    bbb     H8    842 0.08347900   1.008000   ; qtot 32.197462
  843         hx     32    bbb     H9    843 0.07988000   1.008000   ; qtot 32.277342
  844         hx     32    bbb    H10    844 0.07988000   1.008000   ; qtot 32.357222
  845         h1     32    bbb    H11    845 0.10618100   1.008000   ; qtot 32.463403
  846         h1     32    bbb    H12    846 0.10618100   1.008000   ; qtot 32.569584
  847         hn     32    bbb    H13    847 0.25916100   1.008000   ; qtot 32.828745
  848         hn     32    bbb    H25    848 0.17125500   1.008000   ; qtot 33.000000
; residue   33 bbb rtp bbb q 1.0
  849         n4     33    bbb     N1    849 -0.02747900  14.010000   ; qtot 32.972521
  850         c3     33    bbb     C1    850 -0.05097600  12.010000   ; qtot 32.921545
  851         c3     33    bbb     C2    851 -0.05097600  12.010000   ; qtot 32.870569
  852         c3     33    bbb     C3    852 -0.18457900  12.010000   ; qtot 32.685990
  853          c     33    bbb     C4    853 0.67254400  12.010000   ; qtot 33.358534
  854         c3     33    bbb     C5    854 -0.18457900  12.010000   ; qtot 33.173955
  855          c     33    bbb     C6    855 0.67254400  12.010000   ; qtot 33.846499
  856         c3     33    bbb     C7    856 -0.02083000  12.010000   ; qtot 33.825669
  857         c3     33    bbb     C8    857 -0.03328100  12.010000   ; qtot 33.792388
  858          n     33    bbb     N2    858 -0.33303000  14.010000   ; qtot 33.459358
  859          o     33    bbb     O1    859 -0.52917200  16.000000   ; qtot 32.930186
  860          o     33    bbb     O2    860 -0.52917200  16.000000   ; qtot 32.401014
  861         hx     33    bbb     H1    861 0.11563300   1.008000   ; qtot 32.516647
  862         hx     33    bbb     H2    862 0.11563300   1.008000   ; qtot 32.632280
  863         hx     33    bbb     H3    863 0.11563300   1.008000   ; qtot 32.747913
  864         hx     33    bbb     H4    864 0.11563300   1.008000   ; qtot 32.863546
  865         hc     33    bbb     H5    865 0.08347900   1.008000   ; qtot 32.947025
  866         hc     33    bbb     H6    866 0.08347900   1.008000   ; qtot 33.030504
  867         hc     33    bbb     H7    867 0.08347900   1.008000   ; qtot 33.113983
  868         hc     33    bbb     H8    868 0.08347900   1.008000   ; qtot 33.197462
  869         hx     33    bbb     H9    869 0.07988000   1.008000   ; qtot 33.277342
  870         hx     33    bbb    H10    870 0.07988000   1.008000   ; qtot 33.357222
  871         h1     33    bbb    H11    871 0.10618100   1.008000   ; qtot 33.463403
  872         h1     33    bbb    H12    872 0.10618100   1.008000   ; qtot 33.569584
  873         hn     33    bbb    H13    873 0.25916100   1.008000   ; qtot 33.828745
  874         hn     33    bbb    H25    874 0.17125500   1.008000   ; qtot 34.000000
; residue   34 bbb rtp bbb q 1.0
  875         n4     34    bbb     N1    875 -0.02747900  14.010000   ; qtot 33.972521
  876         c3     34    bbb     C1    876 -0.05097600  12.010000   ; qtot 33.921545
  877         c3     34    bbb     C2    877 -0.05097600  12.010000   ; qtot 33.870569
  878         c3     34    bbb     C3    878 -0.18457900  12.010000   ; qtot 33.685990
  879          c     34    bbb     C4    879 0.67254400  12.010000   ; qtot 34.358534
  880         c3     34    bbb     C5    880 -0.18457900  12.010000   ; qtot 34.173955
  881          c     34    bbb     C6    881 0.67254400  12.010000   ; qtot 34.846499
  882         c3     34    bbb     C7    882 -0.02083000  12.010000   ; qtot 34.825669
  883         c3     34    bbb     C8    883 -0.03328100  12.010000   ; qtot 34.792388
  884          n     34    bbb     N2    884 -0.33303000  14.010000   ; qtot 34.459358
  885          o     34    bbb     O1    885 -0.52917200  16.000000   ; qtot 33.930186
  886          o     34    bbb     O2    886 -0.52917200  16.000000   ; qtot 33.401014
  887         hx     34    bbb     H1    887 0.11563300   1.008000   ; qtot 33.516647
  888         hx     34    bbb     H2    888 0.11563300   1.008000   ; qtot 33.632280
  889         hx     34    bbb     H3    889 0.11563300   1.008000   ; qtot 33.747913
  890         hx     34    bbb     H4    890 0.11563300   1.008000   ; qtot 33.863546
  891         hc     34    bbb     H5    891 0.08347900   1.008000   ; qtot 33.947025
  892         hc     34    bbb     H6    892 0.08347900   1.008000   ; qtot 34.030504
  893         hc     34    bbb     H7    893 0.08347900   1.008000   ; qtot 34.113983
  894         hc     34    bbb     H8    894 0.08347900   1.008000   ; qtot 34.197462
  895         hx     34    bbb     H9    895 0.07988000   1.008000   ; qtot 34.277342
  896         hx     34    bbb    H10    896 0.07988000   1.008000   ; qtot 34.357222
  897         h1     34    bbb    H11    897 0.10618100   1.008000   ; qtot 34.463403
  898         h1     34    bbb    H12    898 0.10618100   1.008000   ; qtot 34.569584
  899         hn     34    bbb    H13    899 0.25916100   1.008000   ; qtot 34.828745
  900         hn     34    bbb    H25    900 0.17125500   1.008000   ; qtot 35.000000
; residue   35 bbb rtp bbb q 1.0
  901         n4     35    bbb     N1    901 -0.02747900  14.010000   ; qtot 34.972521
  902         c3     35    bbb     C1    902 -0.05097600  12.010000   ; qtot 34.921545
  903         c3     35    bbb     C2    903 -0.05097600  12.010000   ; qtot 34.870569
  904         c3     35    bbb     C3    904 -0.18457900  12.010000   ; qtot 34.685990
  905          c     35    bbb     C4    905 0.67254400  12.010000   ; qtot 35.358534
  906         c3     35    bbb     C5    906 -0.18457900  12.010000   ; qtot 35.173955
  907          c     35    bbb     C6    907 0.67254400  12.010000   ; qtot 35.846499
  908         c3     35    bbb     C7    908 -0.02083000  12.010000   ; qtot 35.825669
  909         c3     35    bbb     C8    909 -0.03328100  12.010000   ; qtot 35.792388
  910          n     35    bbb     N2    910 -0.33303000  14.010000   ; qtot 35.459358
  911          o     35    bbb     O1    911 -0.52917200  16.000000   ; qtot 34.930186
  912          o     35    bbb     O2    912 -0.52917200  16.000000   ; qtot 34.401014
  913         hx     35    bbb     H1    913 0.11563300   1.008000   ; qtot 34.516647
  914         hx     35    bbb     H2    914 0.11563300   1.008000   ; qtot 34.632280
  915         hx     35    bbb     H3    915 0.11563300   1.008000   ; qtot 34.747913
  916         hx     35    bbb     H4    916 0.11563300   1.008000   ; qtot 34.863546
  917         hc     35    bbb     H5    917 0.08347900   1.008000   ; qtot 34.947025
  918         hc     35    bbb     H6    918 0.08347900   1.008000   ; qtot 35.030504
  919         hc     35    bbb     H7    919 0.08347900   1.008000   ; qtot 35.113983
  920         hc     35    bbb     H8    920 0.08347900   1.008000   ; qtot 35.197462
  921         hx     35    bbb     H9    921 0.07988000   1.008000   ; qtot 35.277342
  922         hx     35    bbb    H10    922 0.07988000   1.008000   ; qtot 35.357222
  923         h1     35    bbb    H11    923 0.10618100   1.008000   ; qtot 35.463403
  924         h1     35    bbb    H12    924 0.10618100   1.008000   ; qtot 35.569584
  925         hn     35    bbb    H13    925 0.25916100   1.008000   ; qtot 35.828745
  926         hn     35    bbb    H25    926 0.17125500   1.008000   ; qtot 36.000000
; residue   36 bbb rtp bbb q 1.0
  927         n4     36    bbb     N1    927 -0.02747900  14.010000   ; qtot 35.972521
  928         c3     36    bbb     C1    928 -0.05097600  12.010000   ; qtot 35.921545
  929         c3     36    bbb     C2    929 -0.05097600  12.010000   ; qtot 35.870569
  930         c3     36    bbb     C3    930 -0.18457900  12.010000   ; qtot 35.685990
  931          c     36    bbb     C4    931 0.67254400  12.010000   ; qtot 36.358534
  932         c3     36    bbb     C5    932 -0.18457900  12.010000   ; qtot 36.173955
  933          c     36    bbb     C6    933 0.67254400  12.010000   ; qtot 36.846499
  934         c3     36    bbb     C7    934 -0.02083000  12.010000   ; qtot 36.825669
  935         c3     36    bbb     C8    935 -0.03328100  12.010000   ; qtot 36.792388
  936          n     36    bbb     N2    936 -0.33303000  14.010000   ; qtot 36.459358
  937          o     36    bbb     O1    937 -0.52917200  16.000000   ; qtot 35.930186
  938          o     36    bbb     O2    938 -0.52917200  16.000000   ; qtot 35.401014
  939         hx     36    bbb     H1    939 0.11563300   1.008000   ; qtot 35.516647
  940         hx     36    bbb     H2    940 0.11563300   1.008000   ; qtot 35.632280
  941         hx     36    bbb     H3    941 0.11563300   1.008000   ; qtot 35.747913
  942         hx     36    bbb     H4    942 0.11563300   1.008000   ; qtot 35.863546
  943         hc     36    bbb     H5    943 0.08347900   1.008000   ; qtot 35.947025
  944         hc     36    bbb     H6    944 0.08347900   1.008000   ; qtot 36.030504
  945         hc     36    bbb     H7    945 0.08347900   1.008000   ; qtot 36.113983
  946         hc     36    bbb     H8    946 0.08347900   1.008000   ; qtot 36.197462
  947         hx     36    bbb     H9    947 0.07988000   1.008000   ; qtot 36.277342
  948         hx     36    bbb    H10    948 0.07988000   1.008000   ; qtot 36.357222
  949         h1     36    bbb    H11    949 0.10618100   1.008000   ; qtot 36.463403
  950         h1     36    bbb    H12    950 0.10618100   1.008000   ; qtot 36.569584
  951         hn     36    bbb    H13    951 0.25916100   1.008000   ; qtot 36.828745
  952         hn     36    bbb    H25    952 0.17125500   1.008000   ; qtot 37.000000
; residue   37 bbb rtp bbb q 1.0
  953         n4     37    bbb     N1    953 -0.02747900  14.010000   ; qtot 36.972521
  954         c3     37    bbb     C1    954 -0.05097600  12.010000   ; qtot 36.921545
  955         c3     37    bbb     C2    955 -0.05097600  12.010000   ; qtot 36.870569
  956         c3     37    bbb     C3    956 -0.18457900  12.010000   ; qtot 36.685990
  957          c     37    bbb     C4    957 0.67254400  12.010000   ; qtot 37.358534
  958         c3     37    bbb     C5    958 -0.18457900  12.010000   ; qtot 37.173955
  959          c     37    bbb     C6    959 0.67254400  12.010000   ; qtot 37.846499
  960         c3     37    bbb     C7    960 -0.02083000  12.010000   ; qtot 37.825669
  961         c3     37    bbb     C8    961 -0.03328100  12.010000   ; qtot 37.792388
  962          n     37    bbb     N2    962 -0.33303000  14.010000   ; qtot 37.459358
  963          o     37    bbb     O1    963 -0.52917200  16.000000   ; qtot 36.930186
  964          o     37    bbb     O2    964 -0.52917200  16.000000   ; qtot 36.401014
  965         hx     37    bbb     H1    965 0.11563300   1.008000   ; qtot 36.516647
  966         hx     37    bbb     H2    966 0.11563300   1.008000   ; qtot 36.632280
  967         hx     37    bbb     H3    967 0.11563300   1.008000   ; qtot 36.747913
  968         hx     37    bbb     H4    968 0.11563300   1.008000   ; qtot 36.863546
  969         hc     37    bbb     H5    969 0.08347900   1.008000   ; qtot 36.947025
  970         hc     37    bbb     H6    970 0.08347900   1.008000   ; qtot 37.030504
  971         hc     37    bbb     H7    971 0.08347900   1.008000   ; qtot 37.113983
  972         hc     37    bbb     H8    972 0.08347900   1.008000   ; qtot 37.197462
  973         hx     37    bbb     H9    973 0.07988000   1.008000   ; qtot 37.277342
  974         hx     37    bbb    H10    974 0.07988000   1.008000   ; qtot 37.357222
  975         h1     37    bbb    H11    975 0.10618100   1.008000   ; qtot 37.463403
  976         h1     37    bbb    H12    976 0.10618100   1.008000   ; qtot 37.569584
  977         hn     37    bbb    H13    977 0.25916100   1.008000   ; qtot 37.828745
  978         hn     37    bbb    H25    978 0.17125500   1.008000   ; qtot 38.000000
; residue   38 bbb rtp bbb q 1.0
  979         n4     38    bbb     N1    979 -0.02747900  14.010000   ; qtot 37.972521
  980         c3     38    bbb     C1    980 -0.05097600  12.010000   ; qtot 37.921545
  981         c3     38    bbb     C2    981 -0.05097600  12.010000   ; qtot 37.870569
  982         c3     38    bbb     C3    982 -0.18457900  12.010000   ; qtot 37.685990
  983          c     38    bbb     C4    983 0.67254400  12.010000   ; qtot 38.358534
  984         c3     38    bbb     C5    984 -0.18457900  12.010000   ; qtot 38.173955
  985          c     38    bbb     C6    985 0.67254400  12.010000   ; qtot 38.846499
  986         c3     38    bbb     C7    986 -0.02083000  12.010000   ; qtot 38.825669
  987         c3     38    bbb     C8    987 -0.03328100  12.010000   ; qtot 38.792388
  988          n     38    bbb     N2    988 -0.33303000  14.010000   ; qtot 38.459358
  989          o     38    bbb     O1    989 -0.52917200  16.000000   ; qtot 37.930186
  990          o     38    bbb     O2    990 -0.52917200  16.000000   ; qtot 37.401014
  991         hx     38    bbb     H1    991 0.11563300   1.008000   ; qtot 37.516647
  992         hx     38    bbb     H2    992 0.11563300   1.008000   ; qtot 37.632280
  993         hx     38    bbb     H3    993 0.11563300   1.008000   ; qtot 37.747913
  994         hx     38    bbb     H4    994 0.11563300   1.008000   ; qtot 37.863546
  995         hc     38    bbb     H5    995 0.08347900   1.008000   ; qtot 37.947025
  996         hc     38    bbb     H6    996 0.08347900   1.008000   ; qtot 38.030504
  997         hc     38    bbb     H7    997 0.08347900   1.008000   ; qtot 38.113983
  998         hc     38    bbb     H8    998 0.08347900   1.008000   ; qtot 38.197462
  999         hx     38    bbb     H9    999 0.07988000   1.008000   ; qtot 38.277342
 1000         hx     38    bbb    H10   1000 0.07988000   1.008000   ; qtot 38.357222
 1001         h1     38    bbb    H11   1001 0.10618100   1.008000   ; qtot 38.463403
 1002         h1     38    bbb    H12   1002 0.10618100   1.008000   ; qtot 38.569584
 1003         hn     38    bbb    H13   1003 0.25916100   1.008000   ; qtot 38.828745
 1004         hn     38    bbb    H25   1004 0.17125500   1.008000   ; qtot 39.000000
; residue   39 bbb rtp bbb q 1.0
 1005         n4     39    bbb     N1   1005 -0.02747900  14.010000   ; qtot 38.972521
 1006         c3     39    bbb     C1   1006 -0.05097600  12.010000   ; qtot 38.921545
 1007         c3     39    bbb     C2   1007 -0.05097600  12.010000   ; qtot 38.870569
 1008         c3     39    bbb     C3   1008 -0.18457900  12.010000   ; qtot 38.685990
 1009          c     39    bbb     C4   1009 0.67254400  12.010000   ; qtot 39.358534
 1010         c3     39    bbb     C5   1010 -0.18457900  12.010000   ; qtot 39.173955
 1011          c     39    bbb     C6   1011 0.67254400  12.010000   ; qtot 39.846499
 1012         c3     39    bbb     C7   1012 -0.02083000  12.010000   ; qtot 39.825669
 1013         c3     39    bbb     C8   1013 -0.03328100  12.010000   ; qtot 39.792388
 1014          n     39    bbb     N2   1014 -0.33303000  14.010000   ; qtot 39.459358
 1015          o     39    bbb     O1   1015 -0.52917200  16.000000   ; qtot 38.930186
 1016          o     39    bbb     O2   1016 -0.52917200  16.000000   ; qtot 38.401014
 1017         hx     39    bbb     H1   1017 0.11563300   1.008000   ; qtot 38.516647
 1018         hx     39    bbb     H2   1018 0.11563300   1.008000   ; qtot 38.632280
 1019         hx     39    bbb     H3   1019 0.11563300   1.008000   ; qtot 38.747913
 1020         hx     39    bbb     H4   1020 0.11563300   1.008000   ; qtot 38.863546
 1021         hc     39    bbb     H5   1021 0.08347900   1.008000   ; qtot 38.947025
 1022         hc     39    bbb     H6   1022 0.08347900   1.008000   ; qtot 39.030504
 1023         hc     39    bbb     H7   1023 0.08347900   1.008000   ; qtot 39.113983
 1024         hc     39    bbb     H8   1024 0.08347900   1.008000   ; qtot 39.197462
 1025         hx     39    bbb     H9   1025 0.07988000   1.008000   ; qtot 39.277342
 1026         hx     39    bbb    H10   1026 0.07988000   1.008000   ; qtot 39.357222
 1027         h1     39    bbb    H11   1027 0.10618100   1.008000   ; qtot 39.463403
 1028         h1     39    bbb    H12   1028 0.10618100   1.008000   ; qtot 39.569584
 1029         hn     39    bbb    H13   1029 0.25916100   1.008000   ; qtot 39.828745
 1030         hn     39    bbb    H25   1030 0.17125500   1.008000   ; qtot 40.000000
; residue   40 bbb rtp bbb q 1.0
 1031         n4     40    bbb     N1   1031 -0.02747900  14.010000   ; qtot 39.972521
 1032         c3     40    bbb     C1   1032 -0.05097600  12.010000   ; qtot 39.921545
 1033         c3     40    bbb     C2   1033 -0.05097600  12.010000   ; qtot 39.870569
 1034         c3     40    bbb     C3   1034 -0.18457900  12.010000   ; qtot 39.685990
 1035          c     40    bbb     C4   1035 0.67254400  12.010000   ; qtot 40.358534
 1036         c3     40    bbb     C5   1036 -0.18457900  12.010000   ; qtot 40.173955
 1037          c     40    bbb     C6   1037 0.67254400  12.010000   ; qtot 40.846499
 1038         c3     40    bbb     C7   1038 -0.02083000  12.010000   ; qtot 40.825669
 1039         c3     40    bbb     C8   1039 -0.03328100  12.010000   ; qtot 40.792388
 1040          n     40    bbb     N2   1040 -0.33303000  14.010000   ; qtot 40.459358
 1041          o     40    bbb     O1   1041 -0.52917200  16.000000   ; qtot 39.930186
 1042          o     40    bbb     O2   1042 -0.52917200  16.000000   ; qtot 39.401014
 1043         hx     40    bbb     H1   1043 0.11563300   1.008000   ; qtot 39.516647
 1044         hx     40    bbb     H2   1044 0.11563300   1.008000   ; qtot 39.632280
 1045         hx     40    bbb     H3   1045 0.11563300   1.008000   ; qtot 39.747913
 1046         hx     40    bbb     H4   1046 0.11563300   1.008000   ; qtot 39.863546
 1047         hc     40    bbb     H5   1047 0.08347900   1.008000   ; qtot 39.947025
 1048         hc     40    bbb     H6   1048 0.08347900   1.008000   ; qtot 40.030504
 1049         hc     40    bbb     H7   1049 0.08347900   1.008000   ; qtot 40.113983
 1050         hc     40    bbb     H8   1050 0.08347900   1.008000   ; qtot 40.197462
 1051         hx     40    bbb     H9   1051 0.07988000   1.008000   ; qtot 40.277342
 1052         hx     40    bbb    H10   1052 0.07988000   1.008000   ; qtot 40.357222
 1053         h1     40    bbb    H11   1053 0.10618100   1.008000   ; qtot 40.463403
 1054         h1     40    bbb    H12   1054 0.10618100   1.008000   ; qtot 40.569584
 1055         hn     40    bbb    H13   1055 0.25916100   1.008000   ; qtot 40.828745
 1056         hn     40    bbb    H25   1056 0.17125500   1.008000   ; qtot 41.000000
; residue   41 bbb rtp bbb q 1.0
 1057         n4     41    bbb     N1   1057 -0.02747900  14.010000   ; qtot 40.972521
 1058         c3     41    bbb     C1   1058 -0.05097600  12.010000   ; qtot 40.921545
 1059         c3     41    bbb     C2   1059 -0.05097600  12.010000   ; qtot 40.870569
 1060         c3     41    bbb     C3   1060 -0.18457900  12.010000   ; qtot 40.685990
 1061          c     41    bbb     C4   1061 0.67254400  12.010000   ; qtot 41.358534
 1062         c3     41    bbb     C5   1062 -0.18457900  12.010000   ; qtot 41.173955
 1063          c     41    bbb     C6   1063 0.67254400  12.010000   ; qtot 41.846499
 1064         c3     41    bbb     C7   1064 -0.02083000  12.010000   ; qtot 41.825669
 1065         c3     41    bbb     C8   1065 -0.03328100  12.010000   ; qtot 41.792388
 1066          n     41    bbb     N2   1066 -0.33303000  14.010000   ; qtot 41.459358
 1067          o     41    bbb     O1   1067 -0.52917200  16.000000   ; qtot 40.930186
 1068          o     41    bbb     O2   1068 -0.52917200  16.000000   ; qtot 40.401014
 1069         hx     41    bbb     H1   1069 0.11563300   1.008000   ; qtot 40.516647
 1070         hx     41    bbb     H2   1070 0.11563300   1.008000   ; qtot 40.632280
 1071         hx     41    bbb     H3   1071 0.11563300   1.008000   ; qtot 40.747913
 1072         hx     41    bbb     H4   1072 0.11563300   1.008000   ; qtot 40.863546
 1073         hc     41    bbb     H5   1073 0.08347900   1.008000   ; qtot 40.947025
 1074         hc     41    bbb     H6   1074 0.08347900   1.008000   ; qtot 41.030504
 1075         hc     41    bbb     H7   1075 0.08347900   1.008000   ; qtot 41.113983
 1076         hc     41    bbb     H8   1076 0.08347900   1.008000   ; qtot 41.197462
 1077         hx     41    bbb     H9   1077 0.07988000   1.008000   ; qtot 41.277342
 1078         hx     41    bbb    H10   1078 0.07988000   1.008000   ; qtot 41.357222
 1079         h1     41    bbb    H11   1079 0.10618100   1.008000   ; qtot 41.463403
 1080         h1     41    bbb    H12   1080 0.10618100   1.008000   ; qtot 41.569584
 1081         hn     41    bbb    H13   1081 0.25916100   1.008000   ; qtot 41.828745
 1082         hn     41    bbb    H25   1082 0.17125500   1.008000   ; qtot 42.000000
; residue   42 bbb rtp bbb q 1.0
 1083         n4     42    bbb     N1   1083 -0.02747900  14.010000   ; qtot 41.972521
 1084         c3     42    bbb     C1   1084 -0.05097600  12.010000   ; qtot 41.921545
 1085         c3     42    bbb     C2   1085 -0.05097600  12.010000   ; qtot 41.870569
 1086         c3     42    bbb     C3   1086 -0.18457900  12.010000   ; qtot 41.685990
 1087          c     42    bbb     C4   1087 0.67254400  12.010000   ; qtot 42.358534
 1088         c3     42    bbb     C5   1088 -0.18457900  12.010000   ; qtot 42.173955
 1089          c     42    bbb     C6   1089 0.67254400  12.010000   ; qtot 42.846499
 1090         c3     42    bbb     C7   1090 -0.02083000  12.010000   ; qtot 42.825669
 1091         c3     42    bbb     C8   1091 -0.03328100  12.010000   ; qtot 42.792388
 1092          n     42    bbb     N2   1092 -0.33303000  14.010000   ; qtot 42.459358
 1093          o     42    bbb     O1   1093 -0.52917200  16.000000   ; qtot 41.930186
 1094          o     42    bbb     O2   1094 -0.52917200  16.000000   ; qtot 41.401014
 1095         hx     42    bbb     H1   1095 0.11563300   1.008000   ; qtot 41.516647
 1096         hx     42    bbb     H2   1096 0.11563300   1.008000   ; qtot 41.632280
 1097         hx     42    bbb     H3   1097 0.11563300   1.008000   ; qtot 41.747913
 1098         hx     42    bbb     H4   1098 0.11563300   1.008000   ; qtot 41.863546
 1099         hc     42    bbb     H5   1099 0.08347900   1.008000   ; qtot 41.947025
 1100         hc     42    bbb     H6   1100 0.08347900   1.008000   ; qtot 42.030504
 1101         hc     42    bbb     H7   1101 0.08347900   1.008000   ; qtot 42.113983
 1102         hc     42    bbb     H8   1102 0.08347900   1.008000   ; qtot 42.197462
 1103         hx     42    bbb     H9   1103 0.07988000   1.008000   ; qtot 42.277342
 1104         hx     42    bbb    H10   1104 0.07988000   1.008000   ; qtot 42.357222
 1105         h1     42    bbb    H11   1105 0.10618100   1.008000   ; qtot 42.463403
 1106         h1     42    bbb    H12   1106 0.10618100   1.008000   ; qtot 42.569584
 1107         hn     42    bbb    H13   1107 0.25916100   1.008000   ; qtot 42.828745
 1108         hn     42    bbb    H25   1108 0.17125500   1.008000   ; qtot 43.000000
; residue   43 bbb rtp bbb q 1.0
 1109         n4     43    bbb     N1   1109 -0.02747900  14.010000   ; qtot 42.972521
 1110         c3     43    bbb     C1   1110 -0.05097600  12.010000   ; qtot 42.921545
 1111         c3     43    bbb     C2   1111 -0.05097600  12.010000   ; qtot 42.870569
 1112         c3     43    bbb     C3   1112 -0.18457900  12.010000   ; qtot 42.685990
 1113          c     43    bbb     C4   1113 0.67254400  12.010000   ; qtot 43.358534
 1114         c3     43    bbb     C5   1114 -0.18457900  12.010000   ; qtot 43.173955
 1115          c     43    bbb     C6   1115 0.67254400  12.010000   ; qtot 43.846499
 1116         c3     43    bbb     C7   1116 -0.02083000  12.010000   ; qtot 43.825669
 1117         c3     43    bbb     C8   1117 -0.03328100  12.010000   ; qtot 43.792388
 1118          n     43    bbb     N2   1118 -0.33303000  14.010000   ; qtot 43.459358
 1119          o     43    bbb     O1   1119 -0.52917200  16.000000   ; qtot 42.930186
 1120          o     43    bbb     O2   1120 -0.52917200  16.000000   ; qtot 42.401014
 1121         hx     43    bbb     H1   1121 0.11563300   1.008000   ; qtot 42.516647
 1122         hx     43    bbb     H2   1122 0.11563300   1.008000   ; qtot 42.632280
 1123         hx     43    bbb     H3   1123 0.11563300   1.008000   ; qtot 42.747913
 1124         hx     43    bbb     H4   1124 0.11563300   1.008000   ; qtot 42.863546
 1125         hc     43    bbb     H5   1125 0.08347900   1.008000   ; qtot 42.947025
 1126         hc     43    bbb     H6   1126 0.08347900   1.008000   ; qtot 43.030504
 1127         hc     43    bbb     H7   1127 0.08347900   1.008000   ; qtot 43.113983
 1128         hc     43    bbb     H8   1128 0.08347900   1.008000   ; qtot 43.197462
 1129         hx     43    bbb     H9   1129 0.07988000   1.008000   ; qtot 43.277342
 1130         hx     43    bbb    H10   1130 0.07988000   1.008000   ; qtot 43.357222
 1131         h1     43    bbb    H11   1131 0.10618100   1.008000   ; qtot 43.463403
 1132         h1     43    bbb    H12   1132 0.10618100   1.008000   ; qtot 43.569584
 1133         hn     43    bbb    H13   1133 0.25916100   1.008000   ; qtot 43.828745
 1134         hn     43    bbb    H25   1134 0.17125500   1.008000   ; qtot 44.000000
; residue   44 bbb rtp bbb q 1.0
 1135         n4     44    bbb     N1   1135 -0.02747900  14.010000   ; qtot 43.972521
 1136         c3     44    bbb     C1   1136 -0.05097600  12.010000   ; qtot 43.921545
 1137         c3     44    bbb     C2   1137 -0.05097600  12.010000   ; qtot 43.870569
 1138         c3     44    bbb     C3   1138 -0.18457900  12.010000   ; qtot 43.685990
 1139          c     44    bbb     C4   1139 0.67254400  12.010000   ; qtot 44.358534
 1140         c3     44    bbb     C5   1140 -0.18457900  12.010000   ; qtot 44.173955
 1141          c     44    bbb     C6   1141 0.67254400  12.010000   ; qtot 44.846499
 1142         c3     44    bbb     C7   1142 -0.02083000  12.010000   ; qtot 44.825669
 1143         c3     44    bbb     C8   1143 -0.03328100  12.010000   ; qtot 44.792388
 1144          n     44    bbb     N2   1144 -0.33303000  14.010000   ; qtot 44.459358
 1145          o     44    bbb     O1   1145 -0.52917200  16.000000   ; qtot 43.930186
 1146          o     44    bbb     O2   1146 -0.52917200  16.000000   ; qtot 43.401014
 1147         hx     44    bbb     H1   1147 0.11563300   1.008000   ; qtot 43.516647
 1148         hx     44    bbb     H2   1148 0.11563300   1.008000   ; qtot 43.632280
 1149         hx     44    bbb     H3   1149 0.11563300   1.008000   ; qtot 43.747913
 1150         hx     44    bbb     H4   1150 0.11563300   1.008000   ; qtot 43.863546
 1151         hc     44    bbb     H5   1151 0.08347900   1.008000   ; qtot 43.947025
 1152         hc     44    bbb     H6   1152 0.08347900   1.008000   ; qtot 44.030504
 1153         hc     44    bbb     H7   1153 0.08347900   1.008000   ; qtot 44.113983
 1154         hc     44    bbb     H8   1154 0.08347900   1.008000   ; qtot 44.197462
 1155         hx     44    bbb     H9   1155 0.07988000   1.008000   ; qtot 44.277342
 1156         hx     44    bbb    H10   1156 0.07988000   1.008000   ; qtot 44.357222
 1157         h1     44    bbb    H11   1157 0.10618100   1.008000   ; qtot 44.463403
 1158         h1     44    bbb    H12   1158 0.10618100   1.008000   ; qtot 44.569584
 1159         hn     44    bbb    H13   1159 0.25916100   1.008000   ; qtot 44.828745
 1160         hn     44    bbb    H25   1160 0.17125500   1.008000   ; qtot 45.000000
; residue   45 bbb rtp bbb q 1.0
 1161         n4     45    bbb     N1   1161 -0.02747900  14.010000   ; qtot 44.972521
 1162         c3     45    bbb     C1   1162 -0.05097600  12.010000   ; qtot 44.921545
 1163         c3     45    bbb     C2   1163 -0.05097600  12.010000   ; qtot 44.870569
 1164         c3     45    bbb     C3   1164 -0.18457900  12.010000   ; qtot 44.685990
 1165          c     45    bbb     C4   1165 0.67254400  12.010000   ; qtot 45.358534
 1166         c3     45    bbb     C5   1166 -0.18457900  12.010000   ; qtot 45.173955
 1167          c     45    bbb     C6   1167 0.67254400  12.010000   ; qtot 45.846499
 1168         c3     45    bbb     C7   1168 -0.02083000  12.010000   ; qtot 45.825669
 1169         c3     45    bbb     C8   1169 -0.03328100  12.010000   ; qtot 45.792388
 1170          n     45    bbb     N2   1170 -0.33303000  14.010000   ; qtot 45.459358
 1171          o     45    bbb     O1   1171 -0.52917200  16.000000   ; qtot 44.930186
 1172          o     45    bbb     O2   1172 -0.52917200  16.000000   ; qtot 44.401014
 1173         hx     45    bbb     H1   1173 0.11563300   1.008000   ; qtot 44.516647
 1174         hx     45    bbb     H2   1174 0.11563300   1.008000   ; qtot 44.632280
 1175         hx     45    bbb     H3   1175 0.11563300   1.008000   ; qtot 44.747913
 1176         hx     45    bbb     H4   1176 0.11563300   1.008000   ; qtot 44.863546
 1177         hc     45    bbb     H5   1177 0.08347900   1.008000   ; qtot 44.947025
 1178         hc     45    bbb     H6   1178 0.08347900   1.008000   ; qtot 45.030504
 1179         hc     45    bbb     H7   1179 0.08347900   1.008000   ; qtot 45.113983
 1180         hc     45    bbb     H8   1180 0.08347900   1.008000   ; qtot 45.197462
 1181         hx     45    bbb     H9   1181 0.07988000   1.008000   ; qtot 45.277342
 1182         hx     45    bbb    H10   1182 0.07988000   1.008000   ; qtot 45.357222
 1183         h1     45    bbb    H11   1183 0.10618100   1.008000   ; qtot 45.463403
 1184         h1     45    bbb    H12   1184 0.10618100   1.008000   ; qtot 45.569584
 1185         hn     45    bbb    H13   1185 0.25916100   1.008000   ; qtot 45.828745
 1186         hn     45    bbb    H25   1186 0.17125500   1.008000   ; qtot 46.000000
; residue   46 bbb rtp bbb q 1.0
 1187         n4     46    bbb     N1   1187 -0.02747900  14.010000   ; qtot 45.972521
 1188         c3     46    bbb     C1   1188 -0.05097600  12.010000   ; qtot 45.921545
 1189         c3     46    bbb     C2   1189 -0.05097600  12.010000   ; qtot 45.870569
 1190         c3     46    bbb     C3   1190 -0.18457900  12.010000   ; qtot 45.685990
 1191          c     46    bbb     C4   1191 0.67254400  12.010000   ; qtot 46.358534
 1192         c3     46    bbb     C5   1192 -0.18457900  12.010000   ; qtot 46.173955
 1193          c     46    bbb     C6   1193 0.67254400  12.010000   ; qtot 46.846499
 1194         c3     46    bbb     C7   1194 -0.02083000  12.010000   ; qtot 46.825669
 1195         c3     46    bbb     C8   1195 -0.03328100  12.010000   ; qtot 46.792388
 1196          n     46    bbb     N2   1196 -0.33303000  14.010000   ; qtot 46.459358
 1197          o     46    bbb     O1   1197 -0.52917200  16.000000   ; qtot 45.930186
 1198          o     46    bbb     O2   1198 -0.52917200  16.000000   ; qtot 45.401014
 1199         hx     46    bbb     H1   1199 0.11563300   1.008000   ; qtot 45.516647
 1200         hx     46    bbb     H2   1200 0.11563300   1.008000   ; qtot 45.632280
 1201         hx     46    bbb     H3   1201 0.11563300   1.008000   ; qtot 45.747913
 1202         hx     46    bbb     H4   1202 0.11563300   1.008000   ; qtot 45.863546
 1203         hc     46    bbb     H5   1203 0.08347900   1.008000   ; qtot 45.947025
 1204         hc     46    bbb     H6   1204 0.08347900   1.008000   ; qtot 46.030504
 1205         hc     46    bbb     H7   1205 0.08347900   1.008000   ; qtot 46.113983
 1206         hc     46    bbb     H8   1206 0.08347900   1.008000   ; qtot 46.197462
 1207         hx     46    bbb     H9   1207 0.07988000   1.008000   ; qtot 46.277342
 1208         hx     46    bbb    H10   1208 0.07988000   1.008000   ; qtot 46.357222
 1209         h1     46    bbb    H11   1209 0.10618100   1.008000   ; qtot 46.463403
 1210         h1     46    bbb    H12   1210 0.10618100   1.008000   ; qtot 46.569584
 1211         hn     46    bbb    H13   1211 0.25916100   1.008000   ; qtot 46.828745
 1212         hn     46    bbb    H25   1212 0.17125500   1.008000   ; qtot 47.000000
; residue   47 bbb rtp bbb q 1.0
 1213         n4     47    bbb     N1   1213 -0.02747900  14.010000   ; qtot 46.972521
 1214         c3     47    bbb     C1   1214 -0.05097600  12.010000   ; qtot 46.921545
 1215         c3     47    bbb     C2   1215 -0.05097600  12.010000   ; qtot 46.870569
 1216         c3     47    bbb     C3   1216 -0.18457900  12.010000   ; qtot 46.685990
 1217          c     47    bbb     C4   1217 0.67254400  12.010000   ; qtot 47.358534
 1218         c3     47    bbb     C5   1218 -0.18457900  12.010000   ; qtot 47.173955
 1219          c     47    bbb     C6   1219 0.67254400  12.010000   ; qtot 47.846499
 1220         c3     47    bbb     C7   1220 -0.02083000  12.010000   ; qtot 47.825669
 1221         c3     47    bbb     C8   1221 -0.03328100  12.010000   ; qtot 47.792388
 1222          n     47    bbb     N2   1222 -0.33303000  14.010000   ; qtot 47.459358
 1223          o     47    bbb     O1   1223 -0.52917200  16.000000   ; qtot 46.930186
 1224          o     47    bbb     O2   1224 -0.52917200  16.000000   ; qtot 46.401014
 1225         hx     47    bbb     H1   1225 0.11563300   1.008000   ; qtot 46.516647
 1226         hx     47    bbb     H2   1226 0.11563300   1.008000   ; qtot 46.632280
 1227         hx     47    bbb     H3   1227 0.11563300   1.008000   ; qtot 46.747913
 1228         hx     47    bbb     H4   1228 0.11563300   1.008000   ; qtot 46.863546
 1229         hc     47    bbb     H5   1229 0.08347900   1.008000   ; qtot 46.947025
 1230         hc     47    bbb     H6   1230 0.08347900   1.008000   ; qtot 47.030504
 1231         hc     47    bbb     H7   1231 0.08347900   1.008000   ; qtot 47.113983
 1232         hc     47    bbb     H8   1232 0.08347900   1.008000   ; qtot 47.197462
 1233         hx     47    bbb     H9   1233 0.07988000   1.008000   ; qtot 47.277342
 1234         hx     47    bbb    H10   1234 0.07988000   1.008000   ; qtot 47.357222
 1235         h1     47    bbb    H11   1235 0.10618100   1.008000   ; qtot 47.463403
 1236         h1     47    bbb    H12   1236 0.10618100   1.008000   ; qtot 47.569584
 1237         hn     47    bbb    H13   1237 0.25916100   1.008000   ; qtot 47.828745
 1238         hn     47    bbb    H25   1238 0.17125500   1.008000   ; qtot 48.000000
; residue   48 bbb rtp bbb q 1.0
 1239         n4     48    bbb     N1   1239 -0.02747900  14.010000   ; qtot 47.972521
 1240         c3     48    bbb     C1   1240 -0.05097600  12.010000   ; qtot 47.921545
 1241         c3     48    bbb     C2   1241 -0.05097600  12.010000   ; qtot 47.870569
 1242         c3     48    bbb     C3   1242 -0.18457900  12.010000   ; qtot 47.685990
 1243          c     48    bbb     C4   1243 0.67254400  12.010000   ; qtot 48.358534
 1244         c3     48    bbb     C5   1244 -0.18457900  12.010000   ; qtot 48.173955
 1245          c     48    bbb     C6   1245 0.67254400  12.010000   ; qtot 48.846499
 1246         c3     48    bbb     C7   1246 -0.02083000  12.010000   ; qtot 48.825669
 1247         c3     48    bbb     C8   1247 -0.03328100  12.010000   ; qtot 48.792388
 1248          n     48    bbb     N2   1248 -0.33303000  14.010000   ; qtot 48.459358
 1249          o     48    bbb     O1   1249 -0.52917200  16.000000   ; qtot 47.930186
 1250          o     48    bbb     O2   1250 -0.52917200  16.000000   ; qtot 47.401014
 1251         hx     48    bbb     H1   1251 0.11563300   1.008000   ; qtot 47.516647
 1252         hx     48    bbb     H2   1252 0.11563300   1.008000   ; qtot 47.632280
 1253         hx     48    bbb     H3   1253 0.11563300   1.008000   ; qtot 47.747913
 1254         hx     48    bbb     H4   1254 0.11563300   1.008000   ; qtot 47.863546
 1255         hc     48    bbb     H5   1255 0.08347900   1.008000   ; qtot 47.947025
 1256         hc     48    bbb     H6   1256 0.08347900   1.008000   ; qtot 48.030504
 1257         hc     48    bbb     H7   1257 0.08347900   1.008000   ; qtot 48.113983
 1258         hc     48    bbb     H8   1258 0.08347900   1.008000   ; qtot 48.197462
 1259         hx     48    bbb     H9   1259 0.07988000   1.008000   ; qtot 48.277342
 1260         hx     48    bbb    H10   1260 0.07988000   1.008000   ; qtot 48.357222
 1261         h1     48    bbb    H11   1261 0.10618100   1.008000   ; qtot 48.463403
 1262         h1     48    bbb    H12   1262 0.10618100   1.008000   ; qtot 48.569584
 1263         hn     48    bbb    H13   1263 0.25916100   1.008000   ; qtot 48.828745
 1264         hn     48    bbb    H25   1264 0.17125500   1.008000   ; qtot 49.000000
; residue   49 bbb rtp bbb q 1.0
 1265         n4     49    bbb     N1   1265 -0.02747900  14.010000   ; qtot 48.972521
 1266         c3     49    bbb     C1   1266 -0.05097600  12.010000   ; qtot 48.921545
 1267         c3     49    bbb     C2   1267 -0.05097600  12.010000   ; qtot 48.870569
 1268         c3     49    bbb     C3   1268 -0.18457900  12.010000   ; qtot 48.685990
 1269          c     49    bbb     C4   1269 0.67254400  12.010000   ; qtot 49.358534
 1270         c3     49    bbb     C5   1270 -0.18457900  12.010000   ; qtot 49.173955
 1271          c     49    bbb     C6   1271 0.67254400  12.010000   ; qtot 49.846499
 1272         c3     49    bbb     C7   1272 -0.02083000  12.010000   ; qtot 49.825669
 1273         c3     49    bbb     C8   1273 -0.03328100  12.010000   ; qtot 49.792388
 1274          n     49    bbb     N2   1274 -0.33303000  14.010000   ; qtot 49.459358
 1275          o     49    bbb     O1   1275 -0.52917200  16.000000   ; qtot 48.930186
 1276          o     49    bbb     O2   1276 -0.52917200  16.000000   ; qtot 48.401014
 1277         hx     49    bbb     H1   1277 0.11563300   1.008000   ; qtot 48.516647
 1278         hx     49    bbb     H2   1278 0.11563300   1.008000   ; qtot 48.632280
 1279         hx     49    bbb     H3   1279 0.11563300   1.008000   ; qtot 48.747913
 1280         hx     49    bbb     H4   1280 0.11563300   1.008000   ; qtot 48.863546
 1281         hc     49    bbb     H5   1281 0.08347900   1.008000   ; qtot 48.947025
 1282         hc     49    bbb     H6   1282 0.08347900   1.008000   ; qtot 49.030504
 1283         hc     49    bbb     H7   1283 0.08347900   1.008000   ; qtot 49.113983
 1284         hc     49    bbb     H8   1284 0.08347900   1.008000   ; qtot 49.197462
 1285         hx     49    bbb     H9   1285 0.07988000   1.008000   ; qtot 49.277342
 1286         hx     49    bbb    H10   1286 0.07988000   1.008000   ; qtot 49.357222
 1287         h1     49    bbb    H11   1287 0.10618100   1.008000   ; qtot 49.463403
 1288         h1     49    bbb    H12   1288 0.10618100   1.008000   ; qtot 49.569584
 1289         hn     49    bbb    H13   1289 0.25916100   1.008000   ; qtot 49.828745
 1290         hn     49    bbb    H25   1290 0.17125500   1.008000   ; qtot 50.000000
; residue   50 bbb rtp bbb q 1.0
 1291         n4     50    bbb     N1   1291 -0.02747900  14.010000   ; qtot 49.972521
 1292         c3     50    bbb     C1   1292 -0.05097600  12.010000   ; qtot 49.921545
 1293         c3     50    bbb     C2   1293 -0.05097600  12.010000   ; qtot 49.870569
 1294         c3     50    bbb     C3   1294 -0.18457900  12.010000   ; qtot 49.685990
 1295          c     50    bbb     C4   1295 0.67254400  12.010000   ; qtot 50.358534
 1296         c3     50    bbb     C5   1296 -0.18457900  12.010000   ; qtot 50.173955
 1297          c     50    bbb     C6   1297 0.67254400  12.010000   ; qtot 50.846499
 1298         c3     50    bbb     C7   1298 -0.02083000  12.010000   ; qtot 50.825669
 1299         c3     50    bbb     C8   1299 -0.03328100  12.010000   ; qtot 50.792388
 1300          n     50    bbb     N2   1300 -0.33303000  14.010000   ; qtot 50.459358
 1301          o     50    bbb     O1   1301 -0.52917200  16.000000   ; qtot 49.930186
 1302          o     50    bbb     O2   1302 -0.52917200  16.000000   ; qtot 49.401014
 1303         hx     50    bbb     H1   1303 0.11563300   1.008000   ; qtot 49.516647
 1304         hx     50    bbb     H2   1304 0.11563300   1.008000   ; qtot 49.632280
 1305         hx     50    bbb     H3   1305 0.11563300   1.008000   ; qtot 49.747913
 1306         hx     50    bbb     H4   1306 0.11563300   1.008000   ; qtot 49.863546
 1307         hc     50    bbb     H5   1307 0.08347900   1.008000   ; qtot 49.947025
 1308         hc     50    bbb     H6   1308 0.08347900   1.008000   ; qtot 50.030504
 1309         hc     50    bbb     H7   1309 0.08347900   1.008000   ; qtot 50.113983
 1310         hc     50    bbb     H8   1310 0.08347900   1.008000   ; qtot 50.197462
 1311         hx     50    bbb     H9   1311 0.07988000   1.008000   ; qtot 50.277342
 1312         hx     50    bbb    H10   1312 0.07988000   1.008000   ; qtot 50.357222
 1313         h1     50    bbb    H11   1313 0.10618100   1.008000   ; qtot 50.463403
 1314         h1     50    bbb    H12   1314 0.10618100   1.008000   ; qtot 50.569584
 1315         hn     50    bbb    H13   1315 0.25916100   1.008000   ; qtot 50.828745
 1316         hn     50    bbb    H25   1316 0.17125500   1.008000   ; qtot 51.000000
; residue   51 bbb rtp bbb q 1.0
 1317         n4     51    bbb     N1   1317 -0.02747900  14.010000   ; qtot 50.972521
 1318         c3     51    bbb     C1   1318 -0.05097600  12.010000   ; qtot 50.921545
 1319         c3     51    bbb     C2   1319 -0.05097600  12.010000   ; qtot 50.870569
 1320         c3     51    bbb     C3   1320 -0.18457900  12.010000   ; qtot 50.685990
 1321          c     51    bbb     C4   1321 0.67254400  12.010000   ; qtot 51.358534
 1322         c3     51    bbb     C5   1322 -0.18457900  12.010000   ; qtot 51.173955
 1323          c     51    bbb     C6   1323 0.67254400  12.010000   ; qtot 51.846499
 1324         c3     51    bbb     C7   1324 -0.02083000  12.010000   ; qtot 51.825669
 1325         c3     51    bbb     C8   1325 -0.03328100  12.010000   ; qtot 51.792388
 1326          n     51    bbb     N2   1326 -0.33303000  14.010000   ; qtot 51.459358
 1327          o     51    bbb     O1   1327 -0.52917200  16.000000   ; qtot 50.930186
 1328          o     51    bbb     O2   1328 -0.52917200  16.000000   ; qtot 50.401014
 1329         hx     51    bbb     H1   1329 0.11563300   1.008000   ; qtot 50.516647
 1330         hx     51    bbb     H2   1330 0.11563300   1.008000   ; qtot 50.632280
 1331         hx     51    bbb     H3   1331 0.11563300   1.008000   ; qtot 50.747913
 1332         hx     51    bbb     H4   1332 0.11563300   1.008000   ; qtot 50.863546
 1333         hc     51    bbb     H5   1333 0.08347900   1.008000   ; qtot 50.947025
 1334         hc     51    bbb     H6   1334 0.08347900   1.008000   ; qtot 51.030504
 1335         hc     51    bbb     H7   1335 0.08347900   1.008000   ; qtot 51.113983
 1336         hc     51    bbb     H8   1336 0.08347900   1.008000   ; qtot 51.197462
 1337         hx     51    bbb     H9   1337 0.07988000   1.008000   ; qtot 51.277342
 1338         hx     51    bbb    H10   1338 0.07988000   1.008000   ; qtot 51.357222
 1339         h1     51    bbb    H11   1339 0.10618100   1.008000   ; qtot 51.463403
 1340         h1     51    bbb    H12   1340 0.10618100   1.008000   ; qtot 51.569584
 1341         hn     51    bbb    H13   1341 0.25916100   1.008000   ; qtot 51.828745
 1342         hn     51    bbb    H25   1342 0.17125500   1.008000   ; qtot 52.000000
; residue   52 bbb rtp bbb q 1.0
 1343         n4     52    bbb     N1   1343 -0.02747900  14.010000   ; qtot 51.972521
 1344         c3     52    bbb     C1   1344 -0.05097600  12.010000   ; qtot 51.921545
 1345         c3     52    bbb     C2   1345 -0.05097600  12.010000   ; qtot 51.870569
 1346         c3     52    bbb     C3   1346 -0.18457900  12.010000   ; qtot 51.685990
 1347          c     52    bbb     C4   1347 0.67254400  12.010000   ; qtot 52.358534
 1348         c3     52    bbb     C5   1348 -0.18457900  12.010000   ; qtot 52.173955
 1349          c     52    bbb     C6   1349 0.67254400  12.010000   ; qtot 52.846499
 1350         c3     52    bbb     C7   1350 -0.02083000  12.010000   ; qtot 52.825669
 1351         c3     52    bbb     C8   1351 -0.03328100  12.010000   ; qtot 52.792388
 1352          n     52    bbb     N2   1352 -0.33303000  14.010000   ; qtot 52.459358
 1353          o     52    bbb     O1   1353 -0.52917200  16.000000   ; qtot 51.930186
 1354          o     52    bbb     O2   1354 -0.52917200  16.000000   ; qtot 51.401014
 1355         hx     52    bbb     H1   1355 0.11563300   1.008000   ; qtot 51.516647
 1356         hx     52    bbb     H2   1356 0.11563300   1.008000   ; qtot 51.632280
 1357         hx     52    bbb     H3   1357 0.11563300   1.008000   ; qtot 51.747913
 1358         hx     52    bbb     H4   1358 0.11563300   1.008000   ; qtot 51.863546
 1359         hc     52    bbb     H5   1359 0.08347900   1.008000   ; qtot 51.947025
 1360         hc     52    bbb     H6   1360 0.08347900   1.008000   ; qtot 52.030504
 1361         hc     52    bbb     H7   1361 0.08347900   1.008000   ; qtot 52.113983
 1362         hc     52    bbb     H8   1362 0.08347900   1.008000   ; qtot 52.197462
 1363         hx     52    bbb     H9   1363 0.07988000   1.008000   ; qtot 52.277342
 1364         hx     52    bbb    H10   1364 0.07988000   1.008000   ; qtot 52.357222
 1365         h1     52    bbb    H11   1365 0.10618100   1.008000   ; qtot 52.463403
 1366         h1     52    bbb    H12   1366 0.10618100   1.008000   ; qtot 52.569584
 1367         hn     52    bbb    H13   1367 0.25916100   1.008000   ; qtot 52.828745
 1368         hn     52    bbb    H25   1368 0.17125500   1.008000   ; qtot 53.000000
; residue   53 bbb rtp bbb q 1.0
 1369         n4     53    bbb     N1   1369 -0.02747900  14.010000   ; qtot 52.972521
 1370         c3     53    bbb     C1   1370 -0.05097600  12.010000   ; qtot 52.921545
 1371         c3     53    bbb     C2   1371 -0.05097600  12.010000   ; qtot 52.870569
 1372         c3     53    bbb     C3   1372 -0.18457900  12.010000   ; qtot 52.685990
 1373          c     53    bbb     C4   1373 0.67254400  12.010000   ; qtot 53.358534
 1374         c3     53    bbb     C5   1374 -0.18457900  12.010000   ; qtot 53.173955
 1375          c     53    bbb     C6   1375 0.67254400  12.010000   ; qtot 53.846499
 1376         c3     53    bbb     C7   1376 -0.02083000  12.010000   ; qtot 53.825669
 1377         c3     53    bbb     C8   1377 -0.03328100  12.010000   ; qtot 53.792388
 1378          n     53    bbb     N2   1378 -0.33303000  14.010000   ; qtot 53.459358
 1379          o     53    bbb     O1   1379 -0.52917200  16.000000   ; qtot 52.930186
 1380          o     53    bbb     O2   1380 -0.52917200  16.000000   ; qtot 52.401014
 1381         hx     53    bbb     H1   1381 0.11563300   1.008000   ; qtot 52.516647
 1382         hx     53    bbb     H2   1382 0.11563300   1.008000   ; qtot 52.632280
 1383         hx     53    bbb     H3   1383 0.11563300   1.008000   ; qtot 52.747913
 1384         hx     53    bbb     H4   1384 0.11563300   1.008000   ; qtot 52.863546
 1385         hc     53    bbb     H5   1385 0.08347900   1.008000   ; qtot 52.947025
 1386         hc     53    bbb     H6   1386 0.08347900   1.008000   ; qtot 53.030504
 1387         hc     53    bbb     H7   1387 0.08347900   1.008000   ; qtot 53.113983
 1388         hc     53    bbb     H8   1388 0.08347900   1.008000   ; qtot 53.197462
 1389         hx     53    bbb     H9   1389 0.07988000   1.008000   ; qtot 53.277342
 1390         hx     53    bbb    H10   1390 0.07988000   1.008000   ; qtot 53.357222
 1391         h1     53    bbb    H11   1391 0.10618100   1.008000   ; qtot 53.463403
 1392         h1     53    bbb    H12   1392 0.10618100   1.008000   ; qtot 53.569584
 1393         hn     53    bbb    H13   1393 0.25916100   1.008000   ; qtot 53.828745
 1394         hn     53    bbb    H25   1394 0.17125500   1.008000   ; qtot 54.000000
; residue   54 bbb rtp bbb q 1.0
 1395         n4     54    bbb     N1   1395 -0.02747900  14.010000   ; qtot 53.972521
 1396         c3     54    bbb     C1   1396 -0.05097600  12.010000   ; qtot 53.921545
 1397         c3     54    bbb     C2   1397 -0.05097600  12.010000   ; qtot 53.870569
 1398         c3     54    bbb     C3   1398 -0.18457900  12.010000   ; qtot 53.685990
 1399          c     54    bbb     C4   1399 0.67254400  12.010000   ; qtot 54.358534
 1400         c3     54    bbb     C5   1400 -0.18457900  12.010000   ; qtot 54.173955
 1401          c     54    bbb     C6   1401 0.67254400  12.010000   ; qtot 54.846499
 1402         c3     54    bbb     C7   1402 -0.02083000  12.010000   ; qtot 54.825669
 1403         c3     54    bbb     C8   1403 -0.03328100  12.010000   ; qtot 54.792388
 1404          n     54    bbb     N2   1404 -0.33303000  14.010000   ; qtot 54.459358
 1405          o     54    bbb     O1   1405 -0.52917200  16.000000   ; qtot 53.930186
 1406          o     54    bbb     O2   1406 -0.52917200  16.000000   ; qtot 53.401014
 1407         hx     54    bbb     H1   1407 0.11563300   1.008000   ; qtot 53.516647
 1408         hx     54    bbb     H2   1408 0.11563300   1.008000   ; qtot 53.632280
 1409         hx     54    bbb     H3   1409 0.11563300   1.008000   ; qtot 53.747913
 1410         hx     54    bbb     H4   1410 0.11563300   1.008000   ; qtot 53.863546
 1411         hc     54    bbb     H5   1411 0.08347900   1.008000   ; qtot 53.947025
 1412         hc     54    bbb     H6   1412 0.08347900   1.008000   ; qtot 54.030504
 1413         hc     54    bbb     H7   1413 0.08347900   1.008000   ; qtot 54.113983
 1414         hc     54    bbb     H8   1414 0.08347900   1.008000   ; qtot 54.197462
 1415         hx     54    bbb     H9   1415 0.07988000   1.008000   ; qtot 54.277342
 1416         hx     54    bbb    H10   1416 0.07988000   1.008000   ; qtot 54.357222
 1417         h1     54    bbb    H11   1417 0.10618100   1.008000   ; qtot 54.463403
 1418         h1     54    bbb    H12   1418 0.10618100   1.008000   ; qtot 54.569584
 1419         hn     54    bbb    H13   1419 0.25916100   1.008000   ; qtot 54.828745
 1420         hn     54    bbb    H25   1420 0.17125500   1.008000   ; qtot 55.000000
; residue   55 bbb rtp bbb q 1.0
 1421         n4     55    bbb     N1   1421 -0.02747900  14.010000   ; qtot 54.972521
 1422         c3     55    bbb     C1   1422 -0.05097600  12.010000   ; qtot 54.921545
 1423         c3     55    bbb     C2   1423 -0.05097600  12.010000   ; qtot 54.870569
 1424         c3     55    bbb     C3   1424 -0.18457900  12.010000   ; qtot 54.685990
 1425          c     55    bbb     C4   1425 0.67254400  12.010000   ; qtot 55.358534
 1426         c3     55    bbb     C5   1426 -0.18457900  12.010000   ; qtot 55.173955
 1427          c     55    bbb     C6   1427 0.67254400  12.010000   ; qtot 55.846499
 1428         c3     55    bbb     C7   1428 -0.02083000  12.010000   ; qtot 55.825669
 1429         c3     55    bbb     C8   1429 -0.03328100  12.010000   ; qtot 55.792388
 1430          n     55    bbb     N2   1430 -0.33303000  14.010000   ; qtot 55.459358
 1431          o     55    bbb     O1   1431 -0.52917200  16.000000   ; qtot 54.930186
 1432          o     55    bbb     O2   1432 -0.52917200  16.000000   ; qtot 54.401014
 1433         hx     55    bbb     H1   1433 0.11563300   1.008000   ; qtot 54.516647
 1434         hx     55    bbb     H2   1434 0.11563300   1.008000   ; qtot 54.632280
 1435         hx     55    bbb     H3   1435 0.11563300   1.008000   ; qtot 54.747913
 1436         hx     55    bbb     H4   1436 0.11563300   1.008000   ; qtot 54.863546
 1437         hc     55    bbb     H5   1437 0.08347900   1.008000   ; qtot 54.947025
 1438         hc     55    bbb     H6   1438 0.08347900   1.008000   ; qtot 55.030504
 1439         hc     55    bbb     H7   1439 0.08347900   1.008000   ; qtot 55.113983
 1440         hc     55    bbb     H8   1440 0.08347900   1.008000   ; qtot 55.197462
 1441         hx     55    bbb     H9   1441 0.07988000   1.008000   ; qtot 55.277342
 1442         hx     55    bbb    H10   1442 0.07988000   1.008000   ; qtot 55.357222
 1443         h1     55    bbb    H11   1443 0.10618100   1.008000   ; qtot 55.463403
 1444         h1     55    bbb    H12   1444 0.10618100   1.008000   ; qtot 55.569584
 1445         hn     55    bbb    H13   1445 0.25916100   1.008000   ; qtot 55.828745
 1446         hn     55    bbb    H25   1446 0.17125500   1.008000   ; qtot 56.000000
; residue   56 bbb rtp bbb q 1.0
 1447         n4     56    bbb     N1   1447 -0.02747900  14.010000   ; qtot 55.972521
 1448         c3     56    bbb     C1   1448 -0.05097600  12.010000   ; qtot 55.921545
 1449         c3     56    bbb     C2   1449 -0.05097600  12.010000   ; qtot 55.870569
 1450         c3     56    bbb     C3   1450 -0.18457900  12.010000   ; qtot 55.685990
 1451          c     56    bbb     C4   1451 0.67254400  12.010000   ; qtot 56.358534
 1452         c3     56    bbb     C5   1452 -0.18457900  12.010000   ; qtot 56.173955
 1453          c     56    bbb     C6   1453 0.67254400  12.010000   ; qtot 56.846499
 1454         c3     56    bbb     C7   1454 -0.02083000  12.010000   ; qtot 56.825669
 1455         c3     56    bbb     C8   1455 -0.03328100  12.010000   ; qtot 56.792388
 1456          n     56    bbb     N2   1456 -0.33303000  14.010000   ; qtot 56.459358
 1457          o     56    bbb     O1   1457 -0.52917200  16.000000   ; qtot 55.930186
 1458          o     56    bbb     O2   1458 -0.52917200  16.000000   ; qtot 55.401014
 1459         hx     56    bbb     H1   1459 0.11563300   1.008000   ; qtot 55.516647
 1460         hx     56    bbb     H2   1460 0.11563300   1.008000   ; qtot 55.632280
 1461         hx     56    bbb     H3   1461 0.11563300   1.008000   ; qtot 55.747913
 1462         hx     56    bbb     H4   1462 0.11563300   1.008000   ; qtot 55.863546
 1463         hc     56    bbb     H5   1463 0.08347900   1.008000   ; qtot 55.947025
 1464         hc     56    bbb     H6   1464 0.08347900   1.008000   ; qtot 56.030504
 1465         hc     56    bbb     H7   1465 0.08347900   1.008000   ; qtot 56.113983
 1466         hc     56    bbb     H8   1466 0.08347900   1.008000   ; qtot 56.197462
 1467         hx     56    bbb     H9   1467 0.07988000   1.008000   ; qtot 56.277342
 1468         hx     56    bbb    H10   1468 0.07988000   1.008000   ; qtot 56.357222
 1469         h1     56    bbb    H11   1469 0.10618100   1.008000   ; qtot 56.463403
 1470         h1     56    bbb    H12   1470 0.10618100   1.008000   ; qtot 56.569584
 1471         hn     56    bbb    H13   1471 0.25916100   1.008000   ; qtot 56.828745
 1472         hn     56    bbb    H25   1472 0.17125500   1.008000   ; qtot 57.000000
; residue   57 bbb rtp bbb q 1.0
 1473         n4     57    bbb     N1   1473 -0.02747900  14.010000   ; qtot 56.972521
 1474         c3     57    bbb     C1   1474 -0.05097600  12.010000   ; qtot 56.921545
 1475         c3     57    bbb     C2   1475 -0.05097600  12.010000   ; qtot 56.870569
 1476         c3     57    bbb     C3   1476 -0.18457900  12.010000   ; qtot 56.685990
 1477          c     57    bbb     C4   1477 0.67254400  12.010000   ; qtot 57.358534
 1478         c3     57    bbb     C5   1478 -0.18457900  12.010000   ; qtot 57.173955
 1479          c     57    bbb     C6   1479 0.67254400  12.010000   ; qtot 57.846499
 1480         c3     57    bbb     C7   1480 -0.02083000  12.010000   ; qtot 57.825669
 1481         c3     57    bbb     C8   1481 -0.03328100  12.010000   ; qtot 57.792388
 1482          n     57    bbb     N2   1482 -0.33303000  14.010000   ; qtot 57.459358
 1483          o     57    bbb     O1   1483 -0.52917200  16.000000   ; qtot 56.930186
 1484          o     57    bbb     O2   1484 -0.52917200  16.000000   ; qtot 56.401014
 1485         hx     57    bbb     H1   1485 0.11563300   1.008000   ; qtot 56.516647
 1486         hx     57    bbb     H2   1486 0.11563300   1.008000   ; qtot 56.632280
 1487         hx     57    bbb     H3   1487 0.11563300   1.008000   ; qtot 56.747913
 1488         hx     57    bbb     H4   1488 0.11563300   1.008000   ; qtot 56.863546
 1489         hc     57    bbb     H5   1489 0.08347900   1.008000   ; qtot 56.947025
 1490         hc     57    bbb     H6   1490 0.08347900   1.008000   ; qtot 57.030504
 1491         hc     57    bbb     H7   1491 0.08347900   1.008000   ; qtot 57.113983
 1492         hc     57    bbb     H8   1492 0.08347900   1.008000   ; qtot 57.197462
 1493         hx     57    bbb     H9   1493 0.07988000   1.008000   ; qtot 57.277342
 1494         hx     57    bbb    H10   1494 0.07988000   1.008000   ; qtot 57.357222
 1495         h1     57    bbb    H11   1495 0.10618100   1.008000   ; qtot 57.463403
 1496         h1     57    bbb    H12   1496 0.10618100   1.008000   ; qtot 57.569584
 1497         hn     57    bbb    H13   1497 0.25916100   1.008000   ; qtot 57.828745
 1498         hn     57    bbb    H25   1498 0.17125500   1.008000   ; qtot 58.000000
; residue   58 bbb rtp bbb q 1.0
 1499         n4     58    bbb     N1   1499 -0.02747900  14.010000   ; qtot 57.972521
 1500         c3     58    bbb     C1   1500 -0.05097600  12.010000   ; qtot 57.921545
 1501         c3     58    bbb     C2   1501 -0.05097600  12.010000   ; qtot 57.870569
 1502         c3     58    bbb     C3   1502 -0.18457900  12.010000   ; qtot 57.685990
 1503          c     58    bbb     C4   1503 0.67254400  12.010000   ; qtot 58.358534
 1504         c3     58    bbb     C5   1504 -0.18457900  12.010000   ; qtot 58.173955
 1505          c     58    bbb     C6   1505 0.67254400  12.010000   ; qtot 58.846499
 1506         c3     58    bbb     C7   1506 -0.02083000  12.010000   ; qtot 58.825669
 1507         c3     58    bbb     C8   1507 -0.03328100  12.010000   ; qtot 58.792388
 1508          n     58    bbb     N2   1508 -0.33303000  14.010000   ; qtot 58.459358
 1509          o     58    bbb     O1   1509 -0.52917200  16.000000   ; qtot 57.930186
 1510          o     58    bbb     O2   1510 -0.52917200  16.000000   ; qtot 57.401014
 1511         hx     58    bbb     H1   1511 0.11563300   1.008000   ; qtot 57.516647
 1512         hx     58    bbb     H2   1512 0.11563300   1.008000   ; qtot 57.632280
 1513         hx     58    bbb     H3   1513 0.11563300   1.008000   ; qtot 57.747913
 1514         hx     58    bbb     H4   1514 0.11563300   1.008000   ; qtot 57.863546
 1515         hc     58    bbb     H5   1515 0.08347900   1.008000   ; qtot 57.947025
 1516         hc     58    bbb     H6   1516 0.08347900   1.008000   ; qtot 58.030504
 1517         hc     58    bbb     H7   1517 0.08347900   1.008000   ; qtot 58.113983
 1518         hc     58    bbb     H8   1518 0.08347900   1.008000   ; qtot 58.197462
 1519         hx     58    bbb     H9   1519 0.07988000   1.008000   ; qtot 58.277342
 1520         hx     58    bbb    H10   1520 0.07988000   1.008000   ; qtot 58.357222
 1521         h1     58    bbb    H11   1521 0.10618100   1.008000   ; qtot 58.463403
 1522         h1     58    bbb    H12   1522 0.10618100   1.008000   ; qtot 58.569584
 1523         hn     58    bbb    H13   1523 0.25916100   1.008000   ; qtot 58.828745
 1524         hn     58    bbb    H25   1524 0.17125500   1.008000   ; qtot 59.000000
; residue   59 bbb rtp bbb q 1.0
 1525         n4     59    bbb     N1   1525 -0.02747900  14.010000   ; qtot 58.972521
 1526         c3     59    bbb     C1   1526 -0.05097600  12.010000   ; qtot 58.921545
 1527         c3     59    bbb     C2   1527 -0.05097600  12.010000   ; qtot 58.870569
 1528         c3     59    bbb     C3   1528 -0.18457900  12.010000   ; qtot 58.685990
 1529          c     59    bbb     C4   1529 0.67254400  12.010000   ; qtot 59.358534
 1530         c3     59    bbb     C5   1530 -0.18457900  12.010000   ; qtot 59.173955
 1531          c     59    bbb     C6   1531 0.67254400  12.010000   ; qtot 59.846499
 1532         c3     59    bbb     C7   1532 -0.02083000  12.010000   ; qtot 59.825669
 1533         c3     59    bbb     C8   1533 -0.03328100  12.010000   ; qtot 59.792388
 1534          n     59    bbb     N2   1534 -0.33303000  14.010000   ; qtot 59.459358
 1535          o     59    bbb     O1   1535 -0.52917200  16.000000   ; qtot 58.930186
 1536          o     59    bbb     O2   1536 -0.52917200  16.000000   ; qtot 58.401014
 1537         hx     59    bbb     H1   1537 0.11563300   1.008000   ; qtot 58.516647
 1538         hx     59    bbb     H2   1538 0.11563300   1.008000   ; qtot 58.632280
 1539         hx     59    bbb     H3   1539 0.11563300   1.008000   ; qtot 58.747913
 1540         hx     59    bbb     H4   1540 0.11563300   1.008000   ; qtot 58.863546
 1541         hc     59    bbb     H5   1541 0.08347900   1.008000   ; qtot 58.947025
 1542         hc     59    bbb     H6   1542 0.08347900   1.008000   ; qtot 59.030504
 1543         hc     59    bbb     H7   1543 0.08347900   1.008000   ; qtot 59.113983
 1544         hc     59    bbb     H8   1544 0.08347900   1.008000   ; qtot 59.197462
 1545         hx     59    bbb     H9   1545 0.07988000   1.008000   ; qtot 59.277342
 1546         hx     59    bbb    H10   1546 0.07988000   1.008000   ; qtot 59.357222
 1547         h1     59    bbb    H11   1547 0.10618100   1.008000   ; qtot 59.463403
 1548         h1     59    bbb    H12   1548 0.10618100   1.008000   ; qtot 59.569584
 1549         hn     59    bbb    H13   1549 0.25916100   1.008000   ; qtot 59.828745
 1550         hn     59    bbb    H25   1550 0.17125500   1.008000   ; qtot 60.000000
; residue   60 bbb rtp bbb q 1.0
 1551         n4     60    bbb     N1   1551 -0.02747900  14.010000   ; qtot 59.972521
 1552         c3     60    bbb     C1   1552 -0.05097600  12.010000   ; qtot 59.921545
 1553         c3     60    bbb     C2   1553 -0.05097600  12.010000   ; qtot 59.870569
 1554         c3     60    bbb     C3   1554 -0.18457900  12.010000   ; qtot 59.685990
 1555          c     60    bbb     C4   1555 0.67254400  12.010000   ; qtot 60.358534
 1556         c3     60    bbb     C5   1556 -0.18457900  12.010000   ; qtot 60.173955
 1557          c     60    bbb     C6   1557 0.67254400  12.010000   ; qtot 60.846499
 1558         c3     60    bbb     C7   1558 -0.02083000  12.010000   ; qtot 60.825669
 1559         c3     60    bbb     C8   1559 -0.03328100  12.010000   ; qtot 60.792388
 1560          n     60    bbb     N2   1560 -0.33303000  14.010000   ; qtot 60.459358
 1561          o     60    bbb     O1   1561 -0.52917200  16.000000   ; qtot 59.930186
 1562          o     60    bbb     O2   1562 -0.52917200  16.000000   ; qtot 59.401014
 1563         hx     60    bbb     H1   1563 0.11563300   1.008000   ; qtot 59.516647
 1564         hx     60    bbb     H2   1564 0.11563300   1.008000   ; qtot 59.632280
 1565         hx     60    bbb     H3   1565 0.11563300   1.008000   ; qtot 59.747913
 1566         hx     60    bbb     H4   1566 0.11563300   1.008000   ; qtot 59.863546
 1567         hc     60    bbb     H5   1567 0.08347900   1.008000   ; qtot 59.947025
 1568         hc     60    bbb     H6   1568 0.08347900   1.008000   ; qtot 60.030504
 1569         hc     60    bbb     H7   1569 0.08347900   1.008000   ; qtot 60.113983
 1570         hc     60    bbb     H8   1570 0.08347900   1.008000   ; qtot 60.197462
 1571         hx     60    bbb     H9   1571 0.07988000   1.008000   ; qtot 60.277342
 1572         hx     60    bbb    H10   1572 0.07988000   1.008000   ; qtot 60.357222
 1573         h1     60    bbb    H11   1573 0.10618100   1.008000   ; qtot 60.463403
 1574         h1     60    bbb    H12   1574 0.10618100   1.008000   ; qtot 60.569584
 1575         hn     60    bbb    H13   1575 0.25916100   1.008000   ; qtot 60.828745
 1576         hn     60    bbb    H25   1576 0.17125500   1.008000   ; qtot 61.000000
; residue   61 bbb rtp bbb q 1.0
 1577         n4     61    bbb     N1   1577 -0.02747900  14.010000   ; qtot 60.972521
 1578         c3     61    bbb     C1   1578 -0.05097600  12.010000   ; qtot 60.921545
 1579         c3     61    bbb     C2   1579 -0.05097600  12.010000   ; qtot 60.870569
 1580         c3     61    bbb     C3   1580 -0.18457900  12.010000   ; qtot 60.685990
 1581          c     61    bbb     C4   1581 0.67254400  12.010000   ; qtot 61.358534
 1582         c3     61    bbb     C5   1582 -0.18457900  12.010000   ; qtot 61.173955
 1583          c     61    bbb     C6   1583 0.67254400  12.010000   ; qtot 61.846499
 1584         c3     61    bbb     C7   1584 -0.02083000  12.010000   ; qtot 61.825669
 1585         c3     61    bbb     C8   1585 -0.03328100  12.010000   ; qtot 61.792388
 1586          n     61    bbb     N2   1586 -0.33303000  14.010000   ; qtot 61.459358
 1587          o     61    bbb     O1   1587 -0.52917200  16.000000   ; qtot 60.930186
 1588          o     61    bbb     O2   1588 -0.52917200  16.000000   ; qtot 60.401014
 1589         hx     61    bbb     H1   1589 0.11563300   1.008000   ; qtot 60.516647
 1590         hx     61    bbb     H2   1590 0.11563300   1.008000   ; qtot 60.632280
 1591         hx     61    bbb     H3   1591 0.11563300   1.008000   ; qtot 60.747913
 1592         hx     61    bbb     H4   1592 0.11563300   1.008000   ; qtot 60.863546
 1593         hc     61    bbb     H5   1593 0.08347900   1.008000   ; qtot 60.947025
 1594         hc     61    bbb     H6   1594 0.08347900   1.008000   ; qtot 61.030504
 1595         hc     61    bbb     H7   1595 0.08347900   1.008000   ; qtot 61.113983
 1596         hc     61    bbb     H8   1596 0.08347900   1.008000   ; qtot 61.197462
 1597         hx     61    bbb     H9   1597 0.07988000   1.008000   ; qtot 61.277342
 1598         hx     61    bbb    H10   1598 0.07988000   1.008000   ; qtot 61.357222
 1599         h1     61    bbb    H11   1599 0.10618100   1.008000   ; qtot 61.463403
 1600         h1     61    bbb    H12   1600 0.10618100   1.008000   ; qtot 61.569584
 1601         hn     61    bbb    H13   1601 0.25916100   1.008000   ; qtot 61.828745
 1602         hn     61    bbb    H25   1602 0.17125500   1.008000   ; qtot 62.000000
; residue   62 ccc rtp ccc q 1.0
 1603          n     62    ccc     N1   1603 -0.56206700  14.010000   ; qtot 61.437933
 1604         hn     62    ccc     H1   1604 0.35233300   1.008000   ; qtot 61.790266
 1605         c3     62    ccc     C1   1605 0.10283300  12.010000   ; qtot 61.893099
 1606         h1     62    ccc     H2   1606 0.07153300   1.008000   ; qtot 61.964632
 1607         c3     62    ccc     C2   1607 0.07063300  12.010000   ; qtot 62.035265
 1608         h1     62    ccc     H3   1608 0.07153300   1.008000   ; qtot 62.106798
 1609         hx     62    ccc     H4   1609 0.11303300   1.008000   ; qtot 62.219831
 1610         hx     62    ccc     H5   1610 0.11303300   1.008000   ; qtot 62.332864
 1611         n4     62    ccc     N2   1611 -0.67056700  14.010000   ; qtot 61.662297
 1612         c3     62    ccc     C3   1612 0.10863300  12.010000   ; qtot 61.770930
 1613         c3     62    ccc     C4   1613 0.10863300  12.010000   ; qtot 61.879563
 1614         hx     62    ccc     H6   1614 0.12753300   1.008000   ; qtot 62.007096
 1615         c3     62    ccc     C5   1615 -0.20606700  12.010000   ; qtot 61.801029
 1616         hx     62    ccc     H7   1616 0.12753300   1.008000   ; qtot 61.928562
 1617         hc     62    ccc     H8   1617 0.10603300   1.008000   ; qtot 62.034595
 1618         hc     62    ccc     H9   1618 0.10603300   1.008000   ; qtot 62.140628
 1619          c     62    ccc     C6   1619 0.63793300  12.010000   ; qtot 62.778561
 1620         oh     62    ccc     O1   1620 -0.53626700  16.000000   ; qtot 62.242294
 1621          o     62    ccc     O2   1621 -0.48266700  16.000000   ; qtot 61.759627
 1622         hx     62    ccc    H10   1622 0.12753300   1.008000   ; qtot 61.887160
 1623         hx     62    ccc    H11   1623 0.12753300   1.008000   ; qtot 62.014693
 1624         c3     62    ccc     C7   1624 -0.20606700  12.010000   ; qtot 61.808626
 1625         hc     62    ccc    H12   1625 0.10603300   1.008000   ; qtot 61.914659
 1626         hc     62    ccc    H13   1626 0.10603300   1.008000   ; qtot 62.020692
 1627          c     62    ccc     C8   1627 0.63793300  12.010000   ; qtot 62.658625
 1628          o     62    ccc     O3   1628 -0.48266700  16.000000   ; qtot 62.175958
 1629         oh     62    ccc     O4   1629 -0.53626700  16.000000   ; qtot 61.639691
 1630         ho     62    ccc    H14   1630 0.45283300   1.008000   ; qtot 62.092524
 1631         ho     62    ccc    H15   1631 0.45283300   1.008000   ; qtot 62.545357
 1632         hn     62    ccc    H16   1632 0.45463300   1.008000   ; qtot 62.999990
; residue   63 ccc rtp ccc q 1.0
 1633          n     63    ccc     N1   1633 -0.56206700  14.010000   ; qtot 62.437923
 1634         hn     63    ccc     H1   1634 0.35233300   1.008000   ; qtot 62.790256
 1635         c3     63    ccc     C1   1635 0.10283300  12.010000   ; qtot 62.893089
 1636         h1     63    ccc     H2   1636 0.07153300   1.008000   ; qtot 62.964622
 1637         c3     63    ccc     C2   1637 0.07063300  12.010000   ; qtot 63.035255
 1638         h1     63    ccc     H3   1638 0.07153300   1.008000   ; qtot 63.106788
 1639         hx     63    ccc     H4   1639 0.11303300   1.008000   ; qtot 63.219821
 1640         hx     63    ccc     H5   1640 0.11303300   1.008000   ; qtot 63.332854
 1641         n4     63    ccc     N2   1641 -0.67056700  14.010000   ; qtot 62.662287
 1642         c3     63    ccc     C3   1642 0.10863300  12.010000   ; qtot 62.770920
 1643         c3     63    ccc     C4   1643 0.10863300  12.010000   ; qtot 62.879553
 1644         hx     63    ccc     H6   1644 0.12753300   1.008000   ; qtot 63.007086
 1645         c3     63    ccc     C5   1645 -0.20606700  12.010000   ; qtot 62.801019
 1646         hx     63    ccc     H7   1646 0.12753300   1.008000   ; qtot 62.928552
 1647         hc     63    ccc     H8   1647 0.10603300   1.008000   ; qtot 63.034585
 1648         hc     63    ccc     H9   1648 0.10603300   1.008000   ; qtot 63.140618
 1649          c     63    ccc     C6   1649 0.63793300  12.010000   ; qtot 63.778551
 1650         oh     63    ccc     O1   1650 -0.53626700  16.000000   ; qtot 63.242284
 1651          o     63    ccc     O2   1651 -0.48266700  16.000000   ; qtot 62.759617
 1652         hx     63    ccc    H10   1652 0.12753300   1.008000   ; qtot 62.887150
 1653         hx     63    ccc    H11   1653 0.12753300   1.008000   ; qtot 63.014683
 1654         c3     63    ccc     C7   1654 -0.20606700  12.010000   ; qtot 62.808616
 1655         hc     63    ccc    H12   1655 0.10603300   1.008000   ; qtot 62.914649
 1656         hc     63    ccc    H13   1656 0.10603300   1.008000   ; qtot 63.020682
 1657          c     63    ccc     C8   1657 0.63793300  12.010000   ; qtot 63.658615
 1658          o     63    ccc     O3   1658 -0.48266700  16.000000   ; qtot 63.175948
 1659         oh     63    ccc     O4   1659 -0.53626700  16.000000   ; qtot 62.639681
 1660         ho     63    ccc    H14   1660 0.45283300   1.008000   ; qtot 63.092514
 1661         ho     63    ccc    H15   1661 0.45283300   1.008000   ; qtot 63.545347
 1662         hn     63    ccc    H16   1662 0.45463300   1.008000   ; qtot 63.999980
; residue   64 ccc rtp ccc q 1.0
 1663          n     64    ccc     N1   1663 -0.56206700  14.010000   ; qtot 63.437913
 1664         hn     64    ccc     H1   1664 0.35233300   1.008000   ; qtot 63.790246
 1665         c3     64    ccc     C1   1665 0.10283300  12.010000   ; qtot 63.893079
 1666         h1     64    ccc     H2   1666 0.07153300   1.008000   ; qtot 63.964612
 1667         c3     64    ccc     C2   1667 0.07063300  12.010000   ; qtot 64.035245
 1668         h1     64    ccc     H3   1668 0.07153300   1.008000   ; qtot 64.106778
 1669         hx     64    ccc     H4   1669 0.11303300   1.008000   ; qtot 64.219811
 1670         hx     64    ccc     H5   1670 0.11303300   1.008000   ; qtot 64.332844
 1671         n4     64    ccc     N2   1671 -0.67056700  14.010000   ; qtot 63.662277
 1672         c3     64    ccc     C3   1672 0.10863300  12.010000   ; qtot 63.770910
 1673         c3     64    ccc     C4   1673 0.10863300  12.010000   ; qtot 63.879543
 1674         hx     64    ccc     H6   1674 0.12753300   1.008000   ; qtot 64.007076
 1675         c3     64    ccc     C5   1675 -0.20606700  12.010000   ; qtot 63.801009
 1676         hx     64    ccc     H7   1676 0.12753300   1.008000   ; qtot 63.928542
 1677         hc     64    ccc     H8   1677 0.10603300   1.008000   ; qtot 64.034575
 1678         hc     64    ccc     H9   1678 0.10603300   1.008000   ; qtot 64.140608
 1679          c     64    ccc     C6   1679 0.63793300  12.010000   ; qtot 64.778541
 1680         oh     64    ccc     O1   1680 -0.53626700  16.000000   ; qtot 64.242274
 1681          o     64    ccc     O2   1681 -0.48266700  16.000000   ; qtot 63.759607
 1682         hx     64    ccc    H10   1682 0.12753300   1.008000   ; qtot 63.887140
 1683         hx     64    ccc    H11   1683 0.12753300   1.008000   ; qtot 64.014673
 1684         c3     64    ccc     C7   1684 -0.20606700  12.010000   ; qtot 63.808606
 1685         hc     64    ccc    H12   1685 0.10603300   1.008000   ; qtot 63.914639
 1686         hc     64    ccc    H13   1686 0.10603300   1.008000   ; qtot 64.020672
 1687          c     64    ccc     C8   1687 0.63793300  12.010000   ; qtot 64.658605
 1688          o     64    ccc     O3   1688 -0.48266700  16.000000   ; qtot 64.175938
 1689         oh     64    ccc     O4   1689 -0.53626700  16.000000   ; qtot 63.639671
 1690         ho     64    ccc    H14   1690 0.45283300   1.008000   ; qtot 64.092504
 1691         ho     64    ccc    H15   1691 0.45283300   1.008000   ; qtot 64.545337
 1692         hn     64    ccc    H16   1692 0.45463300   1.008000   ; qtot 64.999970
; residue   65 ccc rtp ccc q 1.0
 1693          n     65    ccc     N1   1693 -0.56206700  14.010000   ; qtot 64.437903
 1694         hn     65    ccc     H1   1694 0.35233300   1.008000   ; qtot 64.790236
 1695         c3     65    ccc     C1   1695 0.10283300  12.010000   ; qtot 64.893069
 1696         h1     65    ccc     H2   1696 0.07153300   1.008000   ; qtot 64.964602
 1697         c3     65    ccc     C2   1697 0.07063300  12.010000   ; qtot 65.035235
 1698         h1     65    ccc     H3   1698 0.07153300   1.008000   ; qtot 65.106768
 1699         hx     65    ccc     H4   1699 0.11303300   1.008000   ; qtot 65.219801
 1700         hx     65    ccc     H5   1700 0.11303300   1.008000   ; qtot 65.332834
 1701         n4     65    ccc     N2   1701 -0.67056700  14.010000   ; qtot 64.662267
 1702         c3     65    ccc     C3   1702 0.10863300  12.010000   ; qtot 64.770900
 1703         c3     65    ccc     C4   1703 0.10863300  12.010000   ; qtot 64.879533
 1704         hx     65    ccc     H6   1704 0.12753300   1.008000   ; qtot 65.007066
 1705         c3     65    ccc     C5   1705 -0.20606700  12.010000   ; qtot 64.800999
 1706         hx     65    ccc     H7   1706 0.12753300   1.008000   ; qtot 64.928532
 1707         hc     65    ccc     H8   1707 0.10603300   1.008000   ; qtot 65.034565
 1708         hc     65    ccc     H9   1708 0.10603300   1.008000   ; qtot 65.140598
 1709          c     65    ccc     C6   1709 0.63793300  12.010000   ; qtot 65.778531
 1710         oh     65    ccc     O1   1710 -0.53626700  16.000000   ; qtot 65.242264
 1711          o     65    ccc     O2   1711 -0.48266700  16.000000   ; qtot 64.759597
 1712         hx     65    ccc    H10   1712 0.12753300   1.008000   ; qtot 64.887130
 1713         hx     65    ccc    H11   1713 0.12753300   1.008000   ; qtot 65.014663
 1714         c3     65    ccc     C7   1714 -0.20606700  12.010000   ; qtot 64.808596
 1715         hc     65    ccc    H12   1715 0.10603300   1.008000   ; qtot 64.914629
 1716         hc     65    ccc    H13   1716 0.10603300   1.008000   ; qtot 65.020662
 1717          c     65    ccc     C8   1717 0.63793300  12.010000   ; qtot 65.658595
 1718          o     65    ccc     O3   1718 -0.48266700  16.000000   ; qtot 65.175928
 1719         oh     65    ccc     O4   1719 -0.53626700  16.000000   ; qtot 64.639661
 1720         ho     65    ccc    H14   1720 0.45283300   1.008000   ; qtot 65.092494
 1721         ho     65    ccc    H15   1721 0.45283300   1.008000   ; qtot 65.545327
 1722         hn     65    ccc    H16   1722 0.45463300   1.008000   ; qtot 65.999960
; residue   66 ccc rtp ccc q 1.0
 1723          n     66    ccc     N1   1723 -0.56206700  14.010000   ; qtot 65.437893
 1724         hn     66    ccc     H1   1724 0.35233300   1.008000   ; qtot 65.790226
 1725         c3     66    ccc     C1   1725 0.10283300  12.010000   ; qtot 65.893059
 1726         h1     66    ccc     H2   1726 0.07153300   1.008000   ; qtot 65.964592
 1727         c3     66    ccc     C2   1727 0.07063300  12.010000   ; qtot 66.035225
 1728         h1     66    ccc     H3   1728 0.07153300   1.008000   ; qtot 66.106758
 1729         hx     66    ccc     H4   1729 0.11303300   1.008000   ; qtot 66.219791
 1730         hx     66    ccc     H5   1730 0.11303300   1.008000   ; qtot 66.332824
 1731         n4     66    ccc     N2   1731 -0.67056700  14.010000   ; qtot 65.662257
 1732         c3     66    ccc     C3   1732 0.10863300  12.010000   ; qtot 65.770890
 1733         c3     66    ccc     C4   1733 0.10863300  12.010000   ; qtot 65.879523
 1734         hx     66    ccc     H6   1734 0.12753300   1.008000   ; qtot 66.007056
 1735         c3     66    ccc     C5   1735 -0.20606700  12.010000   ; qtot 65.800989
 1736         hx     66    ccc     H7   1736 0.12753300   1.008000   ; qtot 65.928522
 1737         hc     66    ccc     H8   1737 0.10603300   1.008000   ; qtot 66.034555
 1738         hc     66    ccc     H9   1738 0.10603300   1.008000   ; qtot 66.140588
 1739          c     66    ccc     C6   1739 0.63793300  12.010000   ; qtot 66.778521
 1740         oh     66    ccc     O1   1740 -0.53626700  16.000000   ; qtot 66.242254
 1741          o     66    ccc     O2   1741 -0.48266700  16.000000   ; qtot 65.759587
 1742         hx     66    ccc    H10   1742 0.12753300   1.008000   ; qtot 65.887120
 1743         hx     66    ccc    H11   1743 0.12753300   1.008000   ; qtot 66.014653
 1744         c3     66    ccc     C7   1744 -0.20606700  12.010000   ; qtot 65.808586
 1745         hc     66    ccc    H12   1745 0.10603300   1.008000   ; qtot 65.914619
 1746         hc     66    ccc    H13   1746 0.10603300   1.008000   ; qtot 66.020652
 1747          c     66    ccc     C8   1747 0.63793300  12.010000   ; qtot 66.658585
 1748          o     66    ccc     O3   1748 -0.48266700  16.000000   ; qtot 66.175918
 1749         oh     66    ccc     O4   1749 -0.53626700  16.000000   ; qtot 65.639651
 1750         ho     66    ccc    H14   1750 0.45283300   1.008000   ; qtot 66.092484
 1751         ho     66    ccc    H15   1751 0.45283300   1.008000   ; qtot 66.545317
 1752         hn     66    ccc    H16   1752 0.45463300   1.008000   ; qtot 66.999950
; residue   67 ccc rtp ccc q 1.0
 1753          n     67    ccc     N1   1753 -0.56206700  14.010000   ; qtot 66.437883
 1754         hn     67    ccc     H1   1754 0.35233300   1.008000   ; qtot 66.790216
 1755         c3     67    ccc     C1   1755 0.10283300  12.010000   ; qtot 66.893049
 1756         h1     67    ccc     H2   1756 0.07153300   1.008000   ; qtot 66.964582
 1757         c3     67    ccc     C2   1757 0.07063300  12.010000   ; qtot 67.035215
 1758         h1     67    ccc     H3   1758 0.07153300   1.008000   ; qtot 67.106748
 1759         hx     67    ccc     H4   1759 0.11303300   1.008000   ; qtot 67.219781
 1760         hx     67    ccc     H5   1760 0.11303300   1.008000   ; qtot 67.332814
 1761         n4     67    ccc     N2   1761 -0.67056700  14.010000   ; qtot 66.662247
 1762         c3     67    ccc     C3   1762 0.10863300  12.010000   ; qtot 66.770880
 1763         c3     67    ccc     C4   1763 0.10863300  12.010000   ; qtot 66.879513
 1764         hx     67    ccc     H6   1764 0.12753300   1.008000   ; qtot 67.007046
 1765         c3     67    ccc     C5   1765 -0.20606700  12.010000   ; qtot 66.800979
 1766         hx     67    ccc     H7   1766 0.12753300   1.008000   ; qtot 66.928512
 1767         hc     67    ccc     H8   1767 0.10603300   1.008000   ; qtot 67.034545
 1768         hc     67    ccc     H9   1768 0.10603300   1.008000   ; qtot 67.140578
 1769          c     67    ccc     C6   1769 0.63793300  12.010000   ; qtot 67.778511
 1770         oh     67    ccc     O1   1770 -0.53626700  16.000000   ; qtot 67.242244
 1771          o     67    ccc     O2   1771 -0.48266700  16.000000   ; qtot 66.759577
 1772         hx     67    ccc    H10   1772 0.12753300   1.008000   ; qtot 66.887110
 1773         hx     67    ccc    H11   1773 0.12753300   1.008000   ; qtot 67.014643
 1774         c3     67    ccc     C7   1774 -0.20606700  12.010000   ; qtot 66.808576
 1775         hc     67    ccc    H12   1775 0.10603300   1.008000   ; qtot 66.914609
 1776         hc     67    ccc    H13   1776 0.10603300   1.008000   ; qtot 67.020642
 1777          c     67    ccc     C8   1777 0.63793300  12.010000   ; qtot 67.658575
 1778          o     67    ccc     O3   1778 -0.48266700  16.000000   ; qtot 67.175908
 1779         oh     67    ccc     O4   1779 -0.53626700  16.000000   ; qtot 66.639641
 1780         ho     67    ccc    H14   1780 0.45283300   1.008000   ; qtot 67.092474
 1781         ho     67    ccc    H15   1781 0.45283300   1.008000   ; qtot 67.545307
 1782         hn     67    ccc    H16   1782 0.45463300   1.008000   ; qtot 67.999940
; residue   68 ccc rtp ccc q 1.0
 1783          n     68    ccc     N1   1783 -0.56206700  14.010000   ; qtot 67.437873
 1784         hn     68    ccc     H1   1784 0.35233300   1.008000   ; qtot 67.790206
 1785         c3     68    ccc     C1   1785 0.10283300  12.010000   ; qtot 67.893039
 1786         h1     68    ccc     H2   1786 0.07153300   1.008000   ; qtot 67.964572
 1787         c3     68    ccc     C2   1787 0.07063300  12.010000   ; qtot 68.035205
 1788         h1     68    ccc     H3   1788 0.07153300   1.008000   ; qtot 68.106738
 1789         hx     68    ccc     H4   1789 0.11303300   1.008000   ; qtot 68.219771
 1790         hx     68    ccc     H5   1790 0.11303300   1.008000   ; qtot 68.332804
 1791         n4     68    ccc     N2   1791 -0.67056700  14.010000   ; qtot 67.662237
 1792         c3     68    ccc     C3   1792 0.10863300  12.010000   ; qtot 67.770870
 1793         c3     68    ccc     C4   1793 0.10863300  12.010000   ; qtot 67.879503
 1794         hx     68    ccc     H6   1794 0.12753300   1.008000   ; qtot 68.007036
 1795         c3     68    ccc     C5   1795 -0.20606700  12.010000   ; qtot 67.800969
 1796         hx     68    ccc     H7   1796 0.12753300   1.008000   ; qtot 67.928502
 1797         hc     68    ccc     H8   1797 0.10603300   1.008000   ; qtot 68.034535
 1798         hc     68    ccc     H9   1798 0.10603300   1.008000   ; qtot 68.140568
 1799          c     68    ccc     C6   1799 0.63793300  12.010000   ; qtot 68.778501
 1800         oh     68    ccc     O1   1800 -0.53626700  16.000000   ; qtot 68.242234
 1801          o     68    ccc     O2   1801 -0.48266700  16.000000   ; qtot 67.759567
 1802         hx     68    ccc    H10   1802 0.12753300   1.008000   ; qtot 67.887100
 1803         hx     68    ccc    H11   1803 0.12753300   1.008000   ; qtot 68.014633
 1804         c3     68    ccc     C7   1804 -0.20606700  12.010000   ; qtot 67.808566
 1805         hc     68    ccc    H12   1805 0.10603300   1.008000   ; qtot 67.914599
 1806         hc     68    ccc    H13   1806 0.10603300   1.008000   ; qtot 68.020632
 1807          c     68    ccc     C8   1807 0.63793300  12.010000   ; qtot 68.658565
 1808          o     68    ccc     O3   1808 -0.48266700  16.000000   ; qtot 68.175898
 1809         oh     68    ccc     O4   1809 -0.53626700  16.000000   ; qtot 67.639631
 1810         ho     68    ccc    H14   1810 0.45283300   1.008000   ; qtot 68.092464
 1811         ho     68    ccc    H15   1811 0.45283300   1.008000   ; qtot 68.545297
 1812         hn     68    ccc    H16   1812 0.45463300   1.008000   ; qtot 68.999930
; residue   69 ccc rtp ccc q 1.0
 1813          n     69    ccc     N1   1813 -0.56206700  14.010000   ; qtot 68.437863
 1814         hn     69    ccc     H1   1814 0.35233300   1.008000   ; qtot 68.790196
 1815         c3     69    ccc     C1   1815 0.10283300  12.010000   ; qtot 68.893029
 1816         h1     69    ccc     H2   1816 0.07153300   1.008000   ; qtot 68.964562
 1817         c3     69    ccc     C2   1817 0.07063300  12.010000   ; qtot 69.035195
 1818         h1     69    ccc     H3   1818 0.07153300   1.008000   ; qtot 69.106728
 1819         hx     69    ccc     H4   1819 0.11303300   1.008000   ; qtot 69.219761
 1820         hx     69    ccc     H5   1820 0.11303300   1.008000   ; qtot 69.332794
 1821         n4     69    ccc     N2   1821 -0.67056700  14.010000   ; qtot 68.662227
 1822         c3     69    ccc     C3   1822 0.10863300  12.010000   ; qtot 68.770860
 1823         c3     69    ccc     C4   1823 0.10863300  12.010000   ; qtot 68.879493
 1824         hx     69    ccc     H6   1824 0.12753300   1.008000   ; qtot 69.007026
 1825         c3     69    ccc     C5   1825 -0.20606700  12.010000   ; qtot 68.800959
 1826         hx     69    ccc     H7   1826 0.12753300   1.008000   ; qtot 68.928492
 1827         hc     69    ccc     H8   1827 0.10603300   1.008000   ; qtot 69.034525
 1828         hc     69    ccc     H9   1828 0.10603300   1.008000   ; qtot 69.140558
 1829          c     69    ccc     C6   1829 0.63793300  12.010000   ; qtot 69.778491
 1830         oh     69    ccc     O1   1830 -0.53626700  16.000000   ; qtot 69.242224
 1831          o     69    ccc     O2   1831 -0.48266700  16.000000   ; qtot 68.759557
 1832         hx     69    ccc    H10   1832 0.12753300   1.008000   ; qtot 68.887090
 1833         hx     69    ccc    H11   1833 0.12753300   1.008000   ; qtot 69.014623
 1834         c3     69    ccc     C7   1834 -0.20606700  12.010000   ; qtot 68.808556
 1835         hc     69    ccc    H12   1835 0.10603300   1.008000   ; qtot 68.914589
 1836         hc     69    ccc    H13   1836 0.10603300   1.008000   ; qtot 69.020622
 1837          c     69    ccc     C8   1837 0.63793300  12.010000   ; qtot 69.658555
 1838          o     69    ccc     O3   1838 -0.48266700  16.000000   ; qtot 69.175888
 1839         oh     69    ccc     O4   1839 -0.53626700  16.000000   ; qtot 68.639621
 1840         ho     69    ccc    H14   1840 0.45283300   1.008000   ; qtot 69.092454
 1841         ho     69    ccc    H15   1841 0.45283300   1.008000   ; qtot 69.545287
 1842         hn     69    ccc    H16   1842 0.45463300   1.008000   ; qtot 69.999920
; residue   70 ccc rtp ccc q 1.0
 1843          n     70    ccc     N1   1843 -0.56206700  14.010000   ; qtot 69.437853
 1844         hn     70    ccc     H1   1844 0.35233300   1.008000   ; qtot 69.790186
 1845         c3     70    ccc     C1   1845 0.10283300  12.010000   ; qtot 69.893019
 1846         h1     70    ccc     H2   1846 0.07153300   1.008000   ; qtot 69.964552
 1847         c3     70    ccc     C2   1847 0.07063300  12.010000   ; qtot 70.035185
 1848         h1     70    ccc     H3   1848 0.07153300   1.008000   ; qtot 70.106718
 1849         hx     70    ccc     H4   1849 0.11303300   1.008000   ; qtot 70.219751
 1850         hx     70    ccc     H5   1850 0.11303300   1.008000   ; qtot 70.332784
 1851         n4     70    ccc     N2   1851 -0.67056700  14.010000   ; qtot 69.662217
 1852         c3     70    ccc     C3   1852 0.10863300  12.010000   ; qtot 69.770850
 1853         c3     70    ccc     C4   1853 0.10863300  12.010000   ; qtot 69.879483
 1854         hx     70    ccc     H6   1854 0.12753300   1.008000   ; qtot 70.007016
 1855         c3     70    ccc     C5   1855 -0.20606700  12.010000   ; qtot 69.800949
 1856         hx     70    ccc     H7   1856 0.12753300   1.008000   ; qtot 69.928482
 1857         hc     70    ccc     H8   1857 0.10603300   1.008000   ; qtot 70.034515
 1858         hc     70    ccc     H9   1858 0.10603300   1.008000   ; qtot 70.140548
 1859          c     70    ccc     C6   1859 0.63793300  12.010000   ; qtot 70.778481
 1860         oh     70    ccc     O1   1860 -0.53626700  16.000000   ; qtot 70.242214
 1861          o     70    ccc     O2   1861 -0.48266700  16.000000   ; qtot 69.759547
 1862         hx     70    ccc    H10   1862 0.12753300   1.008000   ; qtot 69.887080
 1863         hx     70    ccc    H11   1863 0.12753300   1.008000   ; qtot 70.014613
 1864         c3     70    ccc     C7   1864 -0.20606700  12.010000   ; qtot 69.808546
 1865         hc     70    ccc    H12   1865 0.10603300   1.008000   ; qtot 69.914579
 1866         hc     70    ccc    H13   1866 0.10603300   1.008000   ; qtot 70.020612
 1867          c     70    ccc     C8   1867 0.63793300  12.010000   ; qtot 70.658545
 1868          o     70    ccc     O3   1868 -0.48266700  16.000000   ; qtot 70.175878
 1869         oh     70    ccc     O4   1869 -0.53626700  16.000000   ; qtot 69.639611
 1870         ho     70    ccc    H14   1870 0.45283300   1.008000   ; qtot 70.092444
 1871         ho     70    ccc    H15   1871 0.45283300   1.008000   ; qtot 70.545277
 1872         hn     70    ccc    H16   1872 0.45463300   1.008000   ; qtot 70.999910
; residue   71 ccc rtp ccc q 1.0
 1873          n     71    ccc     N1   1873 -0.56206700  14.010000   ; qtot 70.437843
 1874         hn     71    ccc     H1   1874 0.35233300   1.008000   ; qtot 70.790176
 1875         c3     71    ccc     C1   1875 0.10283300  12.010000   ; qtot 70.893009
 1876         h1     71    ccc     H2   1876 0.07153300   1.008000   ; qtot 70.964542
 1877         c3     71    ccc     C2   1877 0.07063300  12.010000   ; qtot 71.035175
 1878         h1     71    ccc     H3   1878 0.07153300   1.008000   ; qtot 71.106708
 1879         hx     71    ccc     H4   1879 0.11303300   1.008000   ; qtot 71.219741
 1880         hx     71    ccc     H5   1880 0.11303300   1.008000   ; qtot 71.332774
 1881         n4     71    ccc     N2   1881 -0.67056700  14.010000   ; qtot 70.662207
 1882         c3     71    ccc     C3   1882 0.10863300  12.010000   ; qtot 70.770840
 1883         c3     71    ccc     C4   1883 0.10863300  12.010000   ; qtot 70.879473
 1884         hx     71    ccc     H6   1884 0.12753300   1.008000   ; qtot 71.007006
 1885         c3     71    ccc     C5   1885 -0.20606700  12.010000   ; qtot 70.800939
 1886         hx     71    ccc     H7   1886 0.12753300   1.008000   ; qtot 70.928472
 1887         hc     71    ccc     H8   1887 0.10603300   1.008000   ; qtot 71.034505
 1888         hc     71    ccc     H9   1888 0.10603300   1.008000   ; qtot 71.140538
 1889          c     71    ccc     C6   1889 0.63793300  12.010000   ; qtot 71.778471
 1890         oh     71    ccc     O1   1890 -0.53626700  16.000000   ; qtot 71.242204
 1891          o     71    ccc     O2   1891 -0.48266700  16.000000   ; qtot 70.759537
 1892         hx     71    ccc    H10   1892 0.12753300   1.008000   ; qtot 70.887070
 1893         hx     71    ccc    H11   1893 0.12753300   1.008000   ; qtot 71.014603
 1894         c3     71    ccc     C7   1894 -0.20606700  12.010000   ; qtot 70.808536
 1895         hc     71    ccc    H12   1895 0.10603300   1.008000   ; qtot 70.914569
 1896         hc     71    ccc    H13   1896 0.10603300   1.008000   ; qtot 71.020602
 1897          c     71    ccc     C8   1897 0.63793300  12.010000   ; qtot 71.658535
 1898          o     71    ccc     O3   1898 -0.48266700  16.000000   ; qtot 71.175868
 1899         oh     71    ccc     O4   1899 -0.53626700  16.000000   ; qtot 70.639601
 1900         ho     71    ccc    H14   1900 0.45283300   1.008000   ; qtot 71.092434
 1901         ho     71    ccc    H15   1901 0.45283300   1.008000   ; qtot 71.545267
 1902         hn     71    ccc    H16   1902 0.45463300   1.008000   ; qtot 71.999900
; residue   72 ccc rtp ccc q 1.0
 1903          n     72    ccc     N1   1903 -0.56206700  14.010000   ; qtot 71.437833
 1904         hn     72    ccc     H1   1904 0.35233300   1.008000   ; qtot 71.790166
 1905         c3     72    ccc     C1   1905 0.10283300  12.010000   ; qtot 71.892999
 1906         h1     72    ccc     H2   1906 0.07153300   1.008000   ; qtot 71.964532
 1907         c3     72    ccc     C2   1907 0.07063300  12.010000   ; qtot 72.035165
 1908         h1     72    ccc     H3   1908 0.07153300   1.008000   ; qtot 72.106698
 1909         hx     72    ccc     H4   1909 0.11303300   1.008000   ; qtot 72.219731
 1910         hx     72    ccc     H5   1910 0.11303300   1.008000   ; qtot 72.332764
 1911         n4     72    ccc     N2   1911 -0.67056700  14.010000   ; qtot 71.662197
 1912         c3     72    ccc     C3   1912 0.10863300  12.010000   ; qtot 71.770830
 1913         c3     72    ccc     C4   1913 0.10863300  12.010000   ; qtot 71.879463
 1914         hx     72    ccc     H6   1914 0.12753300   1.008000   ; qtot 72.006996
 1915         c3     72    ccc     C5   1915 -0.20606700  12.010000   ; qtot 71.800929
 1916         hx     72    ccc     H7   1916 0.12753300   1.008000   ; qtot 71.928462
 1917         hc     72    ccc     H8   1917 0.10603300   1.008000   ; qtot 72.034495
 1918         hc     72    ccc     H9   1918 0.10603300   1.008000   ; qtot 72.140528
 1919          c     72    ccc     C6   1919 0.63793300  12.010000   ; qtot 72.778461
 1920         oh     72    ccc     O1   1920 -0.53626700  16.000000   ; qtot 72.242194
 1921          o     72    ccc     O2   1921 -0.48266700  16.000000   ; qtot 71.759527
 1922         hx     72    ccc    H10   1922 0.12753300   1.008000   ; qtot 71.887060
 1923         hx     72    ccc    H11   1923 0.12753300   1.008000   ; qtot 72.014593
 1924         c3     72    ccc     C7   1924 -0.20606700  12.010000   ; qtot 71.808526
 1925         hc     72    ccc    H12   1925 0.10603300   1.008000   ; qtot 71.914559
 1926         hc     72    ccc    H13   1926 0.10603300   1.008000   ; qtot 72.020592
 1927          c     72    ccc     C8   1927 0.63793300  12.010000   ; qtot 72.658525
 1928          o     72    ccc     O3   1928 -0.48266700  16.000000   ; qtot 72.175858
 1929         oh     72    ccc     O4   1929 -0.53626700  16.000000   ; qtot 71.639591
 1930         ho     72    ccc    H14   1930 0.45283300   1.008000   ; qtot 72.092424
 1931         ho     72    ccc    H15   1931 0.45283300   1.008000   ; qtot 72.545257
 1932         hn     72    ccc    H16   1932 0.45463300   1.008000   ; qtot 72.999890
; residue   73 ccc rtp ccc q 1.0
 1933          n     73    ccc     N1   1933 -0.56206700  14.010000   ; qtot 72.437823
 1934         hn     73    ccc     H1   1934 0.35233300   1.008000   ; qtot 72.790156
 1935         c3     73    ccc     C1   1935 0.10283300  12.010000   ; qtot 72.892989
 1936         h1     73    ccc     H2   1936 0.07153300   1.008000   ; qtot 72.964522
 1937         c3     73    ccc     C2   1937 0.07063300  12.010000   ; qtot 73.035155
 1938         h1     73    ccc     H3   1938 0.07153300   1.008000   ; qtot 73.106688
 1939         hx     73    ccc     H4   1939 0.11303300   1.008000   ; qtot 73.219721
 1940         hx     73    ccc     H5   1940 0.11303300   1.008000   ; qtot 73.332754
 1941         n4     73    ccc     N2   1941 -0.67056700  14.010000   ; qtot 72.662187
 1942         c3     73    ccc     C3   1942 0.10863300  12.010000   ; qtot 72.770820
 1943         c3     73    ccc     C4   1943 0.10863300  12.010000   ; qtot 72.879453
 1944         hx     73    ccc     H6   1944 0.12753300   1.008000   ; qtot 73.006986
 1945         c3     73    ccc     C5   1945 -0.20606700  12.010000   ; qtot 72.800919
 1946         hx     73    ccc     H7   1946 0.12753300   1.008000   ; qtot 72.928452
 1947         hc     73    ccc     H8   1947 0.10603300   1.008000   ; qtot 73.034485
 1948         hc     73    ccc     H9   1948 0.10603300   1.008000   ; qtot 73.140518
 1949          c     73    ccc     C6   1949 0.63793300  12.010000   ; qtot 73.778451
 1950         oh     73    ccc     O1   1950 -0.53626700  16.000000   ; qtot 73.242184
 1951          o     73    ccc     O2   1951 -0.48266700  16.000000   ; qtot 72.759517
 1952         hx     73    ccc    H10   1952 0.12753300   1.008000   ; qtot 72.887050
 1953         hx     73    ccc    H11   1953 0.12753300   1.008000   ; qtot 73.014583
 1954         c3     73    ccc     C7   1954 -0.20606700  12.010000   ; qtot 72.808516
 1955         hc     73    ccc    H12   1955 0.10603300   1.008000   ; qtot 72.914549
 1956         hc     73    ccc    H13   1956 0.10603300   1.008000   ; qtot 73.020582
 1957          c     73    ccc     C8   1957 0.63793300  12.010000   ; qtot 73.658515
 1958          o     73    ccc     O3   1958 -0.48266700  16.000000   ; qtot 73.175848
 1959         oh     73    ccc     O4   1959 -0.53626700  16.000000   ; qtot 72.639581
 1960         ho     73    ccc    H14   1960 0.45283300   1.008000   ; qtot 73.092414
 1961         ho     73    ccc    H15   1961 0.45283300   1.008000   ; qtot 73.545247
 1962         hn     73    ccc    H16   1962 0.45463300   1.008000   ; qtot 73.999880
; residue   74 ccc rtp ccc q 1.0
 1963          n     74    ccc     N1   1963 -0.56206700  14.010000   ; qtot 73.437813
 1964         hn     74    ccc     H1   1964 0.35233300   1.008000   ; qtot 73.790146
 1965         c3     74    ccc     C1   1965 0.10283300  12.010000   ; qtot 73.892979
 1966         h1     74    ccc     H2   1966 0.07153300   1.008000   ; qtot 73.964512
 1967         c3     74    ccc     C2   1967 0.07063300  12.010000   ; qtot 74.035145
 1968         h1     74    ccc     H3   1968 0.07153300   1.008000   ; qtot 74.106678
 1969         hx     74    ccc     H4   1969 0.11303300   1.008000   ; qtot 74.219711
 1970         hx     74    ccc     H5   1970 0.11303300   1.008000   ; qtot 74.332744
 1971         n4     74    ccc     N2   1971 -0.67056700  14.010000   ; qtot 73.662177
 1972         c3     74    ccc     C3   1972 0.10863300  12.010000   ; qtot 73.770810
 1973         c3     74    ccc     C4   1973 0.10863300  12.010000   ; qtot 73.879443
 1974         hx     74    ccc     H6   1974 0.12753300   1.008000   ; qtot 74.006976
 1975         c3     74    ccc     C5   1975 -0.20606700  12.010000   ; qtot 73.800909
 1976         hx     74    ccc     H7   1976 0.12753300   1.008000   ; qtot 73.928442
 1977         hc     74    ccc     H8   1977 0.10603300   1.008000   ; qtot 74.034475
 1978         hc     74    ccc     H9   1978 0.10603300   1.008000   ; qtot 74.140508
 1979          c     74    ccc     C6   1979 0.63793300  12.010000   ; qtot 74.778441
 1980         oh     74    ccc     O1   1980 -0.53626700  16.000000   ; qtot 74.242174
 1981          o     74    ccc     O2   1981 -0.48266700  16.000000   ; qtot 73.759507
 1982         hx     74    ccc    H10   1982 0.12753300   1.008000   ; qtot 73.887040
 1983         hx     74    ccc    H11   1983 0.12753300   1.008000   ; qtot 74.014573
 1984         c3     74    ccc     C7   1984 -0.20606700  12.010000   ; qtot 73.808506
 1985         hc     74    ccc    H12   1985 0.10603300   1.008000   ; qtot 73.914539
 1986         hc     74    ccc    H13   1986 0.10603300   1.008000   ; qtot 74.020572
 1987          c     74    ccc     C8   1987 0.63793300  12.010000   ; qtot 74.658505
 1988          o     74    ccc     O3   1988 -0.48266700  16.000000   ; qtot 74.175838
 1989         oh     74    ccc     O4   1989 -0.53626700  16.000000   ; qtot 73.639571
 1990         ho     74    ccc    H14   1990 0.45283300   1.008000   ; qtot 74.092404
 1991         ho     74    ccc    H15   1991 0.45283300   1.008000   ; qtot 74.545237
 1992         hn     74    ccc    H16   1992 0.45463300   1.008000   ; qtot 74.999870
; residue   75 ccc rtp ccc q 1.0
 1993          n     75    ccc     N1   1993 -0.56206700  14.010000   ; qtot 74.437803
 1994         hn     75    ccc     H1   1994 0.35233300   1.008000   ; qtot 74.790136
 1995         c3     75    ccc     C1   1995 0.10283300  12.010000   ; qtot 74.892969
 1996         h1     75    ccc     H2   1996 0.07153300   1.008000   ; qtot 74.964502
 1997         c3     75    ccc     C2   1997 0.07063300  12.010000   ; qtot 75.035135
 1998         h1     75    ccc     H3   1998 0.07153300   1.008000   ; qtot 75.106668
 1999         hx     75    ccc     H4   1999 0.11303300   1.008000   ; qtot 75.219701
 2000         hx     75    ccc     H5   2000 0.11303300   1.008000   ; qtot 75.332734
 2001         n4     75    ccc     N2   2001 -0.67056700  14.010000   ; qtot 74.662167
 2002         c3     75    ccc     C3   2002 0.10863300  12.010000   ; qtot 74.770800
 2003         c3     75    ccc     C4   2003 0.10863300  12.010000   ; qtot 74.879433
 2004         hx     75    ccc     H6   2004 0.12753300   1.008000   ; qtot 75.006966
 2005         c3     75    ccc     C5   2005 -0.20606700  12.010000   ; qtot 74.800899
 2006         hx     75    ccc     H7   2006 0.12753300   1.008000   ; qtot 74.928432
 2007         hc     75    ccc     H8   2007 0.10603300   1.008000   ; qtot 75.034465
 2008         hc     75    ccc     H9   2008 0.10603300   1.008000   ; qtot 75.140498
 2009          c     75    ccc     C6   2009 0.63793300  12.010000   ; qtot 75.778431
 2010         oh     75    ccc     O1   2010 -0.53626700  16.000000   ; qtot 75.242164
 2011          o     75    ccc     O2   2011 -0.48266700  16.000000   ; qtot 74.759497
 2012         hx     75    ccc    H10   2012 0.12753300   1.008000   ; qtot 74.887030
 2013         hx     75    ccc    H11   2013 0.12753300   1.008000   ; qtot 75.014563
 2014         c3     75    ccc     C7   2014 -0.20606700  12.010000   ; qtot 74.808496
 2015         hc     75    ccc    H12   2015 0.10603300   1.008000   ; qtot 74.914529
 2016         hc     75    ccc    H13   2016 0.10603300   1.008000   ; qtot 75.020562
 2017          c     75    ccc     C8   2017 0.63793300  12.010000   ; qtot 75.658495
 2018          o     75    ccc     O3   2018 -0.48266700  16.000000   ; qtot 75.175828
 2019         oh     75    ccc     O4   2019 -0.53626700  16.000000   ; qtot 74.639561
 2020         ho     75    ccc    H14   2020 0.45283300   1.008000   ; qtot 75.092394
 2021         ho     75    ccc    H15   2021 0.45283300   1.008000   ; qtot 75.545227
 2022         hn     75    ccc    H16   2022 0.45463300   1.008000   ; qtot 75.999860
; residue   76 ccc rtp ccc q 1.0
 2023          n     76    ccc     N1   2023 -0.56206700  14.010000   ; qtot 75.437793
 2024         hn     76    ccc     H1   2024 0.35233300   1.008000   ; qtot 75.790126
 2025         c3     76    ccc     C1   2025 0.10283300  12.010000   ; qtot 75.892959
 2026         h1     76    ccc     H2   2026 0.07153300   1.008000   ; qtot 75.964492
 2027         c3     76    ccc     C2   2027 0.07063300  12.010000   ; qtot 76.035125
 2028         h1     76    ccc     H3   2028 0.07153300   1.008000   ; qtot 76.106658
 2029         hx     76    ccc     H4   2029 0.11303300   1.008000   ; qtot 76.219691
 2030         hx     76    ccc     H5   2030 0.11303300   1.008000   ; qtot 76.332724
 2031         n4     76    ccc     N2   2031 -0.67056700  14.010000   ; qtot 75.662157
 2032         c3     76    ccc     C3   2032 0.10863300  12.010000   ; qtot 75.770790
 2033         c3     76    ccc     C4   2033 0.10863300  12.010000   ; qtot 75.879423
 2034         hx     76    ccc     H6   2034 0.12753300   1.008000   ; qtot 76.006956
 2035         c3     76    ccc     C5   2035 -0.20606700  12.010000   ; qtot 75.800889
 2036         hx     76    ccc     H7   2036 0.12753300   1.008000   ; qtot 75.928422
 2037         hc     76    ccc     H8   2037 0.10603300   1.008000   ; qtot 76.034455
 2038         hc     76    ccc     H9   2038 0.10603300   1.008000   ; qtot 76.140488
 2039          c     76    ccc     C6   2039 0.63793300  12.010000   ; qtot 76.778421
 2040         oh     76    ccc     O1   2040 -0.53626700  16.000000   ; qtot 76.242154
 2041          o     76    ccc     O2   2041 -0.48266700  16.000000   ; qtot 75.759487
 2042         hx     76    ccc    H10   2042 0.12753300   1.008000   ; qtot 75.887020
 2043         hx     76    ccc    H11   2043 0.12753300   1.008000   ; qtot 76.014553
 2044         c3     76    ccc     C7   2044 -0.20606700  12.010000   ; qtot 75.808486
 2045         hc     76    ccc    H12   2045 0.10603300   1.008000   ; qtot 75.914519
 2046         hc     76    ccc    H13   2046 0.10603300   1.008000   ; qtot 76.020552
 2047          c     76    ccc     C8   2047 0.63793300  12.010000   ; qtot 76.658485
 2048          o     76    ccc     O3   2048 -0.48266700  16.000000   ; qtot 76.175818
 2049         oh     76    ccc     O4   2049 -0.53626700  16.000000   ; qtot 75.639551
 2050         ho     76    ccc    H14   2050 0.45283300   1.008000   ; qtot 76.092384
 2051         ho     76    ccc    H15   2051 0.45283300   1.008000   ; qtot 76.545217
 2052         hn     76    ccc    H16   2052 0.45463300   1.008000   ; qtot 76.999850
; residue   77 ccc rtp ccc q 1.0
 2053          n     77    ccc     N1   2053 -0.56206700  14.010000   ; qtot 76.437783
 2054         hn     77    ccc     H1   2054 0.35233300   1.008000   ; qtot 76.790116
 2055         c3     77    ccc     C1   2055 0.10283300  12.010000   ; qtot 76.892949
 2056         h1     77    ccc     H2   2056 0.07153300   1.008000   ; qtot 76.964482
 2057         c3     77    ccc     C2   2057 0.07063300  12.010000   ; qtot 77.035115
 2058         h1     77    ccc     H3   2058 0.07153300   1.008000   ; qtot 77.106648
 2059         hx     77    ccc     H4   2059 0.11303300   1.008000   ; qtot 77.219681
 2060         hx     77    ccc     H5   2060 0.11303300   1.008000   ; qtot 77.332714
 2061         n4     77    ccc     N2   2061 -0.67056700  14.010000   ; qtot 76.662147
 2062         c3     77    ccc     C3   2062 0.10863300  12.010000   ; qtot 76.770780
 2063         c3     77    ccc     C4   2063 0.10863300  12.010000   ; qtot 76.879413
 2064         hx     77    ccc     H6   2064 0.12753300   1.008000   ; qtot 77.006946
 2065         c3     77    ccc     C5   2065 -0.20606700  12.010000   ; qtot 76.800879
 2066         hx     77    ccc     H7   2066 0.12753300   1.008000   ; qtot 76.928412
 2067         hc     77    ccc     H8   2067 0.10603300   1.008000   ; qtot 77.034445
 2068         hc     77    ccc     H9   2068 0.10603300   1.008000   ; qtot 77.140478
 2069          c     77    ccc     C6   2069 0.63793300  12.010000   ; qtot 77.778411
 2070         oh     77    ccc     O1   2070 -0.53626700  16.000000   ; qtot 77.242144
 2071          o     77    ccc     O2   2071 -0.48266700  16.000000   ; qtot 76.759477
 2072         hx     77    ccc    H10   2072 0.12753300   1.008000   ; qtot 76.887010
 2073         hx     77    ccc    H11   2073 0.12753300   1.008000   ; qtot 77.014543
 2074         c3     77    ccc     C7   2074 -0.20606700  12.010000   ; qtot 76.808476
 2075         hc     77    ccc    H12   2075 0.10603300   1.008000   ; qtot 76.914509
 2076         hc     77    ccc    H13   2076 0.10603300   1.008000   ; qtot 77.020542
 2077          c     77    ccc     C8   2077 0.63793300  12.010000   ; qtot 77.658475
 2078          o     77    ccc     O3   2078 -0.48266700  16.000000   ; qtot 77.175808
 2079         oh     77    ccc     O4   2079 -0.53626700  16.000000   ; qtot 76.639541
 2080         ho     77    ccc    H14   2080 0.45283300   1.008000   ; qtot 77.092374
 2081         ho     77    ccc    H15   2081 0.45283300   1.008000   ; qtot 77.545207
 2082         hn     77    ccc    H16   2082 0.45463300   1.008000   ; qtot 77.999840
; residue   78 ccc rtp ccc q 1.0
 2083          n     78    ccc     N1   2083 -0.56206700  14.010000   ; qtot 77.437773
 2084         hn     78    ccc     H1   2084 0.35233300   1.008000   ; qtot 77.790106
 2085         c3     78    ccc     C1   2085 0.10283300  12.010000   ; qtot 77.892939
 2086         h1     78    ccc     H2   2086 0.07153300   1.008000   ; qtot 77.964472
 2087         c3     78    ccc     C2   2087 0.07063300  12.010000   ; qtot 78.035105
 2088         h1     78    ccc     H3   2088 0.07153300   1.008000   ; qtot 78.106638
 2089         hx     78    ccc     H4   2089 0.11303300   1.008000   ; qtot 78.219671
 2090         hx     78    ccc     H5   2090 0.11303300   1.008000   ; qtot 78.332704
 2091         n4     78    ccc     N2   2091 -0.67056700  14.010000   ; qtot 77.662137
 2092         c3     78    ccc     C3   2092 0.10863300  12.010000   ; qtot 77.770770
 2093         c3     78    ccc     C4   2093 0.10863300  12.010000   ; qtot 77.879403
 2094         hx     78    ccc     H6   2094 0.12753300   1.008000   ; qtot 78.006936
 2095         c3     78    ccc     C5   2095 -0.20606700  12.010000   ; qtot 77.800869
 2096         hx     78    ccc     H7   2096 0.12753300   1.008000   ; qtot 77.928402
 2097         hc     78    ccc     H8   2097 0.10603300   1.008000   ; qtot 78.034435
 2098         hc     78    ccc     H9   2098 0.10603300   1.008000   ; qtot 78.140468
 2099          c     78    ccc     C6   2099 0.63793300  12.010000   ; qtot 78.778401
 2100         oh     78    ccc     O1   2100 -0.53626700  16.000000   ; qtot 78.242134
 2101          o     78    ccc     O2   2101 -0.48266700  16.000000   ; qtot 77.759467
 2102         hx     78    ccc    H10   2102 0.12753300   1.008000   ; qtot 77.887000
 2103         hx     78    ccc    H11   2103 0.12753300   1.008000   ; qtot 78.014533
 2104         c3     78    ccc     C7   2104 -0.20606700  12.010000   ; qtot 77.808466
 2105         hc     78    ccc    H12   2105 0.10603300   1.008000   ; qtot 77.914499
 2106         hc     78    ccc    H13   2106 0.10603300   1.008000   ; qtot 78.020532
 2107          c     78    ccc     C8   2107 0.63793300  12.010000   ; qtot 78.658465
 2108          o     78    ccc     O3   2108 -0.48266700  16.000000   ; qtot 78.175798
 2109         oh     78    ccc     O4   2109 -0.53626700  16.000000   ; qtot 77.639531
 2110         ho     78    ccc    H14   2110 0.45283300   1.008000   ; qtot 78.092364
 2111         ho     78    ccc    H15   2111 0.45283300   1.008000   ; qtot 78.545197
 2112         hn     78    ccc    H16   2112 0.45463300   1.008000   ; qtot 78.999830
; residue   79 ccc rtp ccc q 1.0
 2113          n     79    ccc     N1   2113 -0.56206700  14.010000   ; qtot 78.437763
 2114         hn     79    ccc     H1   2114 0.35233300   1.008000   ; qtot 78.790096
 2115         c3     79    ccc     C1   2115 0.10283300  12.010000   ; qtot 78.892929
 2116         h1     79    ccc     H2   2116 0.07153300   1.008000   ; qtot 78.964462
 2117         c3     79    ccc     C2   2117 0.07063300  12.010000   ; qtot 79.035095
 2118         h1     79    ccc     H3   2118 0.07153300   1.008000   ; qtot 79.106628
 2119         hx     79    ccc     H4   2119 0.11303300   1.008000   ; qtot 79.219661
 2120         hx     79    ccc     H5   2120 0.11303300   1.008000   ; qtot 79.332694
 2121         n4     79    ccc     N2   2121 -0.67056700  14.010000   ; qtot 78.662127
 2122         c3     79    ccc     C3   2122 0.10863300  12.010000   ; qtot 78.770760
 2123         c3     79    ccc     C4   2123 0.10863300  12.010000   ; qtot 78.879393
 2124         hx     79    ccc     H6   2124 0.12753300   1.008000   ; qtot 79.006926
 2125         c3     79    ccc     C5   2125 -0.20606700  12.010000   ; qtot 78.800859
 2126         hx     79    ccc     H7   2126 0.12753300   1.008000   ; qtot 78.928392
 2127         hc     79    ccc     H8   2127 0.10603300   1.008000   ; qtot 79.034425
 2128         hc     79    ccc     H9   2128 0.10603300   1.008000   ; qtot 79.140458
 2129          c     79    ccc     C6   2129 0.63793300  12.010000   ; qtot 79.778391
 2130         oh     79    ccc     O1   2130 -0.53626700  16.000000   ; qtot 79.242124
 2131          o     79    ccc     O2   2131 -0.48266700  16.000000   ; qtot 78.759457
 2132         hx     79    ccc    H10   2132 0.12753300   1.008000   ; qtot 78.886990
 2133         hx     79    ccc    H11   2133 0.12753300   1.008000   ; qtot 79.014523
 2134         c3     79    ccc     C7   2134 -0.20606700  12.010000   ; qtot 78.808456
 2135         hc     79    ccc    H12   2135 0.10603300   1.008000   ; qtot 78.914489
 2136         hc     79    ccc    H13   2136 0.10603300   1.008000   ; qtot 79.020522
 2137          c     79    ccc     C8   2137 0.63793300  12.010000   ; qtot 79.658455
 2138          o     79    ccc     O3   2138 -0.48266700  16.000000   ; qtot 79.175788
 2139         oh     79    ccc     O4   2139 -0.53626700  16.000000   ; qtot 78.639521
 2140         ho     79    ccc    H14   2140 0.45283300   1.008000   ; qtot 79.092354
 2141         ho     79    ccc    H15   2141 0.45283300   1.008000   ; qtot 79.545187
 2142         hn     79    ccc    H16   2142 0.45463300   1.008000   ; qtot 79.999820
; residue   80 ccc rtp ccc q 1.0
 2143          n     80    ccc     N1   2143 -0.56206700  14.010000   ; qtot 79.437753
 2144         hn     80    ccc     H1   2144 0.35233300   1.008000   ; qtot 79.790086
 2145         c3     80    ccc     C1   2145 0.10283300  12.010000   ; qtot 79.892919
 2146         h1     80    ccc     H2   2146 0.07153300   1.008000   ; qtot 79.964452
 2147         c3     80    ccc     C2   2147 0.07063300  12.010000   ; qtot 80.035085
 2148         h1     80    ccc     H3   2148 0.07153300   1.008000   ; qtot 80.106618
 2149         hx     80    ccc     H4   2149 0.11303300   1.008000   ; qtot 80.219651
 2150         hx     80    ccc     H5   2150 0.11303300   1.008000   ; qtot 80.332684
 2151         n4     80    ccc     N2   2151 -0.67056700  14.010000   ; qtot 79.662117
 2152         c3     80    ccc     C3   2152 0.10863300  12.010000   ; qtot 79.770750
 2153         c3     80    ccc     C4   2153 0.10863300  12.010000   ; qtot 79.879383
 2154         hx     80    ccc     H6   2154 0.12753300   1.008000   ; qtot 80.006916
 2155         c3     80    ccc     C5   2155 -0.20606700  12.010000   ; qtot 79.800849
 2156         hx     80    ccc     H7   2156 0.12753300   1.008000   ; qtot 79.928382
 2157         hc     80    ccc     H8   2157 0.10603300   1.008000   ; qtot 80.034415
 2158         hc     80    ccc     H9   2158 0.10603300   1.008000   ; qtot 80.140448
 2159          c     80    ccc     C6   2159 0.63793300  12.010000   ; qtot 80.778381
 2160         oh     80    ccc     O1   2160 -0.53626700  16.000000   ; qtot 80.242114
 2161          o     80    ccc     O2   2161 -0.48266700  16.000000   ; qtot 79.759447
 2162         hx     80    ccc    H10   2162 0.12753300   1.008000   ; qtot 79.886980
 2163         hx     80    ccc    H11   2163 0.12753300   1.008000   ; qtot 80.014513
 2164         c3     80    ccc     C7   2164 -0.20606700  12.010000   ; qtot 79.808446
 2165         hc     80    ccc    H12   2165 0.10603300   1.008000   ; qtot 79.914479
 2166         hc     80    ccc    H13   2166 0.10603300   1.008000   ; qtot 80.020512
 2167          c     80    ccc     C8   2167 0.63793300  12.010000   ; qtot 80.658445
 2168          o     80    ccc     O3   2168 -0.48266700  16.000000   ; qtot 80.175778
 2169         oh     80    ccc     O4   2169 -0.53626700  16.000000   ; qtot 79.639511
 2170         ho     80    ccc    H14   2170 0.45283300   1.008000   ; qtot 80.092344
 2171         ho     80    ccc    H15   2171 0.45283300   1.008000   ; qtot 80.545177
 2172         hn     80    ccc    H16   2172 0.45463300   1.008000   ; qtot 80.999810
; residue   81 ccc rtp ccc q 1.0
 2173          n     81    ccc     N1   2173 -0.56206700  14.010000   ; qtot 80.437743
 2174         hn     81    ccc     H1   2174 0.35233300   1.008000   ; qtot 80.790076
 2175         c3     81    ccc     C1   2175 0.10283300  12.010000   ; qtot 80.892909
 2176         h1     81    ccc     H2   2176 0.07153300   1.008000   ; qtot 80.964442
 2177         c3     81    ccc     C2   2177 0.07063300  12.010000   ; qtot 81.035075
 2178         h1     81    ccc     H3   2178 0.07153300   1.008000   ; qtot 81.106608
 2179         hx     81    ccc     H4   2179 0.11303300   1.008000   ; qtot 81.219641
 2180         hx     81    ccc     H5   2180 0.11303300   1.008000   ; qtot 81.332674
 2181         n4     81    ccc     N2   2181 -0.67056700  14.010000   ; qtot 80.662107
 2182         c3     81    ccc     C3   2182 0.10863300  12.010000   ; qtot 80.770740
 2183         c3     81    ccc     C4   2183 0.10863300  12.010000   ; qtot 80.879373
 2184         hx     81    ccc     H6   2184 0.12753300   1.008000   ; qtot 81.006906
 2185         c3     81    ccc     C5   2185 -0.20606700  12.010000   ; qtot 80.800839
 2186         hx     81    ccc     H7   2186 0.12753300   1.008000   ; qtot 80.928372
 2187         hc     81    ccc     H8   2187 0.10603300   1.008000   ; qtot 81.034405
 2188         hc     81    ccc     H9   2188 0.10603300   1.008000   ; qtot 81.140438
 2189          c     81    ccc     C6   2189 0.63793300  12.010000   ; qtot 81.778371
 2190         oh     81    ccc     O1   2190 -0.53626700  16.000000   ; qtot 81.242104
 2191          o     81    ccc     O2   2191 -0.48266700  16.000000   ; qtot 80.759437
 2192         hx     81    ccc    H10   2192 0.12753300   1.008000   ; qtot 80.886970
 2193         hx     81    ccc    H11   2193 0.12753300   1.008000   ; qtot 81.014503
 2194         c3     81    ccc     C7   2194 -0.20606700  12.010000   ; qtot 80.808436
 2195         hc     81    ccc    H12   2195 0.10603300   1.008000   ; qtot 80.914469
 2196         hc     81    ccc    H13   2196 0.10603300   1.008000   ; qtot 81.020502
 2197          c     81    ccc     C8   2197 0.63793300  12.010000   ; qtot 81.658435
 2198          o     81    ccc     O3   2198 -0.48266700  16.000000   ; qtot 81.175768
 2199         oh     81    ccc     O4   2199 -0.53626700  16.000000   ; qtot 80.639501
 2200         ho     81    ccc    H14   2200 0.45283300   1.008000   ; qtot 81.092334
 2201         ho     81    ccc    H15   2201 0.45283300   1.008000   ; qtot 81.545167
 2202         hn     81    ccc    H16   2202 0.45463300   1.008000   ; qtot 81.999800
; residue   82 ccc rtp ccc q 1.0
 2203          n     82    ccc     N1   2203 -0.56206700  14.010000   ; qtot 81.437733
 2204         hn     82    ccc     H1   2204 0.35233300   1.008000   ; qtot 81.790066
 2205         c3     82    ccc     C1   2205 0.10283300  12.010000   ; qtot 81.892899
 2206         h1     82    ccc     H2   2206 0.07153300   1.008000   ; qtot 81.964432
 2207         c3     82    ccc     C2   2207 0.07063300  12.010000   ; qtot 82.035065
 2208         h1     82    ccc     H3   2208 0.07153300   1.008000   ; qtot 82.106598
 2209         hx     82    ccc     H4   2209 0.11303300   1.008000   ; qtot 82.219631
 2210         hx     82    ccc     H5   2210 0.11303300   1.008000   ; qtot 82.332664
 2211         n4     82    ccc     N2   2211 -0.67056700  14.010000   ; qtot 81.662097
 2212         c3     82    ccc     C3   2212 0.10863300  12.010000   ; qtot 81.770730
 2213         c3     82    ccc     C4   2213 0.10863300  12.010000   ; qtot 81.879363
 2214         hx     82    ccc     H6   2214 0.12753300   1.008000   ; qtot 82.006896
 2215         c3     82    ccc     C5   2215 -0.20606700  12.010000   ; qtot 81.800829
 2216         hx     82    ccc     H7   2216 0.12753300   1.008000   ; qtot 81.928362
 2217         hc     82    ccc     H8   2217 0.10603300   1.008000   ; qtot 82.034395
 2218         hc     82    ccc     H9   2218 0.10603300   1.008000   ; qtot 82.140428
 2219          c     82    ccc     C6   2219 0.63793300  12.010000   ; qtot 82.778361
 2220         oh     82    ccc     O1   2220 -0.53626700  16.000000   ; qtot 82.242094
 2221          o     82    ccc     O2   2221 -0.48266700  16.000000   ; qtot 81.759427
 2222         hx     82    ccc    H10   2222 0.12753300   1.008000   ; qtot 81.886960
 2223         hx     82    ccc    H11   2223 0.12753300   1.008000   ; qtot 82.014493
 2224         c3     82    ccc     C7   2224 -0.20606700  12.010000   ; qtot 81.808426
 2225         hc     82    ccc    H12   2225 0.10603300   1.008000   ; qtot 81.914459
 2226         hc     82    ccc    H13   2226 0.10603300   1.008000   ; qtot 82.020492
 2227          c     82    ccc     C8   2227 0.63793300  12.010000   ; qtot 82.658425
 2228          o     82    ccc     O3   2228 -0.48266700  16.000000   ; qtot 82.175758
 2229         oh     82    ccc     O4   2229 -0.53626700  16.000000   ; qtot 81.639491
 2230         ho     82    ccc    H14   2230 0.45283300   1.008000   ; qtot 82.092324
 2231         ho     82    ccc    H15   2231 0.45283300   1.008000   ; qtot 82.545157
 2232         hn     82    ccc    H16   2232 0.45463300   1.008000   ; qtot 82.999790
; residue   83 ccc rtp ccc q 1.0
 2233          n     83    ccc     N1   2233 -0.56206700  14.010000   ; qtot 82.437723
 2234         hn     83    ccc     H1   2234 0.35233300   1.008000   ; qtot 82.790056
 2235         c3     83    ccc     C1   2235 0.10283300  12.010000   ; qtot 82.892889
 2236         h1     83    ccc     H2   2236 0.07153300   1.008000   ; qtot 82.964422
 2237         c3     83    ccc     C2   2237 0.07063300  12.010000   ; qtot 83.035055
 2238         h1     83    ccc     H3   2238 0.07153300   1.008000   ; qtot 83.106588
 2239         hx     83    ccc     H4   2239 0.11303300   1.008000   ; qtot 83.219621
 2240         hx     83    ccc     H5   2240 0.11303300   1.008000   ; qtot 83.332654
 2241         n4     83    ccc     N2   2241 -0.67056700  14.010000   ; qtot 82.662087
 2242         c3     83    ccc     C3   2242 0.10863300  12.010000   ; qtot 82.770720
 2243         c3     83    ccc     C4   2243 0.10863300  12.010000   ; qtot 82.879353
 2244         hx     83    ccc     H6   2244 0.12753300   1.008000   ; qtot 83.006886
 2245         c3     83    ccc     C5   2245 -0.20606700  12.010000   ; qtot 82.800819
 2246         hx     83    ccc     H7   2246 0.12753300   1.008000   ; qtot 82.928352
 2247         hc     83    ccc     H8   2247 0.10603300   1.008000   ; qtot 83.034385
 2248         hc     83    ccc     H9   2248 0.10603300   1.008000   ; qtot 83.140418
 2249          c     83    ccc     C6   2249 0.63793300  12.010000   ; qtot 83.778351
 2250         oh     83    ccc     O1   2250 -0.53626700  16.000000   ; qtot 83.242084
 2251          o     83    ccc     O2   2251 -0.48266700  16.000000   ; qtot 82.759417
 2252         hx     83    ccc    H10   2252 0.12753300   1.008000   ; qtot 82.886950
 2253         hx     83    ccc    H11   2253 0.12753300   1.008000   ; qtot 83.014483
 2254         c3     83    ccc     C7   2254 -0.20606700  12.010000   ; qtot 82.808416
 2255         hc     83    ccc    H12   2255 0.10603300   1.008000   ; qtot 82.914449
 2256         hc     83    ccc    H13   2256 0.10603300   1.008000   ; qtot 83.020482
 2257          c     83    ccc     C8   2257 0.63793300  12.010000   ; qtot 83.658415
 2258          o     83    ccc     O3   2258 -0.48266700  16.000000   ; qtot 83.175748
 2259         oh     83    ccc     O4   2259 -0.53626700  16.000000   ; qtot 82.639481
 2260         ho     83    ccc    H14   2260 0.45283300   1.008000   ; qtot 83.092314
 2261         ho     83    ccc    H15   2261 0.45283300   1.008000   ; qtot 83.545147
 2262         hn     83    ccc    H16   2262 0.45463300   1.008000   ; qtot 83.999780
; residue   84 ccc rtp ccc q 1.0
 2263          n     84    ccc     N1   2263 -0.56206700  14.010000   ; qtot 83.437713
 2264         hn     84    ccc     H1   2264 0.35233300   1.008000   ; qtot 83.790046
 2265         c3     84    ccc     C1   2265 0.10283300  12.010000   ; qtot 83.892879
 2266         h1     84    ccc     H2   2266 0.07153300   1.008000   ; qtot 83.964412
 2267         c3     84    ccc     C2   2267 0.07063300  12.010000   ; qtot 84.035045
 2268         h1     84    ccc     H3   2268 0.07153300   1.008000   ; qtot 84.106578
 2269         hx     84    ccc     H4   2269 0.11303300   1.008000   ; qtot 84.219611
 2270         hx     84    ccc     H5   2270 0.11303300   1.008000   ; qtot 84.332644
 2271         n4     84    ccc     N2   2271 -0.67056700  14.010000   ; qtot 83.662077
 2272         c3     84    ccc     C3   2272 0.10863300  12.010000   ; qtot 83.770710
 2273         c3     84    ccc     C4   2273 0.10863300  12.010000   ; qtot 83.879343
 2274         hx     84    ccc     H6   2274 0.12753300   1.008000   ; qtot 84.006876
 2275         c3     84    ccc     C5   2275 -0.20606700  12.010000   ; qtot 83.800809
 2276         hx     84    ccc     H7   2276 0.12753300   1.008000   ; qtot 83.928342
 2277         hc     84    ccc     H8   2277 0.10603300   1.008000   ; qtot 84.034375
 2278         hc     84    ccc     H9   2278 0.10603300   1.008000   ; qtot 84.140408
 2279          c     84    ccc     C6   2279 0.63793300  12.010000   ; qtot 84.778341
 2280         oh     84    ccc     O1   2280 -0.53626700  16.000000   ; qtot 84.242074
 2281          o     84    ccc     O2   2281 -0.48266700  16.000000   ; qtot 83.759407
 2282         hx     84    ccc    H10   2282 0.12753300   1.008000   ; qtot 83.886940
 2283         hx     84    ccc    H11   2283 0.12753300   1.008000   ; qtot 84.014473
 2284         c3     84    ccc     C7   2284 -0.20606700  12.010000   ; qtot 83.808406
 2285         hc     84    ccc    H12   2285 0.10603300   1.008000   ; qtot 83.914439
 2286         hc     84    ccc    H13   2286 0.10603300   1.008000   ; qtot 84.020472
 2287          c     84    ccc     C8   2287 0.63793300  12.010000   ; qtot 84.658405
 2288          o     84    ccc     O3   2288 -0.48266700  16.000000   ; qtot 84.175738
 2289         oh     84    ccc     O4   2289 -0.53626700  16.000000   ; qtot 83.639471
 2290         ho     84    ccc    H14   2290 0.45283300   1.008000   ; qtot 84.092304
 2291         ho     84    ccc    H15   2291 0.45283300   1.008000   ; qtot 84.545137
 2292         hn     84    ccc    H16   2292 0.45463300   1.008000   ; qtot 84.999770
; residue   85 ccc rtp ccc q 1.0
 2293          n     85    ccc     N1   2293 -0.56206700  14.010000   ; qtot 84.437703
 2294         hn     85    ccc     H1   2294 0.35233300   1.008000   ; qtot 84.790036
 2295         c3     85    ccc     C1   2295 0.10283300  12.010000   ; qtot 84.892869
 2296         h1     85    ccc     H2   2296 0.07153300   1.008000   ; qtot 84.964402
 2297         c3     85    ccc     C2   2297 0.07063300  12.010000   ; qtot 85.035035
 2298         h1     85    ccc     H3   2298 0.07153300   1.008000   ; qtot 85.106568
 2299         hx     85    ccc     H4   2299 0.11303300   1.008000   ; qtot 85.219601
 2300         hx     85    ccc     H5   2300 0.11303300   1.008000   ; qtot 85.332634
 2301         n4     85    ccc     N2   2301 -0.67056700  14.010000   ; qtot 84.662067
 2302         c3     85    ccc     C3   2302 0.10863300  12.010000   ; qtot 84.770700
 2303         c3     85    ccc     C4   2303 0.10863300  12.010000   ; qtot 84.879333
 2304         hx     85    ccc     H6   2304 0.12753300   1.008000   ; qtot 85.006866
 2305         c3     85    ccc     C5   2305 -0.20606700  12.010000   ; qtot 84.800799
 2306         hx     85    ccc     H7   2306 0.12753300   1.008000   ; qtot 84.928332
 2307         hc     85    ccc     H8   2307 0.10603300   1.008000   ; qtot 85.034365
 2308         hc     85    ccc     H9   2308 0.10603300   1.008000   ; qtot 85.140398
 2309          c     85    ccc     C6   2309 0.63793300  12.010000   ; qtot 85.778331
 2310         oh     85    ccc     O1   2310 -0.53626700  16.000000   ; qtot 85.242064
 2311          o     85    ccc     O2   2311 -0.48266700  16.000000   ; qtot 84.759397
 2312         hx     85    ccc    H10   2312 0.12753300   1.008000   ; qtot 84.886930
 2313         hx     85    ccc    H11   2313 0.12753300   1.008000   ; qtot 85.014463
 2314         c3     85    ccc     C7   2314 -0.20606700  12.010000   ; qtot 84.808396
 2315         hc     85    ccc    H12   2315 0.10603300   1.008000   ; qtot 84.914429
 2316         hc     85    ccc    H13   2316 0.10603300   1.008000   ; qtot 85.020462
 2317          c     85    ccc     C8   2317 0.63793300  12.010000   ; qtot 85.658395
 2318          o     85    ccc     O3   2318 -0.48266700  16.000000   ; qtot 85.175728
 2319         oh     85    ccc     O4   2319 -0.53626700  16.000000   ; qtot 84.639461
 2320         ho     85    ccc    H14   2320 0.45283300   1.008000   ; qtot 85.092294
 2321         ho     85    ccc    H15   2321 0.45283300   1.008000   ; qtot 85.545127
 2322         hn     85    ccc    H16   2322 0.45463300   1.008000   ; qtot 85.999760
; residue   86 ccc rtp ccc q 1.0
 2323          n     86    ccc     N1   2323 -0.56206700  14.010000   ; qtot 85.437693
 2324         hn     86    ccc     H1   2324 0.35233300   1.008000   ; qtot 85.790026
 2325         c3     86    ccc     C1   2325 0.10283300  12.010000   ; qtot 85.892859
 2326         h1     86    ccc     H2   2326 0.07153300   1.008000   ; qtot 85.964392
 2327         c3     86    ccc     C2   2327 0.07063300  12.010000   ; qtot 86.035025
 2328         h1     86    ccc     H3   2328 0.07153300   1.008000   ; qtot 86.106558
 2329         hx     86    ccc     H4   2329 0.11303300   1.008000   ; qtot 86.219591
 2330         hx     86    ccc     H5   2330 0.11303300   1.008000   ; qtot 86.332624
 2331         n4     86    ccc     N2   2331 -0.67056700  14.010000   ; qtot 85.662057
 2332         c3     86    ccc     C3   2332 0.10863300  12.010000   ; qtot 85.770690
 2333         c3     86    ccc     C4   2333 0.10863300  12.010000   ; qtot 85.879323
 2334         hx     86    ccc     H6   2334 0.12753300   1.008000   ; qtot 86.006856
 2335         c3     86    ccc     C5   2335 -0.20606700  12.010000   ; qtot 85.800789
 2336         hx     86    ccc     H7   2336 0.12753300   1.008000   ; qtot 85.928322
 2337         hc     86    ccc     H8   2337 0.10603300   1.008000   ; qtot 86.034355
 2338         hc     86    ccc     H9   2338 0.10603300   1.008000   ; qtot 86.140388
 2339          c     86    ccc     C6   2339 0.63793300  12.010000   ; qtot 86.778321
 2340         oh     86    ccc     O1   2340 -0.53626700  16.000000   ; qtot 86.242054
 2341          o     86    ccc     O2   2341 -0.48266700  16.000000   ; qtot 85.759387
 2342         hx     86    ccc    H10   2342 0.12753300   1.008000   ; qtot 85.886920
 2343         hx     86    ccc    H11   2343 0.12753300   1.008000   ; qtot 86.014453
 2344         c3     86    ccc     C7   2344 -0.20606700  12.010000   ; qtot 85.808386
 2345         hc     86    ccc    H12   2345 0.10603300   1.008000   ; qtot 85.914419
 2346         hc     86    ccc    H13   2346 0.10603300   1.008000   ; qtot 86.020452
 2347          c     86    ccc     C8   2347 0.63793300  12.010000   ; qtot 86.658385
 2348          o     86    ccc     O3   2348 -0.48266700  16.000000   ; qtot 86.175718
 2349         oh     86    ccc     O4   2349 -0.53626700  16.000000   ; qtot 85.639451
 2350         ho     86    ccc    H14   2350 0.45283300   1.008000   ; qtot 86.092284
 2351         ho     86    ccc    H15   2351 0.45283300   1.008000   ; qtot 86.545117
 2352         hn     86    ccc    H16   2352 0.45463300   1.008000   ; qtot 86.999750
; residue   87 ccc rtp ccc q 1.0
 2353          n     87    ccc     N1   2353 -0.56206700  14.010000   ; qtot 86.437683
 2354         hn     87    ccc     H1   2354 0.35233300   1.008000   ; qtot 86.790016
 2355         c3     87    ccc     C1   2355 0.10283300  12.010000   ; qtot 86.892849
 2356         h1     87    ccc     H2   2356 0.07153300   1.008000   ; qtot 86.964382
 2357         c3     87    ccc     C2   2357 0.07063300  12.010000   ; qtot 87.035015
 2358         h1     87    ccc     H3   2358 0.07153300   1.008000   ; qtot 87.106548
 2359         hx     87    ccc     H4   2359 0.11303300   1.008000   ; qtot 87.219581
 2360         hx     87    ccc     H5   2360 0.11303300   1.008000   ; qtot 87.332614
 2361         n4     87    ccc     N2   2361 -0.67056700  14.010000   ; qtot 86.662047
 2362         c3     87    ccc     C3   2362 0.10863300  12.010000   ; qtot 86.770680
 2363         c3     87    ccc     C4   2363 0.10863300  12.010000   ; qtot 86.879313
 2364         hx     87    ccc     H6   2364 0.12753300   1.008000   ; qtot 87.006846
 2365         c3     87    ccc     C5   2365 -0.20606700  12.010000   ; qtot 86.800779
 2366         hx     87    ccc     H7   2366 0.12753300   1.008000   ; qtot 86.928312
 2367         hc     87    ccc     H8   2367 0.10603300   1.008000   ; qtot 87.034345
 2368         hc     87    ccc     H9   2368 0.10603300   1.008000   ; qtot 87.140378
 2369          c     87    ccc     C6   2369 0.63793300  12.010000   ; qtot 87.778311
 2370         oh     87    ccc     O1   2370 -0.53626700  16.000000   ; qtot 87.242044
 2371          o     87    ccc     O2   2371 -0.48266700  16.000000   ; qtot 86.759377
 2372         hx     87    ccc    H10   2372 0.12753300   1.008000   ; qtot 86.886910
 2373         hx     87    ccc    H11   2373 0.12753300   1.008000   ; qtot 87.014443
 2374         c3     87    ccc     C7   2374 -0.20606700  12.010000   ; qtot 86.808376
 2375         hc     87    ccc    H12   2375 0.10603300   1.008000   ; qtot 86.914409
 2376         hc     87    ccc    H13   2376 0.10603300   1.008000   ; qtot 87.020442
 2377          c     87    ccc     C8   2377 0.63793300  12.010000   ; qtot 87.658375
 2378          o     87    ccc     O3   2378 -0.48266700  16.000000   ; qtot 87.175708
 2379         oh     87    ccc     O4   2379 -0.53626700  16.000000   ; qtot 86.639441
 2380         ho     87    ccc    H14   2380 0.45283300   1.008000   ; qtot 87.092274
 2381         ho     87    ccc    H15   2381 0.45283300   1.008000   ; qtot 87.545107
 2382         hn     87    ccc    H16   2382 0.45463300   1.008000   ; qtot 87.999740
; residue   88 ccc rtp ccc q 1.0
 2383          n     88    ccc     N1   2383 -0.56206700  14.010000   ; qtot 87.437673
 2384         hn     88    ccc     H1   2384 0.35233300   1.008000   ; qtot 87.790006
 2385         c3     88    ccc     C1   2385 0.10283300  12.010000   ; qtot 87.892839
 2386         h1     88    ccc     H2   2386 0.07153300   1.008000   ; qtot 87.964372
 2387         c3     88    ccc     C2   2387 0.07063300  12.010000   ; qtot 88.035005
 2388         h1     88    ccc     H3   2388 0.07153300   1.008000   ; qtot 88.106538
 2389         hx     88    ccc     H4   2389 0.11303300   1.008000   ; qtot 88.219571
 2390         hx     88    ccc     H5   2390 0.11303300   1.008000   ; qtot 88.332604
 2391         n4     88    ccc     N2   2391 -0.67056700  14.010000   ; qtot 87.662037
 2392         c3     88    ccc     C3   2392 0.10863300  12.010000   ; qtot 87.770670
 2393         c3     88    ccc     C4   2393 0.10863300  12.010000   ; qtot 87.879303
 2394         hx     88    ccc     H6   2394 0.12753300   1.008000   ; qtot 88.006836
 2395         c3     88    ccc     C5   2395 -0.20606700  12.010000   ; qtot 87.800769
 2396         hx     88    ccc     H7   2396 0.12753300   1.008000   ; qtot 87.928302
 2397         hc     88    ccc     H8   2397 0.10603300   1.008000   ; qtot 88.034335
 2398         hc     88    ccc     H9   2398 0.10603300   1.008000   ; qtot 88.140368
 2399          c     88    ccc     C6   2399 0.63793300  12.010000   ; qtot 88.778301
 2400         oh     88    ccc     O1   2400 -0.53626700  16.000000   ; qtot 88.242034
 2401          o     88    ccc     O2   2401 -0.48266700  16.000000   ; qtot 87.759367
 2402         hx     88    ccc    H10   2402 0.12753300   1.008000   ; qtot 87.886900
 2403         hx     88    ccc    H11   2403 0.12753300   1.008000   ; qtot 88.014433
 2404         c3     88    ccc     C7   2404 -0.20606700  12.010000   ; qtot 87.808366
 2405         hc     88    ccc    H12   2405 0.10603300   1.008000   ; qtot 87.914399
 2406         hc     88    ccc    H13   2406 0.10603300   1.008000   ; qtot 88.020432
 2407          c     88    ccc     C8   2407 0.63793300  12.010000   ; qtot 88.658365
 2408          o     88    ccc     O3   2408 -0.48266700  16.000000   ; qtot 88.175698
 2409         oh     88    ccc     O4   2409 -0.53626700  16.000000   ; qtot 87.639431
 2410         ho     88    ccc    H14   2410 0.45283300   1.008000   ; qtot 88.092264
 2411         ho     88    ccc    H15   2411 0.45283300   1.008000   ; qtot 88.545097
 2412         hn     88    ccc    H16   2412 0.45463300   1.008000   ; qtot 88.999730
; residue   89 ccc rtp ccc q 1.0
 2413          n     89    ccc     N1   2413 -0.56206700  14.010000   ; qtot 88.437663
 2414         hn     89    ccc     H1   2414 0.35233300   1.008000   ; qtot 88.789996
 2415         c3     89    ccc     C1   2415 0.10283300  12.010000   ; qtot 88.892829
 2416         h1     89    ccc     H2   2416 0.07153300   1.008000   ; qtot 88.964362
 2417         c3     89    ccc     C2   2417 0.07063300  12.010000   ; qtot 89.034995
 2418         h1     89    ccc     H3   2418 0.07153300   1.008000   ; qtot 89.106528
 2419         hx     89    ccc     H4   2419 0.11303300   1.008000   ; qtot 89.219561
 2420         hx     89    ccc     H5   2420 0.11303300   1.008000   ; qtot 89.332594
 2421         n4     89    ccc     N2   2421 -0.67056700  14.010000   ; qtot 88.662027
 2422         c3     89    ccc     C3   2422 0.10863300  12.010000   ; qtot 88.770660
 2423         c3     89    ccc     C4   2423 0.10863300  12.010000   ; qtot 88.879293
 2424         hx     89    ccc     H6   2424 0.12753300   1.008000   ; qtot 89.006826
 2425         c3     89    ccc     C5   2425 -0.20606700  12.010000   ; qtot 88.800759
 2426         hx     89    ccc     H7   2426 0.12753300   1.008000   ; qtot 88.928292
 2427         hc     89    ccc     H8   2427 0.10603300   1.008000   ; qtot 89.034325
 2428         hc     89    ccc     H9   2428 0.10603300   1.008000   ; qtot 89.140358
 2429          c     89    ccc     C6   2429 0.63793300  12.010000   ; qtot 89.778291
 2430         oh     89    ccc     O1   2430 -0.53626700  16.000000   ; qtot 89.242024
 2431          o     89    ccc     O2   2431 -0.48266700  16.000000   ; qtot 88.759357
 2432         hx     89    ccc    H10   2432 0.12753300   1.008000   ; qtot 88.886890
 2433         hx     89    ccc    H11   2433 0.12753300   1.008000   ; qtot 89.014423
 2434         c3     89    ccc     C7   2434 -0.20606700  12.010000   ; qtot 88.808356
 2435         hc     89    ccc    H12   2435 0.10603300   1.008000   ; qtot 88.914389
 2436         hc     89    ccc    H13   2436 0.10603300   1.008000   ; qtot 89.020422
 2437          c     89    ccc     C8   2437 0.63793300  12.010000   ; qtot 89.658355
 2438          o     89    ccc     O3   2438 -0.48266700  16.000000   ; qtot 89.175688
 2439         oh     89    ccc     O4   2439 -0.53626700  16.000000   ; qtot 88.639421
 2440         ho     89    ccc    H14   2440 0.45283300   1.008000   ; qtot 89.092254
 2441         ho     89    ccc    H15   2441 0.45283300   1.008000   ; qtot 89.545087
 2442         hn     89    ccc    H16   2442 0.45463300   1.008000   ; qtot 89.999720
; residue   90 ccc rtp ccc q 1.0
 2443          n     90    ccc     N1   2443 -0.56206700  14.010000   ; qtot 89.437653
 2444         hn     90    ccc     H1   2444 0.35233300   1.008000   ; qtot 89.789986
 2445         c3     90    ccc     C1   2445 0.10283300  12.010000   ; qtot 89.892819
 2446         h1     90    ccc     H2   2446 0.07153300   1.008000   ; qtot 89.964352
 2447         c3     90    ccc     C2   2447 0.07063300  12.010000   ; qtot 90.034985
 2448         h1     90    ccc     H3   2448 0.07153300   1.008000   ; qtot 90.106518
 2449         hx     90    ccc     H4   2449 0.11303300   1.008000   ; qtot 90.219551
 2450         hx     90    ccc     H5   2450 0.11303300   1.008000   ; qtot 90.332584
 2451         n4     90    ccc     N2   2451 -0.67056700  14.010000   ; qtot 89.662017
 2452         c3     90    ccc     C3   2452 0.10863300  12.010000   ; qtot 89.770650
 2453         c3     90    ccc     C4   2453 0.10863300  12.010000   ; qtot 89.879283
 2454         hx     90    ccc     H6   2454 0.12753300   1.008000   ; qtot 90.006816
 2455         c3     90    ccc     C5   2455 -0.20606700  12.010000   ; qtot 89.800749
 2456         hx     90    ccc     H7   2456 0.12753300   1.008000   ; qtot 89.928282
 2457         hc     90    ccc     H8   2457 0.10603300   1.008000   ; qtot 90.034315
 2458         hc     90    ccc     H9   2458 0.10603300   1.008000   ; qtot 90.140348
 2459          c     90    ccc     C6   2459 0.63793300  12.010000   ; qtot 90.778281
 2460         oh     90    ccc     O1   2460 -0.53626700  16.000000   ; qtot 90.242014
 2461          o     90    ccc     O2   2461 -0.48266700  16.000000   ; qtot 89.759347
 2462         hx     90    ccc    H10   2462 0.12753300   1.008000   ; qtot 89.886880
 2463         hx     90    ccc    H11   2463 0.12753300   1.008000   ; qtot 90.014413
 2464         c3     90    ccc     C7   2464 -0.20606700  12.010000   ; qtot 89.808346
 2465         hc     90    ccc    H12   2465 0.10603300   1.008000   ; qtot 89.914379
 2466         hc     90    ccc    H13   2466 0.10603300   1.008000   ; qtot 90.020412
 2467          c     90    ccc     C8   2467 0.63793300  12.010000   ; qtot 90.658345
 2468          o     90    ccc     O3   2468 -0.48266700  16.000000   ; qtot 90.175678
 2469         oh     90    ccc     O4   2469 -0.53626700  16.000000   ; qtot 89.639411
 2470         ho     90    ccc    H14   2470 0.45283300   1.008000   ; qtot 90.092244
 2471         ho     90    ccc    H15   2471 0.45283300   1.008000   ; qtot 90.545077
 2472         hn     90    ccc    H16   2472 0.45463300   1.008000   ; qtot 90.999710
; residue   91 ccc rtp ccc q 1.0
 2473          n     91    ccc     N1   2473 -0.56206700  14.010000   ; qtot 90.437643
 2474         hn     91    ccc     H1   2474 0.35233300   1.008000   ; qtot 90.789976
 2475         c3     91    ccc     C1   2475 0.10283300  12.010000   ; qtot 90.892809
 2476         h1     91    ccc     H2   2476 0.07153300   1.008000   ; qtot 90.964342
 2477         c3     91    ccc     C2   2477 0.07063300  12.010000   ; qtot 91.034975
 2478         h1     91    ccc     H3   2478 0.07153300   1.008000   ; qtot 91.106508
 2479         hx     91    ccc     H4   2479 0.11303300   1.008000   ; qtot 91.219541
 2480         hx     91    ccc     H5   2480 0.11303300   1.008000   ; qtot 91.332574
 2481         n4     91    ccc     N2   2481 -0.67056700  14.010000   ; qtot 90.662007
 2482         c3     91    ccc     C3   2482 0.10863300  12.010000   ; qtot 90.770640
 2483         c3     91    ccc     C4   2483 0.10863300  12.010000   ; qtot 90.879273
 2484         hx     91    ccc     H6   2484 0.12753300   1.008000   ; qtot 91.006806
 2485         c3     91    ccc     C5   2485 -0.20606700  12.010000   ; qtot 90.800739
 2486         hx     91    ccc     H7   2486 0.12753300   1.008000   ; qtot 90.928272
 2487         hc     91    ccc     H8   2487 0.10603300   1.008000   ; qtot 91.034305
 2488         hc     91    ccc     H9   2488 0.10603300   1.008000   ; qtot 91.140338
 2489          c     91    ccc     C6   2489 0.63793300  12.010000   ; qtot 91.778271
 2490         oh     91    ccc     O1   2490 -0.53626700  16.000000   ; qtot 91.242004
 2491          o     91    ccc     O2   2491 -0.48266700  16.000000   ; qtot 90.759337
 2492         hx     91    ccc    H10   2492 0.12753300   1.008000   ; qtot 90.886870
 2493         hx     91    ccc    H11   2493 0.12753300   1.008000   ; qtot 91.014403
 2494         c3     91    ccc     C7   2494 -0.20606700  12.010000   ; qtot 90.808336
 2495         hc     91    ccc    H12   2495 0.10603300   1.008000   ; qtot 90.914369
 2496         hc     91    ccc    H13   2496 0.10603300   1.008000   ; qtot 91.020402
 2497          c     91    ccc     C8   2497 0.63793300  12.010000   ; qtot 91.658335
 2498          o     91    ccc     O3   2498 -0.48266700  16.000000   ; qtot 91.175668
 2499         oh     91    ccc     O4   2499 -0.53626700  16.000000   ; qtot 90.639401
 2500         ho     91    ccc    H14   2500 0.45283300   1.008000   ; qtot 91.092234
 2501         ho     91    ccc    H15   2501 0.45283300   1.008000   ; qtot 91.545067
 2502         hn     91    ccc    H16   2502 0.45463300   1.008000   ; qtot 91.999700
; residue   92 ccc rtp ccc q 1.0
 2503          n     92    ccc     N1   2503 -0.56206700  14.010000   ; qtot 91.437633
 2504         hn     92    ccc     H1   2504 0.35233300   1.008000   ; qtot 91.789966
 2505         c3     92    ccc     C1   2505 0.10283300  12.010000   ; qtot 91.892799
 2506         h1     92    ccc     H2   2506 0.07153300   1.008000   ; qtot 91.964332
 2507         c3     92    ccc     C2   2507 0.07063300  12.010000   ; qtot 92.034965
 2508         h1     92    ccc     H3   2508 0.07153300   1.008000   ; qtot 92.106498
 2509         hx     92    ccc     H4   2509 0.11303300   1.008000   ; qtot 92.219531
 2510         hx     92    ccc     H5   2510 0.11303300   1.008000   ; qtot 92.332564
 2511         n4     92    ccc     N2   2511 -0.67056700  14.010000   ; qtot 91.661997
 2512         c3     92    ccc     C3   2512 0.10863300  12.010000   ; qtot 91.770630
 2513         c3     92    ccc     C4   2513 0.10863300  12.010000   ; qtot 91.879263
 2514         hx     92    ccc     H6   2514 0.12753300   1.008000   ; qtot 92.006796
 2515         c3     92    ccc     C5   2515 -0.20606700  12.010000   ; qtot 91.800729
 2516         hx     92    ccc     H7   2516 0.12753300   1.008000   ; qtot 91.928262
 2517         hc     92    ccc     H8   2517 0.10603300   1.008000   ; qtot 92.034295
 2518         hc     92    ccc     H9   2518 0.10603300   1.008000   ; qtot 92.140328
 2519          c     92    ccc     C6   2519 0.63793300  12.010000   ; qtot 92.778261
 2520         oh     92    ccc     O1   2520 -0.53626700  16.000000   ; qtot 92.241994
 2521          o     92    ccc     O2   2521 -0.48266700  16.000000   ; qtot 91.759327
 2522         hx     92    ccc    H10   2522 0.12753300   1.008000   ; qtot 91.886860
 2523         hx     92    ccc    H11   2523 0.12753300   1.008000   ; qtot 92.014393
 2524         c3     92    ccc     C7   2524 -0.20606700  12.010000   ; qtot 91.808326
 2525         hc     92    ccc    H12   2525 0.10603300   1.008000   ; qtot 91.914359
 2526         hc     92    ccc    H13   2526 0.10603300   1.008000   ; qtot 92.020392
 2527          c     92    ccc     C8   2527 0.63793300  12.010000   ; qtot 92.658325
 2528          o     92    ccc     O3   2528 -0.48266700  16.000000   ; qtot 92.175658
 2529         oh     92    ccc     O4   2529 -0.53626700  16.000000   ; qtot 91.639391
 2530         ho     92    ccc    H14   2530 0.45283300   1.008000   ; qtot 92.092224
 2531         ho     92    ccc    H15   2531 0.45283300   1.008000   ; qtot 92.545057
 2532         hn     92    ccc    H16   2532 0.45463300   1.008000   ; qtot 92.999690
; residue   93 ccc rtp ccc q 1.0
 2533          n     93    ccc     N1   2533 -0.56206700  14.010000   ; qtot 92.437623
 2534         hn     93    ccc     H1   2534 0.35233300   1.008000   ; qtot 92.789956
 2535         c3     93    ccc     C1   2535 0.10283300  12.010000   ; qtot 92.892789
 2536         h1     93    ccc     H2   2536 0.07153300   1.008000   ; qtot 92.964322
 2537         c3     93    ccc     C2   2537 0.07063300  12.010000   ; qtot 93.034955
 2538         h1     93    ccc     H3   2538 0.07153300   1.008000   ; qtot 93.106488
 2539         hx     93    ccc     H4   2539 0.11303300   1.008000   ; qtot 93.219521
 2540         hx     93    ccc     H5   2540 0.11303300   1.008000   ; qtot 93.332554
 2541         n4     93    ccc     N2   2541 -0.67056700  14.010000   ; qtot 92.661987
 2542         c3     93    ccc     C3   2542 0.10863300  12.010000   ; qtot 92.770620
 2543         c3     93    ccc     C4   2543 0.10863300  12.010000   ; qtot 92.879253
 2544         hx     93    ccc     H6   2544 0.12753300   1.008000   ; qtot 93.006786
 2545         c3     93    ccc     C5   2545 -0.20606700  12.010000   ; qtot 92.800719
 2546         hx     93    ccc     H7   2546 0.12753300   1.008000   ; qtot 92.928252
 2547         hc     93    ccc     H8   2547 0.10603300   1.008000   ; qtot 93.034285
 2548         hc     93    ccc     H9   2548 0.10603300   1.008000   ; qtot 93.140318
 2549          c     93    ccc     C6   2549 0.63793300  12.010000   ; qtot 93.778251
 2550         oh     93    ccc     O1   2550 -0.53626700  16.000000   ; qtot 93.241984
 2551          o     93    ccc     O2   2551 -0.48266700  16.000000   ; qtot 92.759317
 2552         hx     93    ccc    H10   2552 0.12753300   1.008000   ; qtot 92.886850
 2553         hx     93    ccc    H11   2553 0.12753300   1.008000   ; qtot 93.014383
 2554         c3     93    ccc     C7   2554 -0.20606700  12.010000   ; qtot 92.808316
 2555         hc     93    ccc    H12   2555 0.10603300   1.008000   ; qtot 92.914349
 2556         hc     93    ccc    H13   2556 0.10603300   1.008000   ; qtot 93.020382
 2557          c     93    ccc     C8   2557 0.63793300  12.010000   ; qtot 93.658315
 2558          o     93    ccc     O3   2558 -0.48266700  16.000000   ; qtot 93.175648
 2559         oh     93    ccc     O4   2559 -0.53626700  16.000000   ; qtot 92.639381
 2560         ho     93    ccc    H14   2560 0.45283300   1.008000   ; qtot 93.092214
 2561         ho     93    ccc    H15   2561 0.45283300   1.008000   ; qtot 93.545047
 2562         hn     93    ccc    H16   2562 0.45463300   1.008000   ; qtot 93.999680
; residue   94 ccc rtp ccc q 1.0
 2563          n     94    ccc     N1   2563 -0.56206700  14.010000   ; qtot 93.437613
 2564         hn     94    ccc     H1   2564 0.35233300   1.008000   ; qtot 93.789946
 2565         c3     94    ccc     C1   2565 0.10283300  12.010000   ; qtot 93.892779
 2566         h1     94    ccc     H2   2566 0.07153300   1.008000   ; qtot 93.964312
 2567         c3     94    ccc     C2   2567 0.07063300  12.010000   ; qtot 94.034945
 2568         h1     94    ccc     H3   2568 0.07153300   1.008000   ; qtot 94.106478
 2569         hx     94    ccc     H4   2569 0.11303300   1.008000   ; qtot 94.219511
 2570         hx     94    ccc     H5   2570 0.11303300   1.008000   ; qtot 94.332544
 2571         n4     94    ccc     N2   2571 -0.67056700  14.010000   ; qtot 93.661977
 2572         c3     94    ccc     C3   2572 0.10863300  12.010000   ; qtot 93.770610
 2573         c3     94    ccc     C4   2573 0.10863300  12.010000   ; qtot 93.879243
 2574         hx     94    ccc     H6   2574 0.12753300   1.008000   ; qtot 94.006776
 2575         c3     94    ccc     C5   2575 -0.20606700  12.010000   ; qtot 93.800709
 2576         hx     94    ccc     H7   2576 0.12753300   1.008000   ; qtot 93.928242
 2577         hc     94    ccc     H8   2577 0.10603300   1.008000   ; qtot 94.034275
 2578         hc     94    ccc     H9   2578 0.10603300   1.008000   ; qtot 94.140308
 2579          c     94    ccc     C6   2579 0.63793300  12.010000   ; qtot 94.778241
 2580         oh     94    ccc     O1   2580 -0.53626700  16.000000   ; qtot 94.241974
 2581          o     94    ccc     O2   2581 -0.48266700  16.000000   ; qtot 93.759307
 2582         hx     94    ccc    H10   2582 0.12753300   1.008000   ; qtot 93.886840
 2583         hx     94    ccc    H11   2583 0.12753300   1.008000   ; qtot 94.014373
 2584         c3     94    ccc     C7   2584 -0.20606700  12.010000   ; qtot 93.808306
 2585         hc     94    ccc    H12   2585 0.10603300   1.008000   ; qtot 93.914339
 2586         hc     94    ccc    H13   2586 0.10603300   1.008000   ; qtot 94.020372
 2587          c     94    ccc     C8   2587 0.63793300  12.010000   ; qtot 94.658305
 2588          o     94    ccc     O3   2588 -0.48266700  16.000000   ; qtot 94.175638
 2589         oh     94    ccc     O4   2589 -0.53626700  16.000000   ; qtot 93.639371
 2590         ho     94    ccc    H14   2590 0.45283300   1.008000   ; qtot 94.092204
 2591         ho     94    ccc    H15   2591 0.45283300   1.008000   ; qtot 94.545037
 2592         hn     94    ccc    H16   2592 0.45463300   1.008000   ; qtot 94.999670
; residue   95 ccc rtp ccc q 1.0
 2593          n     95    ccc     N1   2593 -0.56206700  14.010000   ; qtot 94.437603
 2594         hn     95    ccc     H1   2594 0.35233300   1.008000   ; qtot 94.789936
 2595         c3     95    ccc     C1   2595 0.10283300  12.010000   ; qtot 94.892769
 2596         h1     95    ccc     H2   2596 0.07153300   1.008000   ; qtot 94.964302
 2597         c3     95    ccc     C2   2597 0.07063300  12.010000   ; qtot 95.034935
 2598         h1     95    ccc     H3   2598 0.07153300   1.008000   ; qtot 95.106468
 2599         hx     95    ccc     H4   2599 0.11303300   1.008000   ; qtot 95.219501
 2600         hx     95    ccc     H5   2600 0.11303300   1.008000   ; qtot 95.332534
 2601         n4     95    ccc     N2   2601 -0.67056700  14.010000   ; qtot 94.661967
 2602         c3     95    ccc     C3   2602 0.10863300  12.010000   ; qtot 94.770600
 2603         c3     95    ccc     C4   2603 0.10863300  12.010000   ; qtot 94.879233
 2604         hx     95    ccc     H6   2604 0.12753300   1.008000   ; qtot 95.006766
 2605         c3     95    ccc     C5   2605 -0.20606700  12.010000   ; qtot 94.800699
 2606         hx     95    ccc     H7   2606 0.12753300   1.008000   ; qtot 94.928232
 2607         hc     95    ccc     H8   2607 0.10603300   1.008000   ; qtot 95.034265
 2608         hc     95    ccc     H9   2608 0.10603300   1.008000   ; qtot 95.140298
 2609          c     95    ccc     C6   2609 0.63793300  12.010000   ; qtot 95.778231
 2610         oh     95    ccc     O1   2610 -0.53626700  16.000000   ; qtot 95.241964
 2611          o     95    ccc     O2   2611 -0.48266700  16.000000   ; qtot 94.759297
 2612         hx     95    ccc    H10   2612 0.12753300   1.008000   ; qtot 94.886830
 2613         hx     95    ccc    H11   2613 0.12753300   1.008000   ; qtot 95.014363
 2614         c3     95    ccc     C7   2614 -0.20606700  12.010000   ; qtot 94.808296
 2615         hc     95    ccc    H12   2615 0.10603300   1.008000   ; qtot 94.914329
 2616         hc     95    ccc    H13   2616 0.10603300   1.008000   ; qtot 95.020362
 2617          c     95    ccc     C8   2617 0.63793300  12.010000   ; qtot 95.658295
 2618          o     95    ccc     O3   2618 -0.48266700  16.000000   ; qtot 95.175628
 2619         oh     95    ccc     O4   2619 -0.53626700  16.000000   ; qtot 94.639361
 2620         ho     95    ccc    H14   2620 0.45283300   1.008000   ; qtot 95.092194
 2621         ho     95    ccc    H15   2621 0.45283300   1.008000   ; qtot 95.545027
 2622         hn     95    ccc    H16   2622 0.45463300   1.008000   ; qtot 95.999660
; residue   96 ccc rtp ccc q 1.0
 2623          n     96    ccc     N1   2623 -0.56206700  14.010000   ; qtot 95.437593
 2624         hn     96    ccc     H1   2624 0.35233300   1.008000   ; qtot 95.789926
 2625         c3     96    ccc     C1   2625 0.10283300  12.010000   ; qtot 95.892759
 2626         h1     96    ccc     H2   2626 0.07153300   1.008000   ; qtot 95.964292
 2627         c3     96    ccc     C2   2627 0.07063300  12.010000   ; qtot 96.034925
 2628         h1     96    ccc     H3   2628 0.07153300   1.008000   ; qtot 96.106458
 2629         hx     96    ccc     H4   2629 0.11303300   1.008000   ; qtot 96.219491
 2630         hx     96    ccc     H5   2630 0.11303300   1.008000   ; qtot 96.332524
 2631         n4     96    ccc     N2   2631 -0.67056700  14.010000   ; qtot 95.661957
 2632         c3     96    ccc     C3   2632 0.10863300  12.010000   ; qtot 95.770590
 2633         c3     96    ccc     C4   2633 0.10863300  12.010000   ; qtot 95.879223
 2634         hx     96    ccc     H6   2634 0.12753300   1.008000   ; qtot 96.006756
 2635         c3     96    ccc     C5   2635 -0.20606700  12.010000   ; qtot 95.800689
 2636         hx     96    ccc     H7   2636 0.12753300   1.008000   ; qtot 95.928222
 2637         hc     96    ccc     H8   2637 0.10603300   1.008000   ; qtot 96.034255
 2638         hc     96    ccc     H9   2638 0.10603300   1.008000   ; qtot 96.140288
 2639          c     96    ccc     C6   2639 0.63793300  12.010000   ; qtot 96.778221
 2640         oh     96    ccc     O1   2640 -0.53626700  16.000000   ; qtot 96.241954
 2641          o     96    ccc     O2   2641 -0.48266700  16.000000   ; qtot 95.759287
 2642         hx     96    ccc    H10   2642 0.12753300   1.008000   ; qtot 95.886820
 2643         hx     96    ccc    H11   2643 0.12753300   1.008000   ; qtot 96.014353
 2644         c3     96    ccc     C7   2644 -0.20606700  12.010000   ; qtot 95.808286
 2645         hc     96    ccc    H12   2645 0.10603300   1.008000   ; qtot 95.914319
 2646         hc     96    ccc    H13   2646 0.10603300   1.008000   ; qtot 96.020352
 2647          c     96    ccc     C8   2647 0.63793300  12.010000   ; qtot 96.658285
 2648          o     96    ccc     O3   2648 -0.48266700  16.000000   ; qtot 96.175618
 2649         oh     96    ccc     O4   2649 -0.53626700  16.000000   ; qtot 95.639351
 2650         ho     96    ccc    H14   2650 0.45283300   1.008000   ; qtot 96.092184
 2651         ho     96    ccc    H15   2651 0.45283300   1.008000   ; qtot 96.545017
 2652         hn     96    ccc    H16   2652 0.45463300   1.008000   ; qtot 96.999650
; residue   97 ccc rtp ccc q 1.0
 2653          n     97    ccc     N1   2653 -0.56206700  14.010000   ; qtot 96.437583
 2654         hn     97    ccc     H1   2654 0.35233300   1.008000   ; qtot 96.789916
 2655         c3     97    ccc     C1   2655 0.10283300  12.010000   ; qtot 96.892749
 2656         h1     97    ccc     H2   2656 0.07153300   1.008000   ; qtot 96.964282
 2657         c3     97    ccc     C2   2657 0.07063300  12.010000   ; qtot 97.034915
 2658         h1     97    ccc     H3   2658 0.07153300   1.008000   ; qtot 97.106448
 2659         hx     97    ccc     H4   2659 0.11303300   1.008000   ; qtot 97.219481
 2660         hx     97    ccc     H5   2660 0.11303300   1.008000   ; qtot 97.332514
 2661         n4     97    ccc     N2   2661 -0.67056700  14.010000   ; qtot 96.661947
 2662         c3     97    ccc     C3   2662 0.10863300  12.010000   ; qtot 96.770580
 2663         c3     97    ccc     C4   2663 0.10863300  12.010000   ; qtot 96.879213
 2664         hx     97    ccc     H6   2664 0.12753300   1.008000   ; qtot 97.006746
 2665         c3     97    ccc     C5   2665 -0.20606700  12.010000   ; qtot 96.800679
 2666         hx     97    ccc     H7   2666 0.12753300   1.008000   ; qtot 96.928212
 2667         hc     97    ccc     H8   2667 0.10603300   1.008000   ; qtot 97.034245
 2668         hc     97    ccc     H9   2668 0.10603300   1.008000   ; qtot 97.140278
 2669          c     97    ccc     C6   2669 0.63793300  12.010000   ; qtot 97.778211
 2670         oh     97    ccc     O1   2670 -0.53626700  16.000000   ; qtot 97.241944
 2671          o     97    ccc     O2   2671 -0.48266700  16.000000   ; qtot 96.759277
 2672         hx     97    ccc    H10   2672 0.12753300   1.008000   ; qtot 96.886810
 2673         hx     97    ccc    H11   2673 0.12753300   1.008000   ; qtot 97.014343
 2674         c3     97    ccc     C7   2674 -0.20606700  12.010000   ; qtot 96.808276
 2675         hc     97    ccc    H12   2675 0.10603300   1.008000   ; qtot 96.914309
 2676         hc     97    ccc    H13   2676 0.10603300   1.008000   ; qtot 97.020342
 2677          c     97    ccc     C8   2677 0.63793300  12.010000   ; qtot 97.658275
 2678          o     97    ccc     O3   2678 -0.48266700  16.000000   ; qtot 97.175608
 2679         oh     97    ccc     O4   2679 -0.53626700  16.000000   ; qtot 96.639341
 2680         ho     97    ccc    H14   2680 0.45283300   1.008000   ; qtot 97.092174
 2681         ho     97    ccc    H15   2681 0.45283300   1.008000   ; qtot 97.545007
 2682         hn     97    ccc    H16   2682 0.45463300   1.008000   ; qtot 97.999640
; residue   98 ccc rtp ccc q 1.0
 2683          n     98    ccc     N1   2683 -0.56206700  14.010000   ; qtot 97.437573
 2684         hn     98    ccc     H1   2684 0.35233300   1.008000   ; qtot 97.789906
 2685         c3     98    ccc     C1   2685 0.10283300  12.010000   ; qtot 97.892739
 2686         h1     98    ccc     H2   2686 0.07153300   1.008000   ; qtot 97.964272
 2687         c3     98    ccc     C2   2687 0.07063300  12.010000   ; qtot 98.034905
 2688         h1     98    ccc     H3   2688 0.07153300   1.008000   ; qtot 98.106438
 2689         hx     98    ccc     H4   2689 0.11303300   1.008000   ; qtot 98.219471
 2690         hx     98    ccc     H5   2690 0.11303300   1.008000   ; qtot 98.332504
 2691         n4     98    ccc     N2   2691 -0.67056700  14.010000   ; qtot 97.661937
 2692         c3     98    ccc     C3   2692 0.10863300  12.010000   ; qtot 97.770570
 2693         c3     98    ccc     C4   2693 0.10863300  12.010000   ; qtot 97.879203
 2694         hx     98    ccc     H6   2694 0.12753300   1.008000   ; qtot 98.006736
 2695         c3     98    ccc     C5   2695 -0.20606700  12.010000   ; qtot 97.800669
 2696         hx     98    ccc     H7   2696 0.12753300   1.008000   ; qtot 97.928202
 2697         hc     98    ccc     H8   2697 0.10603300   1.008000   ; qtot 98.034235
 2698         hc     98    ccc     H9   2698 0.10603300   1.008000   ; qtot 98.140268
 2699          c     98    ccc     C6   2699 0.63793300  12.010000   ; qtot 98.778201
 2700         oh     98    ccc     O1   2700 -0.53626700  16.000000   ; qtot 98.241934
 2701          o     98    ccc     O2   2701 -0.48266700  16.000000   ; qtot 97.759267
 2702         hx     98    ccc    H10   2702 0.12753300   1.008000   ; qtot 97.886800
 2703         hx     98    ccc    H11   2703 0.12753300   1.008000   ; qtot 98.014333
 2704         c3     98    ccc     C7   2704 -0.20606700  12.010000   ; qtot 97.808266
 2705         hc     98    ccc    H12   2705 0.10603300   1.008000   ; qtot 97.914299
 2706         hc     98    ccc    H13   2706 0.10603300   1.008000   ; qtot 98.020332
 2707          c     98    ccc     C8   2707 0.63793300  12.010000   ; qtot 98.658265
 2708          o     98    ccc     O3   2708 -0.48266700  16.000000   ; qtot 98.175598
 2709         oh     98    ccc     O4   2709 -0.53626700  16.000000   ; qtot 97.639331
 2710         ho     98    ccc    H14   2710 0.45283300   1.008000   ; qtot 98.092164
 2711         ho     98    ccc    H15   2711 0.45283300   1.008000   ; qtot 98.544997
 2712         hn     98    ccc    H16   2712 0.45463300   1.008000   ; qtot 98.999630
; residue   99 ccc rtp ccc q 1.0
 2713          n     99    ccc     N1   2713 -0.56206700  14.010000   ; qtot 98.437563
 2714         hn     99    ccc     H1   2714 0.35233300   1.008000   ; qtot 98.789896
 2715         c3     99    ccc     C1   2715 0.10283300  12.010000   ; qtot 98.892729
 2716         h1     99    ccc     H2   2716 0.07153300   1.008000   ; qtot 98.964262
 2717         c3     99    ccc     C2   2717 0.07063300  12.010000   ; qtot 99.034895
 2718         h1     99    ccc     H3   2718 0.07153300   1.008000   ; qtot 99.106428
 2719         hx     99    ccc     H4   2719 0.11303300   1.008000   ; qtot 99.219461
 2720         hx     99    ccc     H5   2720 0.11303300   1.008000   ; qtot 99.332494
 2721         n4     99    ccc     N2   2721 -0.67056700  14.010000   ; qtot 98.661927
 2722         c3     99    ccc     C3   2722 0.10863300  12.010000   ; qtot 98.770560
 2723         c3     99    ccc     C4   2723 0.10863300  12.010000   ; qtot 98.879193
 2724         hx     99    ccc     H6   2724 0.12753300   1.008000   ; qtot 99.006726
 2725         c3     99    ccc     C5   2725 -0.20606700  12.010000   ; qtot 98.800659
 2726         hx     99    ccc     H7   2726 0.12753300   1.008000   ; qtot 98.928192
 2727         hc     99    ccc     H8   2727 0.10603300   1.008000   ; qtot 99.034225
 2728         hc     99    ccc     H9   2728 0.10603300   1.008000   ; qtot 99.140258
 2729          c     99    ccc     C6   2729 0.63793300  12.010000   ; qtot 99.778191
 2730         oh     99    ccc     O1   2730 -0.53626700  16.000000   ; qtot 99.241924
 2731          o     99    ccc     O2   2731 -0.48266700  16.000000   ; qtot 98.759257
 2732         hx     99    ccc    H10   2732 0.12753300   1.008000   ; qtot 98.886790
 2733         hx     99    ccc    H11   2733 0.12753300   1.008000   ; qtot 99.014323
 2734         c3     99    ccc     C7   2734 -0.20606700  12.010000   ; qtot 98.808256
 2735         hc     99    ccc    H12   2735 0.10603300   1.008000   ; qtot 98.914289
 2736         hc     99    ccc    H13   2736 0.10603300   1.008000   ; qtot 99.020322
 2737          c     99    ccc     C8   2737 0.63793300  12.010000   ; qtot 99.658255
 2738          o     99    ccc     O3   2738 -0.48266700  16.000000   ; qtot 99.175588
 2739         oh     99    ccc     O4   2739 -0.53626700  16.000000   ; qtot 98.639321
 2740         ho     99    ccc    H14   2740 0.45283300   1.008000   ; qtot 99.092154
 2741         ho     99    ccc    H15   2741 0.45283300   1.008000   ; qtot 99.544987
 2742         hn     99    ccc    H16   2742 0.45463300   1.008000   ; qtot 99.999620
; residue  100 ccc rtp ccc q 1.0
 2743          n    100    ccc     N1   2743 -0.56206700  14.010000   ; qtot 99.437553
 2744         hn    100    ccc     H1   2744 0.35233300   1.008000   ; qtot 99.789886
 2745         c3    100    ccc     C1   2745 0.10283300  12.010000   ; qtot 99.892719
 2746         h1    100    ccc     H2   2746 0.07153300   1.008000   ; qtot 99.964252
 2747         c3    100    ccc     C2   2747 0.07063300  12.010000   ; qtot 100.034885
 2748         h1    100    ccc     H3   2748 0.07153300   1.008000   ; qtot 100.106418
 2749         hx    100    ccc     H4   2749 0.11303300   1.008000   ; qtot 100.219451
 2750         hx    100    ccc     H5   2750 0.11303300   1.008000   ; qtot 100.332484
 2751         n4    100    ccc     N2   2751 -0.67056700  14.010000   ; qtot 99.661917
 2752         c3    100    ccc     C3   2752 0.10863300  12.010000   ; qtot 99.770550
 2753         c3    100    ccc     C4   2753 0.10863300  12.010000   ; qtot 99.879183
 2754         hx    100    ccc     H6   2754 0.12753300   1.008000   ; qtot 100.006716
 2755         c3    100    ccc     C5   2755 -0.20606700  12.010000   ; qtot 99.800649
 2756         hx    100    ccc     H7   2756 0.12753300   1.008000   ; qtot 99.928182
 2757         hc    100    ccc     H8   2757 0.10603300   1.008000   ; qtot 100.034215
 2758         hc    100    ccc     H9   2758 0.10603300   1.008000   ; qtot 100.140248
 2759          c    100    ccc     C6   2759 0.63793300  12.010000   ; qtot 100.778181
 2760         oh    100    ccc     O1   2760 -0.53626700  16.000000   ; qtot 100.241914
 2761          o    100    ccc     O2   2761 -0.48266700  16.000000   ; qtot 99.759247
 2762         hx    100    ccc    H10   2762 0.12753300   1.008000   ; qtot 99.886780
 2763         hx    100    ccc    H11   2763 0.12753300   1.008000   ; qtot 100.014313
 2764         c3    100    ccc     C7   2764 -0.20606700  12.010000   ; qtot 99.808246
 2765         hc    100    ccc    H12   2765 0.10603300   1.008000   ; qtot 99.914279
 2766         hc    100    ccc    H13   2766 0.10603300   1.008000   ; qtot 100.020312
 2767          c    100    ccc     C8   2767 0.63793300  12.010000   ; qtot 100.658245
 2768          o    100    ccc     O3   2768 -0.48266700  16.000000   ; qtot 100.175578
 2769         oh    100    ccc     O4   2769 -0.53626700  16.000000   ; qtot 99.639311
 2770         ho    100    ccc    H14   2770 0.45283300   1.008000   ; qtot 100.092144
 2771         ho    100    ccc    H15   2771 0.45283300   1.008000   ; qtot 100.544977
 2772         hn    100    ccc    H16   2772 0.45463300   1.008000   ; qtot 100.999610
; residue  101 ccc rtp ccc q 1.0
 2773          n    101    ccc     N1   2773 -0.56206700  14.010000   ; qtot 100.437543
 2774         hn    101    ccc     H1   2774 0.35233300   1.008000   ; qtot 100.789876
 2775         c3    101    ccc     C1   2775 0.10283300  12.010000   ; qtot 100.892709
 2776         h1    101    ccc     H2   2776 0.07153300   1.008000   ; qtot 100.964242
 2777         c3    101    ccc     C2   2777 0.07063300  12.010000   ; qtot 101.034875
 2778         h1    101    ccc     H3   2778 0.07153300   1.008000   ; qtot 101.106408
 2779         hx    101    ccc     H4   2779 0.11303300   1.008000   ; qtot 101.219441
 2780         hx    101    ccc     H5   2780 0.11303300   1.008000   ; qtot 101.332474
 2781         n4    101    ccc     N2   2781 -0.67056700  14.010000   ; qtot 100.661907
 2782         c3    101    ccc     C3   2782 0.10863300  12.010000   ; qtot 100.770540
 2783         c3    101    ccc     C4   2783 0.10863300  12.010000   ; qtot 100.879173
 2784         hx    101    ccc     H6   2784 0.12753300   1.008000   ; qtot 101.006706
 2785         c3    101    ccc     C5   2785 -0.20606700  12.010000   ; qtot 100.800639
 2786         hx    101    ccc     H7   2786 0.12753300   1.008000   ; qtot 100.928172
 2787         hc    101    ccc     H8   2787 0.10603300   1.008000   ; qtot 101.034205
 2788         hc    101    ccc     H9   2788 0.10603300   1.008000   ; qtot 101.140238
 2789          c    101    ccc     C6   2789 0.63793300  12.010000   ; qtot 101.778171
 2790         oh    101    ccc     O1   2790 -0.53626700  16.000000   ; qtot 101.241904
 2791          o    101    ccc     O2   2791 -0.48266700  16.000000   ; qtot 100.759237
 2792         hx    101    ccc    H10   2792 0.12753300   1.008000   ; qtot 100.886770
 2793         hx    101    ccc    H11   2793 0.12753300   1.008000   ; qtot 101.014303
 2794         c3    101    ccc     C7   2794 -0.20606700  12.010000   ; qtot 100.808236
 2795         hc    101    ccc    H12   2795 0.10603300   1.008000   ; qtot 100.914269
 2796         hc    101    ccc    H13   2796 0.10603300   1.008000   ; qtot 101.020302
 2797          c    101    ccc     C8   2797 0.63793300  12.010000   ; qtot 101.658235
 2798          o    101    ccc     O3   2798 -0.48266700  16.000000   ; qtot 101.175568
 2799         oh    101    ccc     O4   2799 -0.53626700  16.000000   ; qtot 100.639301
 2800         ho    101    ccc    H14   2800 0.45283300   1.008000   ; qtot 101.092134
 2801         ho    101    ccc    H15   2801 0.45283300   1.008000   ; qtot 101.544967
 2802         hn    101    ccc    H16   2802 0.45463300   1.008000   ; qtot 101.999600
; residue  102 ccc rtp ccc q 1.0
 2803          n    102    ccc     N1   2803 -0.56206700  14.010000   ; qtot 101.437533
 2804         hn    102    ccc     H1   2804 0.35233300   1.008000   ; qtot 101.789866
 2805         c3    102    ccc     C1   2805 0.10283300  12.010000   ; qtot 101.892699
 2806         h1    102    ccc     H2   2806 0.07153300   1.008000   ; qtot 101.964232
 2807         c3    102    ccc     C2   2807 0.07063300  12.010000   ; qtot 102.034865
 2808         h1    102    ccc     H3   2808 0.07153300   1.008000   ; qtot 102.106398
 2809         hx    102    ccc     H4   2809 0.11303300   1.008000   ; qtot 102.219431
 2810         hx    102    ccc     H5   2810 0.11303300   1.008000   ; qtot 102.332464
 2811         n4    102    ccc     N2   2811 -0.67056700  14.010000   ; qtot 101.661897
 2812         c3    102    ccc     C3   2812 0.10863300  12.010000   ; qtot 101.770530
 2813         c3    102    ccc     C4   2813 0.10863300  12.010000   ; qtot 101.879163
 2814         hx    102    ccc     H6   2814 0.12753300   1.008000   ; qtot 102.006696
 2815         c3    102    ccc     C5   2815 -0.20606700  12.010000   ; qtot 101.800629
 2816         hx    102    ccc     H7   2816 0.12753300   1.008000   ; qtot 101.928162
 2817         hc    102    ccc     H8   2817 0.10603300   1.008000   ; qtot 102.034195
 2818         hc    102    ccc     H9   2818 0.10603300   1.008000   ; qtot 102.140228
 2819          c    102    ccc     C6   2819 0.63793300  12.010000   ; qtot 102.778161
 2820         oh    102    ccc     O1   2820 -0.53626700  16.000000   ; qtot 102.241894
 2821          o    102    ccc     O2   2821 -0.48266700  16.000000   ; qtot 101.759227
 2822         hx    102    ccc    H10   2822 0.12753300   1.008000   ; qtot 101.886760
 2823         hx    102    ccc    H11   2823 0.12753300   1.008000   ; qtot 102.014293
 2824         c3    102    ccc     C7   2824 -0.20606700  12.010000   ; qtot 101.808226
 2825         hc    102    ccc    H12   2825 0.10603300   1.008000   ; qtot 101.914259
 2826         hc    102    ccc    H13   2826 0.10603300   1.008000   ; qtot 102.020292
 2827          c    102    ccc     C8   2827 0.63793300  12.010000   ; qtot 102.658225
 2828          o    102    ccc     O3   2828 -0.48266700  16.000000   ; qtot 102.175558
 2829         oh    102    ccc     O4   2829 -0.53626700  16.000000   ; qtot 101.639291
 2830         ho    102    ccc    H14   2830 0.45283300   1.008000   ; qtot 102.092124
 2831         ho    102    ccc    H15   2831 0.45283300   1.008000   ; qtot 102.544957
 2832         hn    102    ccc    H16   2832 0.45463300   1.008000   ; qtot 102.999590
; residue  103 ccc rtp ccc q 1.0
 2833          n    103    ccc     N1   2833 -0.56206700  14.010000   ; qtot 102.437523
 2834         hn    103    ccc     H1   2834 0.35233300   1.008000   ; qtot 102.789856
 2835         c3    103    ccc     C1   2835 0.10283300  12.010000   ; qtot 102.892689
 2836         h1    103    ccc     H2   2836 0.07153300   1.008000   ; qtot 102.964222
 2837         c3    103    ccc     C2   2837 0.07063300  12.010000   ; qtot 103.034855
 2838         h1    103    ccc     H3   2838 0.07153300   1.008000   ; qtot 103.106388
 2839         hx    103    ccc     H4   2839 0.11303300   1.008000   ; qtot 103.219421
 2840         hx    103    ccc     H5   2840 0.11303300   1.008000   ; qtot 103.332454
 2841         n4    103    ccc     N2   2841 -0.67056700  14.010000   ; qtot 102.661887
 2842         c3    103    ccc     C3   2842 0.10863300  12.010000   ; qtot 102.770520
 2843         c3    103    ccc     C4   2843 0.10863300  12.010000   ; qtot 102.879153
 2844         hx    103    ccc     H6   2844 0.12753300   1.008000   ; qtot 103.006686
 2845         c3    103    ccc     C5   2845 -0.20606700  12.010000   ; qtot 102.800619
 2846         hx    103    ccc     H7   2846 0.12753300   1.008000   ; qtot 102.928152
 2847         hc    103    ccc     H8   2847 0.10603300   1.008000   ; qtot 103.034185
 2848         hc    103    ccc     H9   2848 0.10603300   1.008000   ; qtot 103.140218
 2849          c    103    ccc     C6   2849 0.63793300  12.010000   ; qtot 103.778151
 2850         oh    103    ccc     O1   2850 -0.53626700  16.000000   ; qtot 103.241884
 2851          o    103    ccc     O2   2851 -0.48266700  16.000000   ; qtot 102.759217
 2852         hx    103    ccc    H10   2852 0.12753300   1.008000   ; qtot 102.886750
 2853         hx    103    ccc    H11   2853 0.12753300   1.008000   ; qtot 103.014283
 2854         c3    103    ccc     C7   2854 -0.20606700  12.010000   ; qtot 102.808216
 2855         hc    103    ccc    H12   2855 0.10603300   1.008000   ; qtot 102.914249
 2856         hc    103    ccc    H13   2856 0.10603300   1.008000   ; qtot 103.020282
 2857          c    103    ccc     C8   2857 0.63793300  12.010000   ; qtot 103.658215
 2858          o    103    ccc     O3   2858 -0.48266700  16.000000   ; qtot 103.175548
 2859         oh    103    ccc     O4   2859 -0.53626700  16.000000   ; qtot 102.639281
 2860         ho    103    ccc    H14   2860 0.45283300   1.008000   ; qtot 103.092114
 2861         ho    103    ccc    H15   2861 0.45283300   1.008000   ; qtot 103.544947
 2862         hn    103    ccc    H16   2862 0.45463300   1.008000   ; qtot 103.999580
; residue  104 ccc rtp ccc q 1.0
 2863          n    104    ccc     N1   2863 -0.56206700  14.010000   ; qtot 103.437513
 2864         hn    104    ccc     H1   2864 0.35233300   1.008000   ; qtot 103.789846
 2865         c3    104    ccc     C1   2865 0.10283300  12.010000   ; qtot 103.892679
 2866         h1    104    ccc     H2   2866 0.07153300   1.008000   ; qtot 103.964212
 2867         c3    104    ccc     C2   2867 0.07063300  12.010000   ; qtot 104.034845
 2868         h1    104    ccc     H3   2868 0.07153300   1.008000   ; qtot 104.106378
 2869         hx    104    ccc     H4   2869 0.11303300   1.008000   ; qtot 104.219411
 2870         hx    104    ccc     H5   2870 0.11303300   1.008000   ; qtot 104.332444
 2871         n4    104    ccc     N2   2871 -0.67056700  14.010000   ; qtot 103.661877
 2872         c3    104    ccc     C3   2872 0.10863300  12.010000   ; qtot 103.770510
 2873         c3    104    ccc     C4   2873 0.10863300  12.010000   ; qtot 103.879143
 2874         hx    104    ccc     H6   2874 0.12753300   1.008000   ; qtot 104.006676
 2875         c3    104    ccc     C5   2875 -0.20606700  12.010000   ; qtot 103.800609
 2876         hx    104    ccc     H7   2876 0.12753300   1.008000   ; qtot 103.928142
 2877         hc    104    ccc     H8   2877 0.10603300   1.008000   ; qtot 104.034175
 2878         hc    104    ccc     H9   2878 0.10603300   1.008000   ; qtot 104.140208
 2879          c    104    ccc     C6   2879 0.63793300  12.010000   ; qtot 104.778141
 2880         oh    104    ccc     O1   2880 -0.53626700  16.000000   ; qtot 104.241874
 2881          o    104    ccc     O2   2881 -0.48266700  16.000000   ; qtot 103.759207
 2882         hx    104    ccc    H10   2882 0.12753300   1.008000   ; qtot 103.886740
 2883         hx    104    ccc    H11   2883 0.12753300   1.008000   ; qtot 104.014273
 2884         c3    104    ccc     C7   2884 -0.20606700  12.010000   ; qtot 103.808206
 2885         hc    104    ccc    H12   2885 0.10603300   1.008000   ; qtot 103.914239
 2886         hc    104    ccc    H13   2886 0.10603300   1.008000   ; qtot 104.020272
 2887          c    104    ccc     C8   2887 0.63793300  12.010000   ; qtot 104.658205
 2888          o    104    ccc     O3   2888 -0.48266700  16.000000   ; qtot 104.175538
 2889         oh    104    ccc     O4   2889 -0.53626700  16.000000   ; qtot 103.639271
 2890         ho    104    ccc    H14   2890 0.45283300   1.008000   ; qtot 104.092104
 2891         ho    104    ccc    H15   2891 0.45283300   1.008000   ; qtot 104.544937
 2892         hn    104    ccc    H16   2892 0.45463300   1.008000   ; qtot 104.999570
; residue  105 ccc rtp ccc q 1.0
 2893          n    105    ccc     N1   2893 -0.56206700  14.010000   ; qtot 104.437503
 2894         hn    105    ccc     H1   2894 0.35233300   1.008000   ; qtot 104.789836
 2895         c3    105    ccc     C1   2895 0.10283300  12.010000   ; qtot 104.892669
 2896         h1    105    ccc     H2   2896 0.07153300   1.008000   ; qtot 104.964202
 2897         c3    105    ccc     C2   2897 0.07063300  12.010000   ; qtot 105.034835
 2898         h1    105    ccc     H3   2898 0.07153300   1.008000   ; qtot 105.106368
 2899         hx    105    ccc     H4   2899 0.11303300   1.008000   ; qtot 105.219401
 2900         hx    105    ccc     H5   2900 0.11303300   1.008000   ; qtot 105.332434
 2901         n4    105    ccc     N2   2901 -0.67056700  14.010000   ; qtot 104.661867
 2902         c3    105    ccc     C3   2902 0.10863300  12.010000   ; qtot 104.770500
 2903         c3    105    ccc     C4   2903 0.10863300  12.010000   ; qtot 104.879133
 2904         hx    105    ccc     H6   2904 0.12753300   1.008000   ; qtot 105.006666
 2905         c3    105    ccc     C5   2905 -0.20606700  12.010000   ; qtot 104.800599
 2906         hx    105    ccc     H7   2906 0.12753300   1.008000   ; qtot 104.928132
 2907         hc    105    ccc     H8   2907 0.10603300   1.008000   ; qtot 105.034165
 2908         hc    105    ccc     H9   2908 0.10603300   1.008000   ; qtot 105.140198
 2909          c    105    ccc     C6   2909 0.63793300  12.010000   ; qtot 105.778131
 2910         oh    105    ccc     O1   2910 -0.53626700  16.000000   ; qtot 105.241864
 2911          o    105    ccc     O2   2911 -0.48266700  16.000000   ; qtot 104.759197
 2912         hx    105    ccc    H10   2912 0.12753300   1.008000   ; qtot 104.886730
 2913         hx    105    ccc    H11   2913 0.12753300   1.008000   ; qtot 105.014263
 2914         c3    105    ccc     C7   2914 -0.20606700  12.010000   ; qtot 104.808196
 2915         hc    105    ccc    H12   2915 0.10603300   1.008000   ; qtot 104.914229
 2916         hc    105    ccc    H13   2916 0.10603300   1.008000   ; qtot 105.020262
 2917          c    105    ccc     C8   2917 0.63793300  12.010000   ; qtot 105.658195
 2918          o    105    ccc     O3   2918 -0.48266700  16.000000   ; qtot 105.175528
 2919         oh    105    ccc     O4   2919 -0.53626700  16.000000   ; qtot 104.639261
 2920         ho    105    ccc    H14   2920 0.45283300   1.008000   ; qtot 105.092094
 2921         ho    105    ccc    H15   2921 0.45283300   1.008000   ; qtot 105.544927
 2922         hn    105    ccc    H16   2922 0.45463300   1.008000   ; qtot 105.999560
; residue  106 ccc rtp ccc q 1.0
 2923          n    106    ccc     N1   2923 -0.56206700  14.010000   ; qtot 105.437493
 2924         hn    106    ccc     H1   2924 0.35233300   1.008000   ; qtot 105.789826
 2925         c3    106    ccc     C1   2925 0.10283300  12.010000   ; qtot 105.892659
 2926         h1    106    ccc     H2   2926 0.07153300   1.008000   ; qtot 105.964192
 2927         c3    106    ccc     C2   2927 0.07063300  12.010000   ; qtot 106.034825
 2928         h1    106    ccc     H3   2928 0.07153300   1.008000   ; qtot 106.106358
 2929         hx    106    ccc     H4   2929 0.11303300   1.008000   ; qtot 106.219391
 2930         hx    106    ccc     H5   2930 0.11303300   1.008000   ; qtot 106.332424
 2931         n4    106    ccc     N2   2931 -0.67056700  14.010000   ; qtot 105.661857
 2932         c3    106    ccc     C3   2932 0.10863300  12.010000   ; qtot 105.770490
 2933         c3    106    ccc     C4   2933 0.10863300  12.010000   ; qtot 105.879123
 2934         hx    106    ccc     H6   2934 0.12753300   1.008000   ; qtot 106.006656
 2935         c3    106    ccc     C5   2935 -0.20606700  12.010000   ; qtot 105.800589
 2936         hx    106    ccc     H7   2936 0.12753300   1.008000   ; qtot 105.928122
 2937         hc    106    ccc     H8   2937 0.10603300   1.008000   ; qtot 106.034155
 2938         hc    106    ccc     H9   2938 0.10603300   1.008000   ; qtot 106.140188
 2939          c    106    ccc     C6   2939 0.63793300  12.010000   ; qtot 106.778121
 2940         oh    106    ccc     O1   2940 -0.53626700  16.000000   ; qtot 106.241854
 2941          o    106    ccc     O2   2941 -0.48266700  16.000000   ; qtot 105.759187
 2942         hx    106    ccc    H10   2942 0.12753300   1.008000   ; qtot 105.886720
 2943         hx    106    ccc    H11   2943 0.12753300   1.008000   ; qtot 106.014253
 2944         c3    106    ccc     C7   2944 -0.20606700  12.010000   ; qtot 105.808186
 2945         hc    106    ccc    H12   2945 0.10603300   1.008000   ; qtot 105.914219
 2946         hc    106    ccc    H13   2946 0.10603300   1.008000   ; qtot 106.020252
 2947          c    106    ccc     C8   2947 0.63793300  12.010000   ; qtot 106.658185
 2948          o    106    ccc     O3   2948 -0.48266700  16.000000   ; qtot 106.175518
 2949         oh    106    ccc     O4   2949 -0.53626700  16.000000   ; qtot 105.639251
 2950         ho    106    ccc    H14   2950 0.45283300   1.008000   ; qtot 106.092084
 2951         ho    106    ccc    H15   2951 0.45283300   1.008000   ; qtot 106.544917
 2952         hn    106    ccc    H16   2952 0.45463300   1.008000   ; qtot 106.999550
; residue  107 ccc rtp ccc q 1.0
 2953          n    107    ccc     N1   2953 -0.56206700  14.010000   ; qtot 106.437483
 2954         hn    107    ccc     H1   2954 0.35233300   1.008000   ; qtot 106.789816
 2955         c3    107    ccc     C1   2955 0.10283300  12.010000   ; qtot 106.892649
 2956         h1    107    ccc     H2   2956 0.07153300   1.008000   ; qtot 106.964182
 2957         c3    107    ccc     C2   2957 0.07063300  12.010000   ; qtot 107.034815
 2958         h1    107    ccc     H3   2958 0.07153300   1.008000   ; qtot 107.106348
 2959         hx    107    ccc     H4   2959 0.11303300   1.008000   ; qtot 107.219381
 2960         hx    107    ccc     H5   2960 0.11303300   1.008000   ; qtot 107.332414
 2961         n4    107    ccc     N2   2961 -0.67056700  14.010000   ; qtot 106.661847
 2962         c3    107    ccc     C3   2962 0.10863300  12.010000   ; qtot 106.770480
 2963         c3    107    ccc     C4   2963 0.10863300  12.010000   ; qtot 106.879113
 2964         hx    107    ccc     H6   2964 0.12753300   1.008000   ; qtot 107.006646
 2965         c3    107    ccc     C5   2965 -0.20606700  12.010000   ; qtot 106.800579
 2966         hx    107    ccc     H7   2966 0.12753300   1.008000   ; qtot 106.928112
 2967         hc    107    ccc     H8   2967 0.10603300   1.008000   ; qtot 107.034145
 2968         hc    107    ccc     H9   2968 0.10603300   1.008000   ; qtot 107.140178
 2969          c    107    ccc     C6   2969 0.63793300  12.010000   ; qtot 107.778111
 2970         oh    107    ccc     O1   2970 -0.53626700  16.000000   ; qtot 107.241844
 2971          o    107    ccc     O2   2971 -0.48266700  16.000000   ; qtot 106.759177
 2972         hx    107    ccc    H10   2972 0.12753300   1.008000   ; qtot 106.886710
 2973         hx    107    ccc    H11   2973 0.12753300   1.008000   ; qtot 107.014243
 2974         c3    107    ccc     C7   2974 -0.20606700  12.010000   ; qtot 106.808176
 2975         hc    107    ccc    H12   2975 0.10603300   1.008000   ; qtot 106.914209
 2976         hc    107    ccc    H13   2976 0.10603300   1.008000   ; qtot 107.020242
 2977          c    107    ccc     C8   2977 0.63793300  12.010000   ; qtot 107.658175
 2978          o    107    ccc     O3   2978 -0.48266700  16.000000   ; qtot 107.175508
 2979         oh    107    ccc     O4   2979 -0.53626700  16.000000   ; qtot 106.639241
 2980         ho    107    ccc    H14   2980 0.45283300   1.008000   ; qtot 107.092074
 2981         ho    107    ccc    H15   2981 0.45283300   1.008000   ; qtot 107.544907
 2982         hn    107    ccc    H16   2982 0.45463300   1.008000   ; qtot 107.999540
; residue  108 ccc rtp ccc q 1.0
 2983          n    108    ccc     N1   2983 -0.56206700  14.010000   ; qtot 107.437473
 2984         hn    108    ccc     H1   2984 0.35233300   1.008000   ; qtot 107.789806
 2985         c3    108    ccc     C1   2985 0.10283300  12.010000   ; qtot 107.892639
 2986         h1    108    ccc     H2   2986 0.07153300   1.008000   ; qtot 107.964172
 2987         c3    108    ccc     C2   2987 0.07063300  12.010000   ; qtot 108.034805
 2988         h1    108    ccc     H3   2988 0.07153300   1.008000   ; qtot 108.106338
 2989         hx    108    ccc     H4   2989 0.11303300   1.008000   ; qtot 108.219371
 2990         hx    108    ccc     H5   2990 0.11303300   1.008000   ; qtot 108.332404
 2991         n4    108    ccc     N2   2991 -0.67056700  14.010000   ; qtot 107.661837
 2992         c3    108    ccc     C3   2992 0.10863300  12.010000   ; qtot 107.770470
 2993         c3    108    ccc     C4   2993 0.10863300  12.010000   ; qtot 107.879103
 2994         hx    108    ccc     H6   2994 0.12753300   1.008000   ; qtot 108.006636
 2995         c3    108    ccc     C5   2995 -0.20606700  12.010000   ; qtot 107.800569
 2996         hx    108    ccc     H7   2996 0.12753300   1.008000   ; qtot 107.928102
 2997         hc    108    ccc     H8   2997 0.10603300   1.008000   ; qtot 108.034135
 2998         hc    108    ccc     H9   2998 0.10603300   1.008000   ; qtot 108.140168
 2999          c    108    ccc     C6   2999 0.63793300  12.010000   ; qtot 108.778101
 3000         oh    108    ccc     O1   3000 -0.53626700  16.000000   ; qtot 108.241834
 3001          o    108    ccc     O2   3001 -0.48266700  16.000000   ; qtot 107.759167
 3002         hx    108    ccc    H10   3002 0.12753300   1.008000   ; qtot 107.886700
 3003         hx    108    ccc    H11   3003 0.12753300   1.008000   ; qtot 108.014233
 3004         c3    108    ccc     C7   3004 -0.20606700  12.010000   ; qtot 107.808166
 3005         hc    108    ccc    H12   3005 0.10603300   1.008000   ; qtot 107.914199
 3006         hc    108    ccc    H13   3006 0.10603300   1.008000   ; qtot 108.020232
 3007          c    108    ccc     C8   3007 0.63793300  12.010000   ; qtot 108.658165
 3008          o    108    ccc     O3   3008 -0.48266700  16.000000   ; qtot 108.175498
 3009         oh    108    ccc     O4   3009 -0.53626700  16.000000   ; qtot 107.639231
 3010         ho    108    ccc    H14   3010 0.45283300   1.008000   ; qtot 108.092064
 3011         ho    108    ccc    H15   3011 0.45283300   1.008000   ; qtot 108.544897
 3012         hn    108    ccc    H16   3012 0.45463300   1.008000   ; qtot 108.999530
; residue  109 ccc rtp ccc q 1.0
 3013          n    109    ccc     N1   3013 -0.56206700  14.010000   ; qtot 108.437463
 3014         hn    109    ccc     H1   3014 0.35233300   1.008000   ; qtot 108.789796
 3015         c3    109    ccc     C1   3015 0.10283300  12.010000   ; qtot 108.892629
 3016         h1    109    ccc     H2   3016 0.07153300   1.008000   ; qtot 108.964162
 3017         c3    109    ccc     C2   3017 0.07063300  12.010000   ; qtot 109.034795
 3018         h1    109    ccc     H3   3018 0.07153300   1.008000   ; qtot 109.106328
 3019         hx    109    ccc     H4   3019 0.11303300   1.008000   ; qtot 109.219361
 3020         hx    109    ccc     H5   3020 0.11303300   1.008000   ; qtot 109.332394
 3021         n4    109    ccc     N2   3021 -0.67056700  14.010000   ; qtot 108.661827
 3022         c3    109    ccc     C3   3022 0.10863300  12.010000   ; qtot 108.770460
 3023         c3    109    ccc     C4   3023 0.10863300  12.010000   ; qtot 108.879093
 3024         hx    109    ccc     H6   3024 0.12753300   1.008000   ; qtot 109.006626
 3025         c3    109    ccc     C5   3025 -0.20606700  12.010000   ; qtot 108.800559
 3026         hx    109    ccc     H7   3026 0.12753300   1.008000   ; qtot 108.928092
 3027         hc    109    ccc     H8   3027 0.10603300   1.008000   ; qtot 109.034125
 3028         hc    109    ccc     H9   3028 0.10603300   1.008000   ; qtot 109.140158
 3029          c    109    ccc     C6   3029 0.63793300  12.010000   ; qtot 109.778091
 3030         oh    109    ccc     O1   3030 -0.53626700  16.000000   ; qtot 109.241824
 3031          o    109    ccc     O2   3031 -0.48266700  16.000000   ; qtot 108.759157
 3032         hx    109    ccc    H10   3032 0.12753300   1.008000   ; qtot 108.886690
 3033         hx    109    ccc    H11   3033 0.12753300   1.008000   ; qtot 109.014223
 3034         c3    109    ccc     C7   3034 -0.20606700  12.010000   ; qtot 108.808156
 3035         hc    109    ccc    H12   3035 0.10603300   1.008000   ; qtot 108.914189
 3036         hc    109    ccc    H13   3036 0.10603300   1.008000   ; qtot 109.020222
 3037          c    109    ccc     C8   3037 0.63793300  12.010000   ; qtot 109.658155
 3038          o    109    ccc     O3   3038 -0.48266700  16.000000   ; qtot 109.175488
 3039         oh    109    ccc     O4   3039 -0.53626700  16.000000   ; qtot 108.639221
 3040         ho    109    ccc    H14   3040 0.45283300   1.008000   ; qtot 109.092054
 3041         ho    109    ccc    H15   3041 0.45283300   1.008000   ; qtot 109.544887
 3042         hn    109    ccc    H16   3042 0.45463300   1.008000   ; qtot 109.999520
; residue  110 ccc rtp ccc q 1.0
 3043          n    110    ccc     N1   3043 -0.56206700  14.010000   ; qtot 109.437453
 3044         hn    110    ccc     H1   3044 0.35233300   1.008000   ; qtot 109.789786
 3045         c3    110    ccc     C1   3045 0.10283300  12.010000   ; qtot 109.892619
 3046         h1    110    ccc     H2   3046 0.07153300   1.008000   ; qtot 109.964152
 3047         c3    110    ccc     C2   3047 0.07063300  12.010000   ; qtot 110.034785
 3048         h1    110    ccc     H3   3048 0.07153300   1.008000   ; qtot 110.106318
 3049         hx    110    ccc     H4   3049 0.11303300   1.008000   ; qtot 110.219351
 3050         hx    110    ccc     H5   3050 0.11303300   1.008000   ; qtot 110.332384
 3051         n4    110    ccc     N2   3051 -0.67056700  14.010000   ; qtot 109.661817
 3052         c3    110    ccc     C3   3052 0.10863300  12.010000   ; qtot 109.770450
 3053         c3    110    ccc     C4   3053 0.10863300  12.010000   ; qtot 109.879083
 3054         hx    110    ccc     H6   3054 0.12753300   1.008000   ; qtot 110.006616
 3055         c3    110    ccc     C5   3055 -0.20606700  12.010000   ; qtot 109.800549
 3056         hx    110    ccc     H7   3056 0.12753300   1.008000   ; qtot 109.928082
 3057         hc    110    ccc     H8   3057 0.10603300   1.008000   ; qtot 110.034115
 3058         hc    110    ccc     H9   3058 0.10603300   1.008000   ; qtot 110.140148
 3059          c    110    ccc     C6   3059 0.63793300  12.010000   ; qtot 110.778081
 3060         oh    110    ccc     O1   3060 -0.53626700  16.000000   ; qtot 110.241814
 3061          o    110    ccc     O2   3061 -0.48266700  16.000000   ; qtot 109.759147
 3062         hx    110    ccc    H10   3062 0.12753300   1.008000   ; qtot 109.886680
 3063         hx    110    ccc    H11   3063 0.12753300   1.008000   ; qtot 110.014213
 3064         c3    110    ccc     C7   3064 -0.20606700  12.010000   ; qtot 109.808146
 3065         hc    110    ccc    H12   3065 0.10603300   1.008000   ; qtot 109.914179
 3066         hc    110    ccc    H13   3066 0.10603300   1.008000   ; qtot 110.020212
 3067          c    110    ccc     C8   3067 0.63793300  12.010000   ; qtot 110.658145
 3068          o    110    ccc     O3   3068 -0.48266700  16.000000   ; qtot 110.175478
 3069         oh    110    ccc     O4   3069 -0.53626700  16.000000   ; qtot 109.639211
 3070         ho    110    ccc    H14   3070 0.45283300   1.008000   ; qtot 110.092044
 3071         ho    110    ccc    H15   3071 0.45283300   1.008000   ; qtot 110.544877
 3072         hn    110    ccc    H16   3072 0.45463300   1.008000   ; qtot 110.999510
; residue  111 ccc rtp ccc q 1.0
 3073          n    111    ccc     N1   3073 -0.56206700  14.010000   ; qtot 110.437443
 3074         hn    111    ccc     H1   3074 0.35233300   1.008000   ; qtot 110.789776
 3075         c3    111    ccc     C1   3075 0.10283300  12.010000   ; qtot 110.892609
 3076         h1    111    ccc     H2   3076 0.07153300   1.008000   ; qtot 110.964142
 3077         c3    111    ccc     C2   3077 0.07063300  12.010000   ; qtot 111.034775
 3078         h1    111    ccc     H3   3078 0.07153300   1.008000   ; qtot 111.106308
 3079         hx    111    ccc     H4   3079 0.11303300   1.008000   ; qtot 111.219341
 3080         hx    111    ccc     H5   3080 0.11303300   1.008000   ; qtot 111.332374
 3081         n4    111    ccc     N2   3081 -0.67056700  14.010000   ; qtot 110.661807
 3082         c3    111    ccc     C3   3082 0.10863300  12.010000   ; qtot 110.770440
 3083         c3    111    ccc     C4   3083 0.10863300  12.010000   ; qtot 110.879073
 3084         hx    111    ccc     H6   3084 0.12753300   1.008000   ; qtot 111.006606
 3085         c3    111    ccc     C5   3085 -0.20606700  12.010000   ; qtot 110.800539
 3086         hx    111    ccc     H7   3086 0.12753300   1.008000   ; qtot 110.928072
 3087         hc    111    ccc     H8   3087 0.10603300   1.008000   ; qtot 111.034105
 3088         hc    111    ccc     H9   3088 0.10603300   1.008000   ; qtot 111.140138
 3089          c    111    ccc     C6   3089 0.63793300  12.010000   ; qtot 111.778071
 3090         oh    111    ccc     O1   3090 -0.53626700  16.000000   ; qtot 111.241804
 3091          o    111    ccc     O2   3091 -0.48266700  16.000000   ; qtot 110.759137
 3092         hx    111    ccc    H10   3092 0.12753300   1.008000   ; qtot 110.886670
 3093         hx    111    ccc    H11   3093 0.12753300   1.008000   ; qtot 111.014203
 3094         c3    111    ccc     C7   3094 -0.20606700  12.010000   ; qtot 110.808136
 3095         hc    111    ccc    H12   3095 0.10603300   1.008000   ; qtot 110.914169
 3096         hc    111    ccc    H13   3096 0.10603300   1.008000   ; qtot 111.020202
 3097          c    111    ccc     C8   3097 0.63793300  12.010000   ; qtot 111.658135
 3098          o    111    ccc     O3   3098 -0.48266700  16.000000   ; qtot 111.175468
 3099         oh    111    ccc     O4   3099 -0.53626700  16.000000   ; qtot 110.639201
 3100         ho    111    ccc    H14   3100 0.45283300   1.008000   ; qtot 111.092034
 3101         ho    111    ccc    H15   3101 0.45283300   1.008000   ; qtot 111.544867
 3102         hn    111    ccc    H16   3102 0.45463300   1.008000   ; qtot 111.999500
; residue  112 ccc rtp ccc q 1.0
 3103          n    112    ccc     N1   3103 -0.56206700  14.010000   ; qtot 111.437433
 3104         hn    112    ccc     H1   3104 0.35233300   1.008000   ; qtot 111.789766
 3105         c3    112    ccc     C1   3105 0.10283300  12.010000   ; qtot 111.892599
 3106         h1    112    ccc     H2   3106 0.07153300   1.008000   ; qtot 111.964132
 3107         c3    112    ccc     C2   3107 0.07063300  12.010000   ; qtot 112.034765
 3108         h1    112    ccc     H3   3108 0.07153300   1.008000   ; qtot 112.106298
 3109         hx    112    ccc     H4   3109 0.11303300   1.008000   ; qtot 112.219331
 3110         hx    112    ccc     H5   3110 0.11303300   1.008000   ; qtot 112.332364
 3111         n4    112    ccc     N2   3111 -0.67056700  14.010000   ; qtot 111.661797
 3112         c3    112    ccc     C3   3112 0.10863300  12.010000   ; qtot 111.770430
 3113         c3    112    ccc     C4   3113 0.10863300  12.010000   ; qtot 111.879063
 3114         hx    112    ccc     H6   3114 0.12753300   1.008000   ; qtot 112.006596
 3115         c3    112    ccc     C5   3115 -0.20606700  12.010000   ; qtot 111.800529
 3116         hx    112    ccc     H7   3116 0.12753300   1.008000   ; qtot 111.928062
 3117         hc    112    ccc     H8   3117 0.10603300   1.008000   ; qtot 112.034095
 3118         hc    112    ccc     H9   3118 0.10603300   1.008000   ; qtot 112.140128
 3119          c    112    ccc     C6   3119 0.63793300  12.010000   ; qtot 112.778061
 3120         oh    112    ccc     O1   3120 -0.53626700  16.000000   ; qtot 112.241794
 3121          o    112    ccc     O2   3121 -0.48266700  16.000000   ; qtot 111.759127
 3122         hx    112    ccc    H10   3122 0.12753300   1.008000   ; qtot 111.886660
 3123         hx    112    ccc    H11   3123 0.12753300   1.008000   ; qtot 112.014193
 3124         c3    112    ccc     C7   3124 -0.20606700  12.010000   ; qtot 111.808126
 3125         hc    112    ccc    H12   3125 0.10603300   1.008000   ; qtot 111.914159
 3126         hc    112    ccc    H13   3126 0.10603300   1.008000   ; qtot 112.020192
 3127          c    112    ccc     C8   3127 0.63793300  12.010000   ; qtot 112.658125
 3128          o    112    ccc     O3   3128 -0.48266700  16.000000   ; qtot 112.175458
 3129         oh    112    ccc     O4   3129 -0.53626700  16.000000   ; qtot 111.639191
 3130         ho    112    ccc    H14   3130 0.45283300   1.008000   ; qtot 112.092024
 3131         ho    112    ccc    H15   3131 0.45283300   1.008000   ; qtot 112.544857
 3132         hn    112    ccc    H16   3132 0.45463300   1.008000   ; qtot 112.999490
; residue  113 ccc rtp ccc q 1.0
 3133          n    113    ccc     N1   3133 -0.56206700  14.010000   ; qtot 112.437423
 3134         hn    113    ccc     H1   3134 0.35233300   1.008000   ; qtot 112.789756
 3135         c3    113    ccc     C1   3135 0.10283300  12.010000   ; qtot 112.892589
 3136         h1    113    ccc     H2   3136 0.07153300   1.008000   ; qtot 112.964122
 3137         c3    113    ccc     C2   3137 0.07063300  12.010000   ; qtot 113.034755
 3138         h1    113    ccc     H3   3138 0.07153300   1.008000   ; qtot 113.106288
 3139         hx    113    ccc     H4   3139 0.11303300   1.008000   ; qtot 113.219321
 3140         hx    113    ccc     H5   3140 0.11303300   1.008000   ; qtot 113.332354
 3141         n4    113    ccc     N2   3141 -0.67056700  14.010000   ; qtot 112.661787
 3142         c3    113    ccc     C3   3142 0.10863300  12.010000   ; qtot 112.770420
 3143         c3    113    ccc     C4   3143 0.10863300  12.010000   ; qtot 112.879053
 3144         hx    113    ccc     H6   3144 0.12753300   1.008000   ; qtot 113.006586
 3145         c3    113    ccc     C5   3145 -0.20606700  12.010000   ; qtot 112.800519
 3146         hx    113    ccc     H7   3146 0.12753300   1.008000   ; qtot 112.928052
 3147         hc    113    ccc     H8   3147 0.10603300   1.008000   ; qtot 113.034085
 3148         hc    113    ccc     H9   3148 0.10603300   1.008000   ; qtot 113.140118
 3149          c    113    ccc     C6   3149 0.63793300  12.010000   ; qtot 113.778051
 3150         oh    113    ccc     O1   3150 -0.53626700  16.000000   ; qtot 113.241784
 3151          o    113    ccc     O2   3151 -0.48266700  16.000000   ; qtot 112.759117
 3152         hx    113    ccc    H10   3152 0.12753300   1.008000   ; qtot 112.886650
 3153         hx    113    ccc    H11   3153 0.12753300   1.008000   ; qtot 113.014183
 3154         c3    113    ccc     C7   3154 -0.20606700  12.010000   ; qtot 112.808116
 3155         hc    113    ccc    H12   3155 0.10603300   1.008000   ; qtot 112.914149
 3156         hc    113    ccc    H13   3156 0.10603300   1.008000   ; qtot 113.020182
 3157          c    113    ccc     C8   3157 0.63793300  12.010000   ; qtot 113.658115
 3158          o    113    ccc     O3   3158 -0.48266700  16.000000   ; qtot 113.175448
 3159         oh    113    ccc     O4   3159 -0.53626700  16.000000   ; qtot 112.639181
 3160         ho    113    ccc    H14   3160 0.45283300   1.008000   ; qtot 113.092014
 3161         ho    113    ccc    H15   3161 0.45283300   1.008000   ; qtot 113.544847
 3162         hn    113    ccc    H16   3162 0.45463300   1.008000   ; qtot 113.999480
; residue  114 ccc rtp ccc q 1.0
 3163          n    114    ccc     N1   3163 -0.56206700  14.010000   ; qtot 113.437413
 3164         hn    114    ccc     H1   3164 0.35233300   1.008000   ; qtot 113.789746
 3165         c3    114    ccc     C1   3165 0.10283300  12.010000   ; qtot 113.892579
 3166         h1    114    ccc     H2   3166 0.07153300   1.008000   ; qtot 113.964112
 3167         c3    114    ccc     C2   3167 0.07063300  12.010000   ; qtot 114.034745
 3168         h1    114    ccc     H3   3168 0.07153300   1.008000   ; qtot 114.106278
 3169         hx    114    ccc     H4   3169 0.11303300   1.008000   ; qtot 114.219311
 3170         hx    114    ccc     H5   3170 0.11303300   1.008000   ; qtot 114.332344
 3171         n4    114    ccc     N2   3171 -0.67056700  14.010000   ; qtot 113.661777
 3172         c3    114    ccc     C3   3172 0.10863300  12.010000   ; qtot 113.770410
 3173         c3    114    ccc     C4   3173 0.10863300  12.010000   ; qtot 113.879043
 3174         hx    114    ccc     H6   3174 0.12753300   1.008000   ; qtot 114.006576
 3175         c3    114    ccc     C5   3175 -0.20606700  12.010000   ; qtot 113.800509
 3176         hx    114    ccc     H7   3176 0.12753300   1.008000   ; qtot 113.928042
 3177         hc    114    ccc     H8   3177 0.10603300   1.008000   ; qtot 114.034075
 3178         hc    114    ccc     H9   3178 0.10603300   1.008000   ; qtot 114.140108
 3179          c    114    ccc     C6   3179 0.63793300  12.010000   ; qtot 114.778041
 3180         oh    114    ccc     O1   3180 -0.53626700  16.000000   ; qtot 114.241774
 3181          o    114    ccc     O2   3181 -0.48266700  16.000000   ; qtot 113.759107
 3182         hx    114    ccc    H10   3182 0.12753300   1.008000   ; qtot 113.886640
 3183         hx    114    ccc    H11   3183 0.12753300   1.008000   ; qtot 114.014173
 3184         c3    114    ccc     C7   3184 -0.20606700  12.010000   ; qtot 113.808106
 3185         hc    114    ccc    H12   3185 0.10603300   1.008000   ; qtot 113.914139
 3186         hc    114    ccc    H13   3186 0.10603300   1.008000   ; qtot 114.020172
 3187          c    114    ccc     C8   3187 0.63793300  12.010000   ; qtot 114.658105
 3188          o    114    ccc     O3   3188 -0.48266700  16.000000   ; qtot 114.175438
 3189         oh    114    ccc     O4   3189 -0.53626700  16.000000   ; qtot 113.639171
 3190         ho    114    ccc    H14   3190 0.45283300   1.008000   ; qtot 114.092004
 3191         ho    114    ccc    H15   3191 0.45283300   1.008000   ; qtot 114.544837
 3192         hn    114    ccc    H16   3192 0.45463300   1.008000   ; qtot 114.999470
; residue  115 ccc rtp ccc q 1.0
 3193          n    115    ccc     N1   3193 -0.56206700  14.010000   ; qtot 114.437403
 3194         hn    115    ccc     H1   3194 0.35233300   1.008000   ; qtot 114.789736
 3195         c3    115    ccc     C1   3195 0.10283300  12.010000   ; qtot 114.892569
 3196         h1    115    ccc     H2   3196 0.07153300   1.008000   ; qtot 114.964102
 3197         c3    115    ccc     C2   3197 0.07063300  12.010000   ; qtot 115.034735
 3198         h1    115    ccc     H3   3198 0.07153300   1.008000   ; qtot 115.106268
 3199         hx    115    ccc     H4   3199 0.11303300   1.008000   ; qtot 115.219301
 3200         hx    115    ccc     H5   3200 0.11303300   1.008000   ; qtot 115.332334
 3201         n4    115    ccc     N2   3201 -0.67056700  14.010000   ; qtot 114.661767
 3202         c3    115    ccc     C3   3202 0.10863300  12.010000   ; qtot 114.770400
 3203         c3    115    ccc     C4   3203 0.10863300  12.010000   ; qtot 114.879033
 3204         hx    115    ccc     H6   3204 0.12753300   1.008000   ; qtot 115.006566
 3205         c3    115    ccc     C5   3205 -0.20606700  12.010000   ; qtot 114.800499
 3206         hx    115    ccc     H7   3206 0.12753300   1.008000   ; qtot 114.928032
 3207         hc    115    ccc     H8   3207 0.10603300   1.008000   ; qtot 115.034065
 3208         hc    115    ccc     H9   3208 0.10603300   1.008000   ; qtot 115.140098
 3209          c    115    ccc     C6   3209 0.63793300  12.010000   ; qtot 115.778031
 3210         oh    115    ccc     O1   3210 -0.53626700  16.000000   ; qtot 115.241764
 3211          o    115    ccc     O2   3211 -0.48266700  16.000000   ; qtot 114.759097
 3212         hx    115    ccc    H10   3212 0.12753300   1.008000   ; qtot 114.886630
 3213         hx    115    ccc    H11   3213 0.12753300   1.008000   ; qtot 115.014163
 3214         c3    115    ccc     C7   3214 -0.20606700  12.010000   ; qtot 114.808096
 3215         hc    115    ccc    H12   3215 0.10603300   1.008000   ; qtot 114.914129
 3216         hc    115    ccc    H13   3216 0.10603300   1.008000   ; qtot 115.020162
 3217          c    115    ccc     C8   3217 0.63793300  12.010000   ; qtot 115.658095
 3218          o    115    ccc     O3   3218 -0.48266700  16.000000   ; qtot 115.175428
 3219         oh    115    ccc     O4   3219 -0.53626700  16.000000   ; qtot 114.639161
 3220         ho    115    ccc    H14   3220 0.45283300   1.008000   ; qtot 115.091994
 3221         ho    115    ccc    H15   3221 0.45283300   1.008000   ; qtot 115.544827
 3222         hn    115    ccc    H16   3222 0.45463300   1.008000   ; qtot 115.999460
; residue  116 ccc rtp ccc q 1.0
 3223          n    116    ccc     N1   3223 -0.56206700  14.010000   ; qtot 115.437393
 3224         hn    116    ccc     H1   3224 0.35233300   1.008000   ; qtot 115.789726
 3225         c3    116    ccc     C1   3225 0.10283300  12.010000   ; qtot 115.892559
 3226         h1    116    ccc     H2   3226 0.07153300   1.008000   ; qtot 115.964092
 3227         c3    116    ccc     C2   3227 0.07063300  12.010000   ; qtot 116.034725
 3228         h1    116    ccc     H3   3228 0.07153300   1.008000   ; qtot 116.106258
 3229         hx    116    ccc     H4   3229 0.11303300   1.008000   ; qtot 116.219291
 3230         hx    116    ccc     H5   3230 0.11303300   1.008000   ; qtot 116.332324
 3231         n4    116    ccc     N2   3231 -0.67056700  14.010000   ; qtot 115.661757
 3232         c3    116    ccc     C3   3232 0.10863300  12.010000   ; qtot 115.770390
 3233         c3    116    ccc     C4   3233 0.10863300  12.010000   ; qtot 115.879023
 3234         hx    116    ccc     H6   3234 0.12753300   1.008000   ; qtot 116.006556
 3235         c3    116    ccc     C5   3235 -0.20606700  12.010000   ; qtot 115.800489
 3236         hx    116    ccc     H7   3236 0.12753300   1.008000   ; qtot 115.928022
 3237         hc    116    ccc     H8   3237 0.10603300   1.008000   ; qtot 116.034055
 3238         hc    116    ccc     H9   3238 0.10603300   1.008000   ; qtot 116.140088
 3239          c    116    ccc     C6   3239 0.63793300  12.010000   ; qtot 116.778021
 3240         oh    116    ccc     O1   3240 -0.53626700  16.000000   ; qtot 116.241754
 3241          o    116    ccc     O2   3241 -0.48266700  16.000000   ; qtot 115.759087
 3242         hx    116    ccc    H10   3242 0.12753300   1.008000   ; qtot 115.886620
 3243         hx    116    ccc    H11   3243 0.12753300   1.008000   ; qtot 116.014153
 3244         c3    116    ccc     C7   3244 -0.20606700  12.010000   ; qtot 115.808086
 3245         hc    116    ccc    H12   3245 0.10603300   1.008000   ; qtot 115.914119
 3246         hc    116    ccc    H13   3246 0.10603300   1.008000   ; qtot 116.020152
 3247          c    116    ccc     C8   3247 0.63793300  12.010000   ; qtot 116.658085
 3248          o    116    ccc     O3   3248 -0.48266700  16.000000   ; qtot 116.175418
 3249         oh    116    ccc     O4   3249 -0.53626700  16.000000   ; qtot 115.639151
 3250         ho    116    ccc    H14   3250 0.45283300   1.008000   ; qtot 116.091984
 3251         ho    116    ccc    H15   3251 0.45283300   1.008000   ; qtot 116.544817
 3252         hn    116    ccc    H16   3252 0.45463300   1.008000   ; qtot 116.999450
; residue  117 ccc rtp ccc q 1.0
 3253          n    117    ccc     N1   3253 -0.56206700  14.010000   ; qtot 116.437383
 3254         hn    117    ccc     H1   3254 0.35233300   1.008000   ; qtot 116.789716
 3255         c3    117    ccc     C1   3255 0.10283300  12.010000   ; qtot 116.892549
 3256         h1    117    ccc     H2   3256 0.07153300   1.008000   ; qtot 116.964082
 3257         c3    117    ccc     C2   3257 0.07063300  12.010000   ; qtot 117.034715
 3258         h1    117    ccc     H3   3258 0.07153300   1.008000   ; qtot 117.106248
 3259         hx    117    ccc     H4   3259 0.11303300   1.008000   ; qtot 117.219281
 3260         hx    117    ccc     H5   3260 0.11303300   1.008000   ; qtot 117.332314
 3261         n4    117    ccc     N2   3261 -0.67056700  14.010000   ; qtot 116.661747
 3262         c3    117    ccc     C3   3262 0.10863300  12.010000   ; qtot 116.770380
 3263         c3    117    ccc     C4   3263 0.10863300  12.010000   ; qtot 116.879013
 3264         hx    117    ccc     H6   3264 0.12753300   1.008000   ; qtot 117.006546
 3265         c3    117    ccc     C5   3265 -0.20606700  12.010000   ; qtot 116.800479
 3266         hx    117    ccc     H7   3266 0.12753300   1.008000   ; qtot 116.928012
 3267         hc    117    ccc     H8   3267 0.10603300   1.008000   ; qtot 117.034045
 3268         hc    117    ccc     H9   3268 0.10603300   1.008000   ; qtot 117.140078
 3269          c    117    ccc     C6   3269 0.63793300  12.010000   ; qtot 117.778011
 3270         oh    117    ccc     O1   3270 -0.53626700  16.000000   ; qtot 117.241744
 3271          o    117    ccc     O2   3271 -0.48266700  16.000000   ; qtot 116.759077
 3272         hx    117    ccc    H10   3272 0.12753300   1.008000   ; qtot 116.886610
 3273         hx    117    ccc    H11   3273 0.12753300   1.008000   ; qtot 117.014143
 3274         c3    117    ccc     C7   3274 -0.20606700  12.010000   ; qtot 116.808076
 3275         hc    117    ccc    H12   3275 0.10603300   1.008000   ; qtot 116.914109
 3276         hc    117    ccc    H13   3276 0.10603300   1.008000   ; qtot 117.020142
 3277          c    117    ccc     C8   3277 0.63793300  12.010000   ; qtot 117.658075
 3278          o    117    ccc     O3   3278 -0.48266700  16.000000   ; qtot 117.175408
 3279         oh    117    ccc     O4   3279 -0.53626700  16.000000   ; qtot 116.639141
 3280         ho    117    ccc    H14   3280 0.45283300   1.008000   ; qtot 117.091974
 3281         ho    117    ccc    H15   3281 0.45283300   1.008000   ; qtot 117.544807
 3282         hn    117    ccc    H16   3282 0.45463300   1.008000   ; qtot 117.999440
; residue  118 ccc rtp ccc q 1.0
 3283          n    118    ccc     N1   3283 -0.56206700  14.010000   ; qtot 117.437373
 3284         hn    118    ccc     H1   3284 0.35233300   1.008000   ; qtot 117.789706
 3285         c3    118    ccc     C1   3285 0.10283300  12.010000   ; qtot 117.892539
 3286         h1    118    ccc     H2   3286 0.07153300   1.008000   ; qtot 117.964072
 3287         c3    118    ccc     C2   3287 0.07063300  12.010000   ; qtot 118.034705
 3288         h1    118    ccc     H3   3288 0.07153300   1.008000   ; qtot 118.106238
 3289         hx    118    ccc     H4   3289 0.11303300   1.008000   ; qtot 118.219271
 3290         hx    118    ccc     H5   3290 0.11303300   1.008000   ; qtot 118.332304
 3291         n4    118    ccc     N2   3291 -0.67056700  14.010000   ; qtot 117.661737
 3292         c3    118    ccc     C3   3292 0.10863300  12.010000   ; qtot 117.770370
 3293         c3    118    ccc     C4   3293 0.10863300  12.010000   ; qtot 117.879003
 3294         hx    118    ccc     H6   3294 0.12753300   1.008000   ; qtot 118.006536
 3295         c3    118    ccc     C5   3295 -0.20606700  12.010000   ; qtot 117.800469
 3296         hx    118    ccc     H7   3296 0.12753300   1.008000   ; qtot 117.928002
 3297         hc    118    ccc     H8   3297 0.10603300   1.008000   ; qtot 118.034035
 3298         hc    118    ccc     H9   3298 0.10603300   1.008000   ; qtot 118.140068
 3299          c    118    ccc     C6   3299 0.63793300  12.010000   ; qtot 118.778001
 3300         oh    118    ccc     O1   3300 -0.53626700  16.000000   ; qtot 118.241734
 3301          o    118    ccc     O2   3301 -0.48266700  16.000000   ; qtot 117.759067
 3302         hx    118    ccc    H10   3302 0.12753300   1.008000   ; qtot 117.886600
 3303         hx    118    ccc    H11   3303 0.12753300   1.008000   ; qtot 118.014133
 3304         c3    118    ccc     C7   3304 -0.20606700  12.010000   ; qtot 117.808066
 3305         hc    118    ccc    H12   3305 0.10603300   1.008000   ; qtot 117.914099
 3306         hc    118    ccc    H13   3306 0.10603300   1.008000   ; qtot 118.020132
 3307          c    118    ccc     C8   3307 0.63793300  12.010000   ; qtot 118.658065
 3308          o    118    ccc     O3   3308 -0.48266700  16.000000   ; qtot 118.175398
 3309         oh    118    ccc     O4   3309 -0.53626700  16.000000   ; qtot 117.639131
 3310         ho    118    ccc    H14   3310 0.45283300   1.008000   ; qtot 118.091964
 3311         ho    118    ccc    H15   3311 0.45283300   1.008000   ; qtot 118.544797
 3312         hn    118    ccc    H16   3312 0.45463300   1.008000   ; qtot 118.999430
; residue  119 ccc rtp ccc q 1.0
 3313          n    119    ccc     N1   3313 -0.56206700  14.010000   ; qtot 118.437363
 3314         hn    119    ccc     H1   3314 0.35233300   1.008000   ; qtot 118.789696
 3315         c3    119    ccc     C1   3315 0.10283300  12.010000   ; qtot 118.892529
 3316         h1    119    ccc     H2   3316 0.07153300   1.008000   ; qtot 118.964062
 3317         c3    119    ccc     C2   3317 0.07063300  12.010000   ; qtot 119.034695
 3318         h1    119    ccc     H3   3318 0.07153300   1.008000   ; qtot 119.106228
 3319         hx    119    ccc     H4   3319 0.11303300   1.008000   ; qtot 119.219261
 3320         hx    119    ccc     H5   3320 0.11303300   1.008000   ; qtot 119.332294
 3321         n4    119    ccc     N2   3321 -0.67056700  14.010000   ; qtot 118.661727
 3322         c3    119    ccc     C3   3322 0.10863300  12.010000   ; qtot 118.770360
 3323         c3    119    ccc     C4   3323 0.10863300  12.010000   ; qtot 118.878993
 3324         hx    119    ccc     H6   3324 0.12753300   1.008000   ; qtot 119.006526
 3325         c3    119    ccc     C5   3325 -0.20606700  12.010000   ; qtot 118.800459
 3326         hx    119    ccc     H7   3326 0.12753300   1.008000   ; qtot 118.927992
 3327         hc    119    ccc     H8   3327 0.10603300   1.008000   ; qtot 119.034025
 3328         hc    119    ccc     H9   3328 0.10603300   1.008000   ; qtot 119.140058
 3329          c    119    ccc     C6   3329 0.63793300  12.010000   ; qtot 119.777991
 3330         oh    119    ccc     O1   3330 -0.53626700  16.000000   ; qtot 119.241724
 3331          o    119    ccc     O2   3331 -0.48266700  16.000000   ; qtot 118.759057
 3332         hx    119    ccc    H10   3332 0.12753300   1.008000   ; qtot 118.886590
 3333         hx    119    ccc    H11   3333 0.12753300   1.008000   ; qtot 119.014123
 3334         c3    119    ccc     C7   3334 -0.20606700  12.010000   ; qtot 118.808056
 3335         hc    119    ccc    H12   3335 0.10603300   1.008000   ; qtot 118.914089
 3336         hc    119    ccc    H13   3336 0.10603300   1.008000   ; qtot 119.020122
 3337          c    119    ccc     C8   3337 0.63793300  12.010000   ; qtot 119.658055
 3338          o    119    ccc     O3   3338 -0.48266700  16.000000   ; qtot 119.175388
 3339         oh    119    ccc     O4   3339 -0.53626700  16.000000   ; qtot 118.639121
 3340         ho    119    ccc    H14   3340 0.45283300   1.008000   ; qtot 119.091954
 3341         ho    119    ccc    H15   3341 0.45283300   1.008000   ; qtot 119.544787
 3342         hn    119    ccc    H16   3342 0.45463300   1.008000   ; qtot 119.999420
; residue  120 ccc rtp ccc q 1.0
 3343          n    120    ccc     N1   3343 -0.56206700  14.010000   ; qtot 119.437353
 3344         hn    120    ccc     H1   3344 0.35233300   1.008000   ; qtot 119.789686
 3345         c3    120    ccc     C1   3345 0.10283300  12.010000   ; qtot 119.892519
 3346         h1    120    ccc     H2   3346 0.07153300   1.008000   ; qtot 119.964052
 3347         c3    120    ccc     C2   3347 0.07063300  12.010000   ; qtot 120.034685
 3348         h1    120    ccc     H3   3348 0.07153300   1.008000   ; qtot 120.106218
 3349         hx    120    ccc     H4   3349 0.11303300   1.008000   ; qtot 120.219251
 3350         hx    120    ccc     H5   3350 0.11303300   1.008000   ; qtot 120.332284
 3351         n4    120    ccc     N2   3351 -0.67056700  14.010000   ; qtot 119.661717
 3352         c3    120    ccc     C3   3352 0.10863300  12.010000   ; qtot 119.770350
 3353         c3    120    ccc     C4   3353 0.10863300  12.010000   ; qtot 119.878983
 3354         hx    120    ccc     H6   3354 0.12753300   1.008000   ; qtot 120.006516
 3355         c3    120    ccc     C5   3355 -0.20606700  12.010000   ; qtot 119.800449
 3356         hx    120    ccc     H7   3356 0.12753300   1.008000   ; qtot 119.927982
 3357         hc    120    ccc     H8   3357 0.10603300   1.008000   ; qtot 120.034015
 3358         hc    120    ccc     H9   3358 0.10603300   1.008000   ; qtot 120.140048
 3359          c    120    ccc     C6   3359 0.63793300  12.010000   ; qtot 120.777981
 3360         oh    120    ccc     O1   3360 -0.53626700  16.000000   ; qtot 120.241714
 3361          o    120    ccc     O2   3361 -0.48266700  16.000000   ; qtot 119.759047
 3362         hx    120    ccc    H10   3362 0.12753300   1.008000   ; qtot 119.886580
 3363         hx    120    ccc    H11   3363 0.12753300   1.008000   ; qtot 120.014113
 3364         c3    120    ccc     C7   3364 -0.20606700  12.010000   ; qtot 119.808046
 3365         hc    120    ccc    H12   3365 0.10603300   1.008000   ; qtot 119.914079
 3366         hc    120    ccc    H13   3366 0.10603300   1.008000   ; qtot 120.020112
 3367          c    120    ccc     C8   3367 0.63793300  12.010000   ; qtot 120.658045
 3368          o    120    ccc     O3   3368 -0.48266700  16.000000   ; qtot 120.175378
 3369         oh    120    ccc     O4   3369 -0.53626700  16.000000   ; qtot 119.639111
 3370         ho    120    ccc    H14   3370 0.45283300   1.008000   ; qtot 120.091944
 3371         ho    120    ccc    H15   3371 0.45283300   1.008000   ; qtot 120.544777
 3372         hn    120    ccc    H16   3372 0.45463300   1.008000   ; qtot 120.999410
; residue  121 ccc rtp ccc q 1.0
 3373          n    121    ccc     N1   3373 -0.56206700  14.010000   ; qtot 120.437343
 3374         hn    121    ccc     H1   3374 0.35233300   1.008000   ; qtot 120.789676
 3375         c3    121    ccc     C1   3375 0.10283300  12.010000   ; qtot 120.892509
 3376         h1    121    ccc     H2   3376 0.07153300   1.008000   ; qtot 120.964042
 3377         c3    121    ccc     C2   3377 0.07063300  12.010000   ; qtot 121.034675
 3378         h1    121    ccc     H3   3378 0.07153300   1.008000   ; qtot 121.106208
 3379         hx    121    ccc     H4   3379 0.11303300   1.008000   ; qtot 121.219241
 3380         hx    121    ccc     H5   3380 0.11303300   1.008000   ; qtot 121.332274
 3381         n4    121    ccc     N2   3381 -0.67056700  14.010000   ; qtot 120.661707
 3382         c3    121    ccc     C3   3382 0.10863300  12.010000   ; qtot 120.770340
 3383         c3    121    ccc     C4   3383 0.10863300  12.010000   ; qtot 120.878973
 3384         hx    121    ccc     H6   3384 0.12753300   1.008000   ; qtot 121.006506
 3385         c3    121    ccc     C5   3385 -0.20606700  12.010000   ; qtot 120.800439
 3386         hx    121    ccc     H7   3386 0.12753300   1.008000   ; qtot 120.927972
 3387         hc    121    ccc     H8   3387 0.10603300   1.008000   ; qtot 121.034005
 3388         hc    121    ccc     H9   3388 0.10603300   1.008000   ; qtot 121.140038
 3389          c    121    ccc     C6   3389 0.63793300  12.010000   ; qtot 121.777971
 3390         oh    121    ccc     O1   3390 -0.53626700  16.000000   ; qtot 121.241704
 3391          o    121    ccc     O2   3391 -0.48266700  16.000000   ; qtot 120.759037
 3392         hx    121    ccc    H10   3392 0.12753300   1.008000   ; qtot 120.886570
 3393         hx    121    ccc    H11   3393 0.12753300   1.008000   ; qtot 121.014103
 3394         c3    121    ccc     C7   3394 -0.20606700  12.010000   ; qtot 120.808036
 3395         hc    121    ccc    H12   3395 0.10603300   1.008000   ; qtot 120.914069
 3396         hc    121    ccc    H13   3396 0.10603300   1.008000   ; qtot 121.020102
 3397          c    121    ccc     C8   3397 0.63793300  12.010000   ; qtot 121.658035
 3398          o    121    ccc     O3   3398 -0.48266700  16.000000   ; qtot 121.175368
 3399         oh    121    ccc     O4   3399 -0.53626700  16.000000   ; qtot 120.639101
 3400         ho    121    ccc    H14   3400 0.45283300   1.008000   ; qtot 121.091934
 3401         ho    121    ccc    H15   3401 0.45283300   1.008000   ; qtot 121.544767
 3402         hn    121    ccc    H16   3402 0.45463300   1.008000   ; qtot 121.999400
; residue  122 ccc rtp ccc q 1.0
 3403          n    122    ccc     N1   3403 -0.56206700  14.010000   ; qtot 121.437333
 3404         hn    122    ccc     H1   3404 0.35233300   1.008000   ; qtot 121.789666
 3405         c3    122    ccc     C1   3405 0.10283300  12.010000   ; qtot 121.892499
 3406         h1    122    ccc     H2   3406 0.07153300   1.008000   ; qtot 121.964032
 3407         c3    122    ccc     C2   3407 0.07063300  12.010000   ; qtot 122.034665
 3408         h1    122    ccc     H3   3408 0.07153300   1.008000   ; qtot 122.106198
 3409         hx    122    ccc     H4   3409 0.11303300   1.008000   ; qtot 122.219231
 3410         hx    122    ccc     H5   3410 0.11303300   1.008000   ; qtot 122.332264
 3411         n4    122    ccc     N2   3411 -0.67056700  14.010000   ; qtot 121.661697
 3412         c3    122    ccc     C3   3412 0.10863300  12.010000   ; qtot 121.770330
 3413         c3    122    ccc     C4   3413 0.10863300  12.010000   ; qtot 121.878963
 3414         hx    122    ccc     H6   3414 0.12753300   1.008000   ; qtot 122.006496
 3415         c3    122    ccc     C5   3415 -0.20606700  12.010000   ; qtot 121.800429
 3416         hx    122    ccc     H7   3416 0.12753300   1.008000   ; qtot 121.927962
 3417         hc    122    ccc     H8   3417 0.10603300   1.008000   ; qtot 122.033995
 3418         hc    122    ccc     H9   3418 0.10603300   1.008000   ; qtot 122.140028
 3419          c    122    ccc     C6   3419 0.63793300  12.010000   ; qtot 122.777961
 3420         oh    122    ccc     O1   3420 -0.53626700  16.000000   ; qtot 122.241694
 3421          o    122    ccc     O2   3421 -0.48266700  16.000000   ; qtot 121.759027
 3422         hx    122    ccc    H10   3422 0.12753300   1.008000   ; qtot 121.886560
 3423         hx    122    ccc    H11   3423 0.12753300   1.008000   ; qtot 122.014093
 3424         c3    122    ccc     C7   3424 -0.20606700  12.010000   ; qtot 121.808026
 3425         hc    122    ccc    H12   3425 0.10603300   1.008000   ; qtot 121.914059
 3426         hc    122    ccc    H13   3426 0.10603300   1.008000   ; qtot 122.020092
 3427          c    122    ccc     C8   3427 0.63793300  12.010000   ; qtot 122.658025
 3428          o    122    ccc     O3   3428 -0.48266700  16.000000   ; qtot 122.175358
 3429         oh    122    ccc     O4   3429 -0.53626700  16.000000   ; qtot 121.639091
 3430         ho    122    ccc    H14   3430 0.45283300   1.008000   ; qtot 122.091924
 3431         ho    122    ccc    H15   3431 0.45283300   1.008000   ; qtot 122.544757
 3432         hn    122    ccc    H16   3432 0.45463300   1.008000   ; qtot 122.999390
; residue  123 ccc rtp ccc q 1.0
 3433          n    123    ccc     N1   3433 -0.56206700  14.010000   ; qtot 122.437323
 3434         hn    123    ccc     H1   3434 0.35233300   1.008000   ; qtot 122.789656
 3435         c3    123    ccc     C1   3435 0.10283300  12.010000   ; qtot 122.892489
 3436         h1    123    ccc     H2   3436 0.07153300   1.008000   ; qtot 122.964022
 3437         c3    123    ccc     C2   3437 0.07063300  12.010000   ; qtot 123.034655
 3438         h1    123    ccc     H3   3438 0.07153300   1.008000   ; qtot 123.106188
 3439         hx    123    ccc     H4   3439 0.11303300   1.008000   ; qtot 123.219221
 3440         hx    123    ccc     H5   3440 0.11303300   1.008000   ; qtot 123.332254
 3441         n4    123    ccc     N2   3441 -0.67056700  14.010000   ; qtot 122.661687
 3442         c3    123    ccc     C3   3442 0.10863300  12.010000   ; qtot 122.770320
 3443         c3    123    ccc     C4   3443 0.10863300  12.010000   ; qtot 122.878953
 3444         hx    123    ccc     H6   3444 0.12753300   1.008000   ; qtot 123.006486
 3445         c3    123    ccc     C5   3445 -0.20606700  12.010000   ; qtot 122.800419
 3446         hx    123    ccc     H7   3446 0.12753300   1.008000   ; qtot 122.927952
 3447         hc    123    ccc     H8   3447 0.10603300   1.008000   ; qtot 123.033985
 3448         hc    123    ccc     H9   3448 0.10603300   1.008000   ; qtot 123.140018
 3449          c    123    ccc     C6   3449 0.63793300  12.010000   ; qtot 123.777951
 3450         oh    123    ccc     O1   3450 -0.53626700  16.000000   ; qtot 123.241684
 3451          o    123    ccc     O2   3451 -0.48266700  16.000000   ; qtot 122.759017
 3452         hx    123    ccc    H10   3452 0.12753300   1.008000   ; qtot 122.886550
 3453         hx    123    ccc    H11   3453 0.12753300   1.008000   ; qtot 123.014083
 3454         c3    123    ccc     C7   3454 -0.20606700  12.010000   ; qtot 122.808016
 3455         hc    123    ccc    H12   3455 0.10603300   1.008000   ; qtot 122.914049
 3456         hc    123    ccc    H13   3456 0.10603300   1.008000   ; qtot 123.020082
 3457          c    123    ccc     C8   3457 0.63793300  12.010000   ; qtot 123.658015
 3458          o    123    ccc     O3   3458 -0.48266700  16.000000   ; qtot 123.175348
 3459         oh    123    ccc     O4   3459 -0.53626700  16.000000   ; qtot 122.639081
 3460         ho    123    ccc    H14   3460 0.45283300   1.008000   ; qtot 123.091914
 3461         ho    123    ccc    H15   3461 0.45283300   1.008000   ; qtot 123.544747
 3462         hn    123    ccc    H16   3462 0.45463300   1.008000   ; qtot 123.999380
; residue  124 ccc rtp ccc q 1.0
 3463          n    124    ccc     N1   3463 -0.56206700  14.010000   ; qtot 123.437313
 3464         hn    124    ccc     H1   3464 0.35233300   1.008000   ; qtot 123.789646
 3465         c3    124    ccc     C1   3465 0.10283300  12.010000   ; qtot 123.892479
 3466         h1    124    ccc     H2   3466 0.07153300   1.008000   ; qtot 123.964012
 3467         c3    124    ccc     C2   3467 0.07063300  12.010000   ; qtot 124.034645
 3468         h1    124    ccc     H3   3468 0.07153300   1.008000   ; qtot 124.106178
 3469         hx    124    ccc     H4   3469 0.11303300   1.008000   ; qtot 124.219211
 3470         hx    124    ccc     H5   3470 0.11303300   1.008000   ; qtot 124.332244
 3471         n4    124    ccc     N2   3471 -0.67056700  14.010000   ; qtot 123.661677
 3472         c3    124    ccc     C3   3472 0.10863300  12.010000   ; qtot 123.770310
 3473         c3    124    ccc     C4   3473 0.10863300  12.010000   ; qtot 123.878943
 3474         hx    124    ccc     H6   3474 0.12753300   1.008000   ; qtot 124.006476
 3475         c3    124    ccc     C5   3475 -0.20606700  12.010000   ; qtot 123.800409
 3476         hx    124    ccc     H7   3476 0.12753300   1.008000   ; qtot 123.927942
 3477         hc    124    ccc     H8   3477 0.10603300   1.008000   ; qtot 124.033975
 3478         hc    124    ccc     H9   3478 0.10603300   1.008000   ; qtot 124.140008
 3479          c    124    ccc     C6   3479 0.63793300  12.010000   ; qtot 124.777941
 3480         oh    124    ccc     O1   3480 -0.53626700  16.000000   ; qtot 124.241674
 3481          o    124    ccc     O2   3481 -0.48266700  16.000000   ; qtot 123.759007
 3482         hx    124    ccc    H10   3482 0.12753300   1.008000   ; qtot 123.886540
 3483         hx    124    ccc    H11   3483 0.12753300   1.008000   ; qtot 124.014073
 3484         c3    124    ccc     C7   3484 -0.20606700  12.010000   ; qtot 123.808006
 3485         hc    124    ccc    H12   3485 0.10603300   1.008000   ; qtot 123.914039
 3486         hc    124    ccc    H13   3486 0.10603300   1.008000   ; qtot 124.020072
 3487          c    124    ccc     C8   3487 0.63793300  12.010000   ; qtot 124.658005
 3488          o    124    ccc     O3   3488 -0.48266700  16.000000   ; qtot 124.175338
 3489         oh    124    ccc     O4   3489 -0.53626700  16.000000   ; qtot 123.639071
 3490         ho    124    ccc    H14   3490 0.45283300   1.008000   ; qtot 124.091904
 3491         ho    124    ccc    H15   3491 0.45283300   1.008000   ; qtot 124.544737
 3492         hn    124    ccc    H16   3492 0.45463300   1.008000   ; qtot 124.999370
; residue  125 ccc rtp ccc q 1.0
 3493          n    125    ccc     N1   3493 -0.56206700  14.010000   ; qtot 124.437303
 3494         hn    125    ccc     H1   3494 0.35233300   1.008000   ; qtot 124.789636
 3495         c3    125    ccc     C1   3495 0.10283300  12.010000   ; qtot 124.892469
 3496         h1    125    ccc     H2   3496 0.07153300   1.008000   ; qtot 124.964002
 3497         c3    125    ccc     C2   3497 0.07063300  12.010000   ; qtot 125.034635
 3498         h1    125    ccc     H3   3498 0.07153300   1.008000   ; qtot 125.106168
 3499         hx    125    ccc     H4   3499 0.11303300   1.008000   ; qtot 125.219201
 3500         hx    125    ccc     H5   3500 0.11303300   1.008000   ; qtot 125.332234
 3501         n4    125    ccc     N2   3501 -0.67056700  14.010000   ; qtot 124.661667
 3502         c3    125    ccc     C3   3502 0.10863300  12.010000   ; qtot 124.770300
 3503         c3    125    ccc     C4   3503 0.10863300  12.010000   ; qtot 124.878933
 3504         hx    125    ccc     H6   3504 0.12753300   1.008000   ; qtot 125.006466
 3505         c3    125    ccc     C5   3505 -0.20606700  12.010000   ; qtot 124.800399
 3506         hx    125    ccc     H7   3506 0.12753300   1.008000   ; qtot 124.927932
 3507         hc    125    ccc     H8   3507 0.10603300   1.008000   ; qtot 125.033965
 3508         hc    125    ccc     H9   3508 0.10603300   1.008000   ; qtot 125.139998
 3509          c    125    ccc     C6   3509 0.63793300  12.010000   ; qtot 125.777931
 3510         oh    125    ccc     O1   3510 -0.53626700  16.000000   ; qtot 125.241664
 3511          o    125    ccc     O2   3511 -0.48266700  16.000000   ; qtot 124.758997
 3512         hx    125    ccc    H10   3512 0.12753300   1.008000   ; qtot 124.886530
 3513         hx    125    ccc    H11   3513 0.12753300   1.008000   ; qtot 125.014063
 3514         c3    125    ccc     C7   3514 -0.20606700  12.010000   ; qtot 124.807996
 3515         hc    125    ccc    H12   3515 0.10603300   1.008000   ; qtot 124.914029
 3516         hc    125    ccc    H13   3516 0.10603300   1.008000   ; qtot 125.020062
 3517          c    125    ccc     C8   3517 0.63793300  12.010000   ; qtot 125.657995
 3518          o    125    ccc     O3   3518 -0.48266700  16.000000   ; qtot 125.175328
 3519         oh    125    ccc     O4   3519 -0.53626700  16.000000   ; qtot 124.639061
 3520         ho    125    ccc    H14   3520 0.45283300   1.008000   ; qtot 125.091894
 3521         ho    125    ccc    H15   3521 0.45283300   1.008000   ; qtot 125.544727
 3522         hn    125    ccc    H16   3522 0.45463300   1.008000   ; qtot 125.999360

[ bonds ]
;    ai     aj funct         c0         c1         c2         c3
      1      2     1   0.15110 237065.440000
      1      7     1   0.15110 237065.440000
      1      8     1   0.15110 237065.440000
      2      3     1   0.15375 251793.120000
      3      4     1   0.15110 237065.440000
      4      5     1   0.15110 237065.440000
      4      6     1   0.15110 237065.440000
      5     11     1   0.15375 251793.120000
      6      9     1   0.15375 251793.120000
      7     13     1   0.15375 251793.120000
      8     15     1   0.15375 251793.120000
      9     10     1   0.15241 261918.400000
     10     18     1   0.12183 533627.360000
     10     52     1   0.13789 357815.680000
     11     12     1   0.15241 261918.400000
     12     17     1   0.12183 533627.360000
     12     78     1   0.13789 357815.680000
     13     14     1   0.15241 261918.400000
     14     20     1   0.12183 533627.360000
     14    104     1   0.13789 357815.680000
     15     16     1   0.15241 261918.400000
     16     19     1   0.12183 533627.360000
     16    130     1   0.13789 357815.680000
     43     44     1   0.15110 237065.440000
     43     45     1   0.15110 237065.440000
     43     50     1   0.15110 237065.440000
     44     46     1   0.15375 251793.120000
     45     48     1   0.15375 251793.120000
     46     47     1   0.15241 261918.400000
     47     53     1   0.12183 533627.360000
     47    156     1   0.13789 357815.680000
     48     49     1   0.15241 261918.400000
     49     54     1   0.12183 533627.360000
     49    182     1   0.13789 357815.680000
     50     51     1   0.15375 251793.120000
     51     52     1   0.14619 275056.160000
     69     70     1   0.15110 237065.440000
     69     71     1   0.15110 237065.440000
     69     76     1   0.15110 237065.440000
     70     72     1   0.15375 251793.120000
     71     74     1   0.15375 251793.120000
     72     73     1   0.15241 261918.400000
     73     79     1   0.12183 533627.360000
     73    208     1   0.13789 357815.680000
     74     75     1   0.15241 261918.400000
     75     80     1   0.12183 533627.360000
     75    234     1   0.13789 357815.680000
     76     77     1   0.15375 251793.120000
     77     78     1   0.14619 275056.160000
     95     96     1   0.15110 237065.440000
     95     97     1   0.15110 237065.440000
     95    102     1   0.15110 237065.440000
     96     98     1   0.15375 251793.120000
     97    100     1   0.15375 251793.120000
     98     99     1   0.15241 261918.400000
     99    105     1   0.12183 533627.360000
     99    260     1   0.13789 357815.680000
    100    101     1   0.15241 261918.400000
    101    106     1   0.12183 533627.360000
    101    286     1   0.13789 357815.680000
    102    103     1   0.15375 251793.120000
    103    104     1   0.14619 275056.160000
    121    122     1   0.15110 237065.440000
    121    123     1   0.15110 237065.440000
    121    128     1   0.15110 237065.440000
    122    124     1   0.15375 251793.120000
    123    126     1   0.15375 251793.120000
    124    125     1   0.15241 261918.400000
    125    131     1   0.12183 533627.360000
    125    312     1   0.13789 357815.680000
    126    127     1   0.15241 261918.400000
    127    132     1   0.12183 533627.360000
    127    338     1   0.13789 357815.680000
    128    129     1   0.15375 251793.120000
    129    130     1   0.14619 275056.160000
    147    148     1   0.15110 237065.440000
    147    149     1   0.15110 237065.440000
    147    154     1   0.15110 237065.440000
    148    150     1   0.15375 251793.120000
    149    152     1   0.15375 251793.120000
    150    151     1   0.15241 261918.400000
    151    157     1   0.12183 533627.360000
    151    364     1   0.13789 357815.680000
    152    153     1   0.15241 261918.400000
    153    158     1   0.12183 533627.360000
    153    390     1   0.13789 357815.680000
    154    155     1   0.15375 251793.120000
    155    156     1   0.14619 275056.160000
    173    174     1   0.15110 237065.440000
    173    175     1   0.15110 237065.440000
    173    180     1   0.15110 237065.440000
    174    176     1   0.15375 251793.120000
    175    178     1   0.15375 251793.120000
    176    177     1   0.15241 261918.400000
    177    183     1   0.12183 533627.360000
    177    416     1   0.13789 357815.680000
    178    179     1   0.15241 261918.400000
    179    184     1   0.12183 533627.360000
    179    442     1   0.13789 357815.680000
    180    181     1   0.15375 251793.120000
    181    182     1   0.14619 275056.160000
    199    200     1   0.15110 237065.440000
    199    201     1   0.15110 237065.440000
    199    206     1   0.15110 237065.440000
    200    202     1   0.15375 251793.120000
    201    204     1   0.15375 251793.120000
    202    203     1   0.15241 261918.400000
    203    209     1   0.12183 533627.360000
    203    468     1   0.13789 357815.680000
    204    205     1   0.15241 261918.400000
    205    210     1   0.12183 533627.360000
    205    494     1   0.13789 357815.680000
    206    207     1   0.15375 251793.120000
    207    208     1   0.14619 275056.160000
    225    226     1   0.15110 237065.440000
    225    227     1   0.15110 237065.440000
    225    232     1   0.15110 237065.440000
    226    228     1   0.15375 251793.120000
    227    230     1   0.15375 251793.120000
    228    229     1   0.15241 261918.400000
    229    235     1   0.12183 533627.360000
    229    520     1   0.13789 357815.680000
    230    231     1   0.15241 261918.400000
    231    236     1   0.12183 533627.360000
    231    546     1   0.13789 357815.680000
    232    233     1   0.15375 251793.120000
    233    234     1   0.14619 275056.160000
    251    252     1   0.15110 237065.440000
    251    253     1   0.15110 237065.440000
    251    258     1   0.15110 237065.440000
    252    254     1   0.15375 251793.120000
    253    256     1   0.15375 251793.120000
    254    255     1   0.15241 261918.400000
    255    261     1   0.12183 533627.360000
    255    572     1   0.13789 357815.680000
    256    257     1   0.15241 261918.400000
    257    262     1   0.12183 533627.360000
    257    598     1   0.13789 357815.680000
    258    259     1   0.15375 251793.120000
    259    260     1   0.14619 275056.160000
    277    278     1   0.15110 237065.440000
    277    279     1   0.15110 237065.440000
    277    284     1   0.15110 237065.440000
    278    280     1   0.15375 251793.120000
    279    282     1   0.15375 251793.120000
    280    281     1   0.15241 261918.400000
    281    287     1   0.12183 533627.360000
    281    624     1   0.13789 357815.680000
    282    283     1   0.15241 261918.400000
    283    288     1   0.12183 533627.360000
    283    650     1   0.13789 357815.680000
    284    285     1   0.15375 251793.120000
    285    286     1   0.14619 275056.160000
    303    304     1   0.15110 237065.440000
    303    305     1   0.15110 237065.440000
    303    310     1   0.15110 237065.440000
    304    306     1   0.15375 251793.120000
    305    308     1   0.15375 251793.120000
    306    307     1   0.15241 261918.400000
    307    313     1   0.12183 533627.360000
    307    676     1   0.13789 357815.680000
    308    309     1   0.15241 261918.400000
    309    314     1   0.12183 533627.360000
    309    702     1   0.13789 357815.680000
    310    311     1   0.15375 251793.120000
    311    312     1   0.14619 275056.160000
    329    330     1   0.15110 237065.440000
    329    331     1   0.15110 237065.440000
    329    336     1   0.15110 237065.440000
    330    332     1   0.15375 251793.120000
    331    334     1   0.15375 251793.120000
    332    333     1   0.15241 261918.400000
    333    339     1   0.12183 533627.360000
    333    728     1   0.13789 357815.680000
    334    335     1   0.15241 261918.400000
    335    340     1   0.12183 533627.360000
    335    754     1   0.13789 357815.680000
    336    337     1   0.15375 251793.120000
    337    338     1   0.14619 275056.160000
    355    356     1   0.15110 237065.440000
    355    357     1   0.15110 237065.440000
    355    362     1   0.15110 237065.440000
    356    358     1   0.15375 251793.120000
    357    360     1   0.15375 251793.120000
    358    359     1   0.15241 261918.400000
    359    365     1   0.12183 533627.360000
    359    780     1   0.13789 357815.680000
    360    361     1   0.15241 261918.400000
    361    366     1   0.12183 533627.360000
    361    806     1   0.13789 357815.680000
    362    363     1   0.15375 251793.120000
    363    364     1   0.14619 275056.160000
    381    382     1   0.15110 237065.440000
    381    383     1   0.15110 237065.440000
    381    388     1   0.15110 237065.440000
    382    384     1   0.15375 251793.120000
    383    386     1   0.15375 251793.120000
    384    385     1   0.15241 261918.400000
    385    391     1   0.12183 533627.360000
    385    832     1   0.13789 357815.680000
    386    387     1   0.15241 261918.400000
    387    392     1   0.12183 533627.360000
    387    858     1   0.13789 357815.680000
    388    389     1   0.15375 251793.120000
    389    390     1   0.14619 275056.160000
    407    408     1   0.15110 237065.440000
    407    409     1   0.15110 237065.440000
    407    414     1   0.15110 237065.440000
    408    410     1   0.15375 251793.120000
    409    412     1   0.15375 251793.120000
    410    411     1   0.15241 261918.400000
    411    417     1   0.12183 533627.360000
    411    884     1   0.13789 357815.680000
    412    413     1   0.15241 261918.400000
    413    418     1   0.12183 533627.360000
    413    910     1   0.13789 357815.680000
    414    415     1   0.15375 251793.120000
    415    416     1   0.14619 275056.160000
    433    434     1   0.15110 237065.440000
    433    435     1   0.15110 237065.440000
    433    440     1   0.15110 237065.440000
    434    436     1   0.15375 251793.120000
    435    438     1   0.15375 251793.120000
    436    437     1   0.15241 261918.400000
    437    443     1   0.12183 533627.360000
    437    936     1   0.13789 357815.680000
    438    439     1   0.15241 261918.400000
    439    444     1   0.12183 533627.360000
    439    962     1   0.13789 357815.680000
    440    441     1   0.15375 251793.120000
    441    442     1   0.14619 275056.160000
    459    460     1   0.15110 237065.440000
    459    461     1   0.15110 237065.440000
    459    466     1   0.15110 237065.440000
    460    462     1   0.15375 251793.120000
    461    464     1   0.15375 251793.120000
    462    463     1   0.15241 261918.400000
    463    469     1   0.12183 533627.360000
    463    988     1   0.13789 357815.680000
    464    465     1   0.15241 261918.400000
    465    470     1   0.12183 533627.360000
    465   1014     1   0.13789 357815.680000
    466    467     1   0.15375 251793.120000
    467    468     1   0.14619 275056.160000
    485    486     1   0.15110 237065.440000
    485    487     1   0.15110 237065.440000
    485    492     1   0.15110 237065.440000
    486    488     1   0.15375 251793.120000
    487    490     1   0.15375 251793.120000
    488    489     1   0.15241 261918.400000
    489    495     1   0.12183 533627.360000
    489   1040     1   0.13789 357815.680000
    490    491     1   0.15241 261918.400000
    491    496     1   0.12183 533627.360000
    491   1066     1   0.13789 357815.680000
    492    493     1   0.15375 251793.120000
    493    494     1   0.14619 275056.160000
    511    512     1   0.15110 237065.440000
    511    513     1   0.15110 237065.440000
    511    518     1   0.15110 237065.440000
    512    514     1   0.15375 251793.120000
    513    516     1   0.15375 251793.120000
    514    515     1   0.15241 261918.400000
    515    521     1   0.12183 533627.360000
    515   1092     1   0.13789 357815.680000
    516    517     1   0.15241 261918.400000
    517    522     1   0.12183 533627.360000
    517   1118     1   0.13789 357815.680000
    518    519     1   0.15375 251793.120000
    519    520     1   0.14619 275056.160000
    537    538     1   0.15110 237065.440000
    537    539     1   0.15110 237065.440000
    537    544     1   0.15110 237065.440000
    538    540     1   0.15375 251793.120000
    539    542     1   0.15375 251793.120000
    540    541     1   0.15241 261918.400000
    541    547     1   0.12183 533627.360000
    541   1144     1   0.13789 357815.680000
    542    543     1   0.15241 261918.400000
    543    548     1   0.12183 533627.360000
    543   1170     1   0.13789 357815.680000
    544    545     1   0.15375 251793.120000
    545    546     1   0.14619 275056.160000
    563    564     1   0.15110 237065.440000
    563    565     1   0.15110 237065.440000
    563    570     1   0.15110 237065.440000
    564    566     1   0.15375 251793.120000
    565    568     1   0.15375 251793.120000
    566    567     1   0.15241 261918.400000
    567    573     1   0.12183 533627.360000
    567   1196     1   0.13789 357815.680000
    568    569     1   0.15241 261918.400000
    569    574     1   0.12183 533627.360000
    569   1222     1   0.13789 357815.680000
    570    571     1   0.15375 251793.120000
    571    572     1   0.14619 275056.160000
    589    590     1   0.15110 237065.440000
    589    591     1   0.15110 237065.440000
    589    596     1   0.15110 237065.440000
    590    592     1   0.15375 251793.120000
    591    594     1   0.15375 251793.120000
    592    593     1   0.15241 261918.400000
    593    599     1   0.12183 533627.360000
    593   1248     1   0.13789 357815.680000
    594    595     1   0.15241 261918.400000
    595    600     1   0.12183 533627.360000
    595   1274     1   0.13789 357815.680000
    596    597     1   0.15375 251793.120000
    597    598     1   0.14619 275056.160000
    615    616     1   0.15110 237065.440000
    615    617     1   0.15110 237065.440000
    615    622     1   0.15110 237065.440000
    616    618     1   0.15375 251793.120000
    617    620     1   0.15375 251793.120000
    618    619     1   0.15241 261918.400000
    619    625     1   0.12183 533627.360000
    619   1300     1   0.13789 357815.680000
    620    621     1   0.15241 261918.400000
    621    626     1   0.12183 533627.360000
    621   1326     1   0.13789 357815.680000
    622    623     1   0.15375 251793.120000
    623    624     1   0.14619 275056.160000
    641    642     1   0.15110 237065.440000
    641    643     1   0.15110 237065.440000
    641    648     1   0.15110 237065.440000
    642    644     1   0.15375 251793.120000
    643    646     1   0.15375 251793.120000
    644    645     1   0.15241 261918.400000
    645    651     1   0.12183 533627.360000
    645   1352     1   0.13789 357815.680000
    646    647     1   0.15241 261918.400000
    647    652     1   0.12183 533627.360000
    647   1378     1   0.13789 357815.680000
    648    649     1   0.15375 251793.120000
    649    650     1   0.14619 275056.160000
    667    668     1   0.15110 237065.440000
    667    669     1   0.15110 237065.440000
    667    674     1   0.15110 237065.440000
    668    670     1   0.15375 251793.120000
    669    672     1   0.15375 251793.120000
    670    671     1   0.15241 261918.400000
    671    677     1   0.12183 533627.360000
    671   1404     1   0.13789 357815.680000
    672    673     1   0.15241 261918.400000
    673    678     1   0.12183 533627.360000
    673   1430     1   0.13789 357815.680000
    674    675     1   0.15375 251793.120000
    675    676     1   0.14619 275056.160000
    693    694     1   0.15110 237065.440000
    693    695     1   0.15110 237065.440000
    693    700     1   0.15110 237065.440000
    694    696     1   0.15375 251793.120000
    695    698     1   0.15375 251793.120000
    696    697     1   0.15241 261918.400000
    697    703     1   0.12183 533627.360000
    697   1456     1   0.13789 357815.680000
    698    699     1   0.15241 261918.400000
    699    704     1   0.12183 533627.360000
    699   1482     1   0.13789 357815.680000
    700    701     1   0.15375 251793.120000
    701    702     1   0.14619 275056.160000
    719    720     1   0.15110 237065.440000
    719    721     1   0.15110 237065.440000
    719    726     1   0.15110 237065.440000
    720    722     1   0.15375 251793.120000
    721    724     1   0.15375 251793.120000
    722    723     1   0.15241 261918.400000
    723    729     1   0.12183 533627.360000
    723   1508     1   0.13789 357815.680000
    724    725     1   0.15241 261918.400000
    725    730     1   0.12183 533627.360000
    725   1534     1   0.13789 357815.680000
    726    727     1   0.15375 251793.120000
    727    728     1   0.14619 275056.160000
    745    746     1   0.15110 237065.440000
    745    747     1   0.15110 237065.440000
    745    752     1   0.15110 237065.440000
    746    748     1   0.15375 251793.120000
    747    750     1   0.15375 251793.120000
    748    749     1   0.15241 261918.400000
    749    755     1   0.12183 533627.360000
    749   1560     1   0.13789 357815.680000
    750    751     1   0.15241 261918.400000
    751    756     1   0.12183 533627.360000
    751   1586     1   0.13789 357815.680000
    752    753     1   0.15375 251793.120000
    753    754     1   0.14619 275056.160000
    771    772     1   0.15110 237065.440000
    771    773     1   0.15110 237065.440000
    771    778     1   0.15110 237065.440000
    772    774     1   0.15375 251793.120000
    773    776     1   0.15375 251793.120000
    774    775     1   0.15241 261918.400000
    775   1603     1   0.13789 357815.680000
    775    781     1   0.12183 533627.360000
    776    777     1   0.15241 261918.400000
    777    782     1   0.12183 533627.360000
    777   1633     1   0.13789 357815.680000
    778    779     1   0.15375 251793.120000
    779    780     1   0.14619 275056.160000
    797    798     1   0.15110 237065.440000
    797    799     1   0.15110 237065.440000
    797    804     1   0.15110 237065.440000
    798    800     1   0.15375 251793.120000
    799    802     1   0.15375 251793.120000
    800    801     1   0.15241 261918.400000
    801   1663     1   0.13789 357815.680000
    801    807     1   0.12183 533627.360000
    802    803     1   0.15241 261918.400000
    803    808     1   0.12183 533627.360000
    803   1693     1   0.13789 357815.680000
    804    805     1   0.15375 251793.120000
    805    806     1   0.14619 275056.160000
    823    824     1   0.15110 237065.440000
    823    825     1   0.15110 237065.440000
    823    830     1   0.15110 237065.440000
    824    826     1   0.15375 251793.120000
    825    828     1   0.15375 251793.120000
    826    827     1   0.15241 261918.400000
    827   1723     1   0.13789 357815.680000
    827    833     1   0.12183 533627.360000
    828    829     1   0.15241 261918.400000
    829    834     1   0.12183 533627.360000
    829   1753     1   0.13789 357815.680000
    830    831     1   0.15375 251793.120000
    831    832     1   0.14619 275056.160000
    849    850     1   0.15110 237065.440000
    849    851     1   0.15110 237065.440000
    849    856     1   0.15110 237065.440000
    850    852     1   0.15375 251793.120000
    851    854     1   0.15375 251793.120000
    852    853     1   0.15241 261918.400000
    853   1783     1   0.13789 357815.680000
    853    859     1   0.12183 533627.360000
    854    855     1   0.15241 261918.400000
    855    860     1   0.12183 533627.360000
    855   1813     1   0.13789 357815.680000
    856    857     1   0.15375 251793.120000
    857    858     1   0.14619 275056.160000
    875    876     1   0.15110 237065.440000
    875    877     1   0.15110 237065.440000
    875    882     1   0.15110 237065.440000
    876    878     1   0.15375 251793.120000
    877    880     1   0.15375 251793.120000
    878    879     1   0.15241 261918.400000
    879   1843     1   0.13789 357815.680000
    879    885     1   0.12183 533627.360000
    880    881     1   0.15241 261918.400000
    881    886     1   0.12183 533627.360000
    881   1873     1   0.13789 357815.680000
    882    883     1   0.15375 251793.120000
    883    884     1   0.14619 275056.160000
    901    902     1   0.15110 237065.440000
    901    903     1   0.15110 237065.440000
    901    908     1   0.15110 237065.440000
    902    904     1   0.15375 251793.120000
    903    906     1   0.15375 251793.120000
    904    905     1   0.15241 261918.400000
    905   1903     1   0.13789 357815.680000
    905    911     1   0.12183 533627.360000
    906    907     1   0.15241 261918.400000
    907    912     1   0.12183 533627.360000
    907   1933     1   0.13789 357815.680000
    908    909     1   0.15375 251793.120000
    909    910     1   0.14619 275056.160000
    927    928     1   0.15110 237065.440000
    927    929     1   0.15110 237065.440000
    927    934     1   0.15110 237065.440000
    928    930     1   0.15375 251793.120000
    929    932     1   0.15375 251793.120000
    930    931     1   0.15241 261918.400000
    931   1963     1   0.13789 357815.680000
    931    937     1   0.12183 533627.360000
    932    933     1   0.15241 261918.400000
    933    938     1   0.12183 533627.360000
    933   1993     1   0.13789 357815.680000
    934    935     1   0.15375 251793.120000
    935    936     1   0.14619 275056.160000
    953    954     1   0.15110 237065.440000
    953    955     1   0.15110 237065.440000
    953    960     1   0.15110 237065.440000
    954    956     1   0.15375 251793.120000
    955    958     1   0.15375 251793.120000
    956    957     1   0.15241 261918.400000
    957   2023     1   0.13789 357815.680000
    957    963     1   0.12183 533627.360000
    958    959     1   0.15241 261918.400000
    959    964     1   0.12183 533627.360000
    959   2053     1   0.13789 357815.680000
    960    961     1   0.15375 251793.120000
    961    962     1   0.14619 275056.160000
    979    980     1   0.15110 237065.440000
    979    981     1   0.15110 237065.440000
    979    986     1   0.15110 237065.440000
    980    982     1   0.15375 251793.120000
    981    984     1   0.15375 251793.120000
    982    983     1   0.15241 261918.400000
    983   2083     1   0.13789 357815.680000
    983    989     1   0.12183 533627.360000
    984    985     1   0.15241 261918.400000
    985    990     1   0.12183 533627.360000
    985   2113     1   0.13789 357815.680000
    986    987     1   0.15375 251793.120000
    987    988     1   0.14619 275056.160000
   1005   1006     1   0.15110 237065.440000
   1005   1007     1   0.15110 237065.440000
   1005   1012     1   0.15110 237065.440000
   1006   1008     1   0.15375 251793.120000
   1007   1010     1   0.15375 251793.120000
   1008   1009     1   0.15241 261918.400000
   1009   2143     1   0.13789 357815.680000
   1009   1015     1   0.12183 533627.360000
   1010   1011     1   0.15241 261918.400000
   1011   1016     1   0.12183 533627.360000
   1011   2173     1   0.13789 357815.680000
   1012   1013     1   0.15375 251793.120000
   1013   1014     1   0.14619 275056.160000
   1031   1032     1   0.15110 237065.440000
   1031   1033     1   0.15110 237065.440000
   1031   1038     1   0.15110 237065.440000
   1032   1034     1   0.15375 251793.120000
   1033   1036     1   0.15375 251793.120000
   1034   1035     1   0.15241 261918.400000
   1035   2203     1   0.13789 357815.680000
   1035   1041     1   0.12183 533627.360000
   1036   1037     1   0.15241 261918.400000
   1037   1042     1   0.12183 533627.360000
   1037   2233     1   0.13789 357815.680000
   1038   1039     1   0.15375 251793.120000
   1039   1040     1   0.14619 275056.160000
   1057   1058     1   0.15110 237065.440000
   1057   1059     1   0.15110 237065.440000
   1057   1064     1   0.15110 237065.440000
   1058   1060     1   0.15375 251793.120000
   1059   1062     1   0.15375 251793.120000
   1060   1061     1   0.15241 261918.400000
   1061   2263     1   0.13789 357815.680000
   1061   1067     1   0.12183 533627.360000
   1062   1063     1   0.15241 261918.400000
   1063   1068     1   0.12183 533627.360000
   1063   2293     1   0.13789 357815.680000
   1064   1065     1   0.15375 251793.120000
   1065   1066     1   0.14619 275056.160000
   1083   1084     1   0.15110 237065.440000
   1083   1085     1   0.15110 237065.440000
   1083   1090     1   0.15110 237065.440000
   1084   1086     1   0.15375 251793.120000
   1085   1088     1   0.15375 251793.120000
   1086   1087     1   0.15241 261918.400000
   1087   2323     1   0.13789 357815.680000
   1087   1093     1   0.12183 533627.360000
   1088   1089     1   0.15241 261918.400000
   1089   1094     1   0.12183 533627.360000
   1089   2353     1   0.13789 357815.680000
   1090   1091     1   0.15375 251793.120000
   1091   1092     1   0.14619 275056.160000
   1109   1110     1   0.15110 237065.440000
   1109   1111     1   0.15110 237065.440000
   1109   1116     1   0.15110 237065.440000
   1110   1112     1   0.15375 251793.120000
   1111   1114     1   0.15375 251793.120000
   1112   1113     1   0.15241 261918.400000
   1113   2383     1   0.13789 357815.680000
   1113   1119     1   0.12183 533627.360000
   1114   1115     1   0.15241 261918.400000
   1115   1120     1   0.12183 533627.360000
   1115   2413     1   0.13789 357815.680000
   1116   1117     1   0.15375 251793.120000
   1117   1118     1   0.14619 275056.160000
   1135   1136     1   0.15110 237065.440000
   1135   1137     1   0.15110 237065.440000
   1135   1142     1   0.15110 237065.440000
   1136   1138     1   0.15375 251793.120000
   1137   1140     1   0.15375 251793.120000
   1138   1139     1   0.15241 261918.400000
   1139   2443     1   0.13789 357815.680000
   1139   1145     1   0.12183 533627.360000
   1140   1141     1   0.15241 261918.400000
   1141   1146     1   0.12183 533627.360000
   1141   2473     1   0.13789 357815.680000
   1142   1143     1   0.15375 251793.120000
   1143   1144     1   0.14619 275056.160000
   1161   1162     1   0.15110 237065.440000
   1161   1163     1   0.15110 237065.440000
   1161   1168     1   0.15110 237065.440000
   1162   1164     1   0.15375 251793.120000
   1163   1166     1   0.15375 251793.120000
   1164   1165     1   0.15241 261918.400000
   1165   2503     1   0.13789 357815.680000
   1165   1171     1   0.12183 533627.360000
   1166   1167     1   0.15241 261918.400000
   1167   1172     1   0.12183 533627.360000
   1167   2533     1   0.13789 357815.680000
   1168   1169     1   0.15375 251793.120000
   1169   1170     1   0.14619 275056.160000
   1187   1188     1   0.15110 237065.440000
   1187   1189     1   0.15110 237065.440000
   1187   1194     1   0.15110 237065.440000
   1188   1190     1   0.15375 251793.120000
   1189   1192     1   0.15375 251793.120000
   1190   1191     1   0.15241 261918.400000
   1191   2563     1   0.13789 357815.680000
   1191   1197     1   0.12183 533627.360000
   1192   1193     1   0.15241 261918.400000
   1193   1198     1   0.12183 533627.360000
   1193   2593     1   0.13789 357815.680000
   1194   1195     1   0.15375 251793.120000
   1195   1196     1   0.14619 275056.160000
   1213   1214     1   0.15110 237065.440000
   1213   1215     1   0.15110 237065.440000
   1213   1220     1   0.15110 237065.440000
   1214   1216     1   0.15375 251793.120000
   1215   1218     1   0.15375 251793.120000
   1216   1217     1   0.15241 261918.400000
   1217   2623     1   0.13789 357815.680000
   1217   1223     1   0.12183 533627.360000
   1218   1219     1   0.15241 261918.400000
   1219   1224     1   0.12183 533627.360000
   1219   2653     1   0.13789 357815.680000
   1220   1221     1   0.15375 251793.120000
   1221   1222     1   0.14619 275056.160000
   1239   1240     1   0.15110 237065.440000
   1239   1241     1   0.15110 237065.440000
   1239   1246     1   0.15110 237065.440000
   1240   1242     1   0.15375 251793.120000
   1241   1244     1   0.15375 251793.120000
   1242   1243     1   0.15241 261918.400000
   1243   2683     1   0.13789 357815.680000
   1243   1249     1   0.12183 533627.360000
   1244   1245     1   0.15241 261918.400000
   1245   1250     1   0.12183 533627.360000
   1245   2713     1   0.13789 357815.680000
   1246   1247     1   0.15375 251793.120000
   1247   1248     1   0.14619 275056.160000
   1265   1266     1   0.15110 237065.440000
   1265   1267     1   0.15110 237065.440000
   1265   1272     1   0.15110 237065.440000
   1266   1268     1   0.15375 251793.120000
   1267   1270     1   0.15375 251793.120000
   1268   1269     1   0.15241 261918.400000
   1269   2743     1   0.13789 357815.680000
   1269   1275     1   0.12183 533627.360000
   1270   1271     1   0.15241 261918.400000
   1271   1276     1   0.12183 533627.360000
   1271   2773     1   0.13789 357815.680000
   1272   1273     1   0.15375 251793.120000
   1273   1274     1   0.14619 275056.160000
   1291   1292     1   0.15110 237065.440000
   1291   1293     1   0.15110 237065.440000
   1291   1298     1   0.15110 237065.440000
   1292   1294     1   0.15375 251793.120000
   1293   1296     1   0.15375 251793.120000
   1294   1295     1   0.15241 261918.400000
   1295   2803     1   0.13789 357815.680000
   1295   1301     1   0.12183 533627.360000
   1296   1297     1   0.15241 261918.400000
   1297   1302     1   0.12183 533627.360000
   1297   2833     1   0.13789 357815.680000
   1298   1299     1   0.15375 251793.120000
   1299   1300     1   0.14619 275056.160000
   1317   1318     1   0.15110 237065.440000
   1317   1319     1   0.15110 237065.440000
   1317   1324     1   0.15110 237065.440000
   1318   1320     1   0.15375 251793.120000
   1319   1322     1   0.15375 251793.120000
   1320   1321     1   0.15241 261918.400000
   1321   2863     1   0.13789 357815.680000
   1321   1327     1   0.12183 533627.360000
   1322   1323     1   0.15241 261918.400000
   1323   1328     1   0.12183 533627.360000
   1323   2893     1   0.13789 357815.680000
   1324   1325     1   0.15375 251793.120000
   1325   1326     1   0.14619 275056.160000
   1343   1344     1   0.15110 237065.440000
   1343   1345     1   0.15110 237065.440000
   1343   1350     1   0.15110 237065.440000
   1344   1346     1   0.15375 251793.120000
   1345   1348     1   0.15375 251793.120000
   1346   1347     1   0.15241 261918.400000
   1347   2923     1   0.13789 357815.680000
   1347   1353     1   0.12183 533627.360000
   1348   1349     1   0.15241 261918.400000
   1349   1354     1   0.12183 533627.360000
   1349   2953     1   0.13789 357815.680000
   1350   1351     1   0.15375 251793.120000
   1351   1352     1   0.14619 275056.160000
   1369   1370     1   0.15110 237065.440000
   1369   1371     1   0.15110 237065.440000
   1369   1376     1   0.15110 237065.440000
   1370   1372     1   0.15375 251793.120000
   1371   1374     1   0.15375 251793.120000
   1372   1373     1   0.15241 261918.400000
   1373   2983     1   0.13789 357815.680000
   1373   1379     1   0.12183 533627.360000
   1374   1375     1   0.15241 261918.400000
   1375   1380     1   0.12183 533627.360000
   1375   3013     1   0.13789 357815.680000
   1376   1377     1   0.15375 251793.120000
   1377   1378     1   0.14619 275056.160000
   1395   1396     1   0.15110 237065.440000
   1395   1397     1   0.15110 237065.440000
   1395   1402     1   0.15110 237065.440000
   1396   1398     1   0.15375 251793.120000
   1397   1400     1   0.15375 251793.120000
   1398   1399     1   0.15241 261918.400000
   1399   3043     1   0.13789 357815.680000
   1399   1405     1   0.12183 533627.360000
   1400   1401     1   0.15241 261918.400000
   1401   1406     1   0.12183 533627.360000
   1401   3073     1   0.13789 357815.680000
   1402   1403     1   0.15375 251793.120000
   1403   1404     1   0.14619 275056.160000
   1421   1422     1   0.15110 237065.440000
   1421   1423     1   0.15110 237065.440000
   1421   1428     1   0.15110 237065.440000
   1422   1424     1   0.15375 251793.120000
   1423   1426     1   0.15375 251793.120000
   1424   1425     1   0.15241 261918.400000
   1425   3103     1   0.13789 357815.680000
   1425   1431     1   0.12183 533627.360000
   1426   1427     1   0.15241 261918.400000
   1427   1432     1   0.12183 533627.360000
   1427   3133     1   0.13789 357815.680000
   1428   1429     1   0.15375 251793.120000
   1429   1430     1   0.14619 275056.160000
   1447   1448     1   0.15110 237065.440000
   1447   1449     1   0.15110 237065.440000
   1447   1454     1   0.15110 237065.440000
   1448   1450     1   0.15375 251793.120000
   1449   1452     1   0.15375 251793.120000
   1450   1451     1   0.15241 261918.400000
   1451   3163     1   0.13789 357815.680000
   1451   1457     1   0.12183 533627.360000
   1452   1453     1   0.15241 261918.400000
   1453   1458     1   0.12183 533627.360000
   1453   3193     1   0.13789 357815.680000
   1454   1455     1   0.15375 251793.120000
   1455   1456     1   0.14619 275056.160000
   1473   1474     1   0.15110 237065.440000
   1473   1475     1   0.15110 237065.440000
   1473   1480     1   0.15110 237065.440000
   1474   1476     1   0.15375 251793.120000
   1475   1478     1   0.15375 251793.120000
   1476   1477     1   0.15241 261918.400000
   1477   3223     1   0.13789 357815.680000
   1477   1483     1   0.12183 533627.360000
   1478   1479     1   0.15241 261918.400000
   1479   1484     1   0.12183 533627.360000
   1479   3253     1   0.13789 357815.680000
   1480   1481     1   0.15375 251793.120000
   1481   1482     1   0.14619 275056.160000
   1499   1500     1   0.15110 237065.440000
   1499   1501     1   0.15110 237065.440000
   1499   1506     1   0.15110 237065.440000
   1500   1502     1   0.15375 251793.120000
   1501   1504     1   0.15375 251793.120000
   1502   1503     1   0.15241 261918.400000
   1503   3283     1   0.13789 357815.680000
   1503   1509     1   0.12183 533627.360000
   1504   1505     1   0.15241 261918.400000
   1505   1510     1   0.12183 533627.360000
   1505   3313     1   0.13789 357815.680000
   1506   1507     1   0.15375 251793.120000
   1507   1508     1   0.14619 275056.160000
   1525   1526     1   0.15110 237065.440000
   1525   1527     1   0.15110 237065.440000
   1525   1532     1   0.15110 237065.440000
   1526   1528     1   0.15375 251793.120000
   1527   1530     1   0.15375 251793.120000
   1528   1529     1   0.15241 261918.400000
   1529   3343     1   0.13789 357815.680000
   1529   1535     1   0.12183 533627.360000
   1530   1531     1   0.15241 261918.400000
   1531   1536     1   0.12183 533627.360000
   1531   3373     1   0.13789 357815.680000
   1532   1533     1   0.15375 251793.120000
   1533   1534     1   0.14619 275056.160000
   1551   1552     1   0.15110 237065.440000
   1551   1553     1   0.15110 237065.440000
   1551   1558     1   0.15110 237065.440000
   1552   1554     1   0.15375 251793.120000
   1553   1556     1   0.15375 251793.120000
   1554   1555     1   0.15241 261918.400000
   1555   3403     1   0.13789 357815.680000
   1555   1561     1   0.12183 533627.360000
   1556   1557     1   0.15241 261918.400000
   1557   1562     1   0.12183 533627.360000
   1557   3433     1   0.13789 357815.680000
   1558   1559     1   0.15375 251793.120000
   1559   1560     1   0.14619 275056.160000
   1577   1578     1   0.15110 237065.440000
   1577   1579     1   0.15110 237065.440000
   1577   1584     1   0.15110 237065.440000
   1578   1580     1   0.15375 251793.120000
   1579   1582     1   0.15375 251793.120000
   1580   1581     1   0.15241 261918.400000
   1581   3463     1   0.13789 357815.680000
   1581   1587     1   0.12183 533627.360000
   1582   1583     1   0.15241 261918.400000
   1583   3493     1   0.13789 357815.680000
   1583   1588     1   0.12183 533627.360000
   1584   1585     1   0.15375 251793.120000
   1585   1586     1   0.14619 275056.160000
   1603   1605     1   0.14619 275056.160000
   1605   1607     1   0.15375 251793.120000
   1607   1611     1   0.15110 237065.440000
   1611   1612     1   0.15110 237065.440000
   1611   1613     1   0.15110 237065.440000
   1612   1624     1   0.15375 251793.120000
   1613   1615     1   0.15375 251793.120000
   1615   1619     1   0.15241 261918.400000
   1619   1620     1   0.13513 334803.680000
   1619   1621     1   0.12183 533627.360000
   1624   1627     1   0.15241 261918.400000
   1627   1628     1   0.12183 533627.360000
   1627   1629     1   0.13513 334803.680000
   1633   1635     1   0.14619 275056.160000
   1635   1637     1   0.15375 251793.120000
   1637   1641     1   0.15110 237065.440000
   1641   1642     1   0.15110 237065.440000
   1641   1643     1   0.15110 237065.440000
   1642   1654     1   0.15375 251793.120000
   1643   1645     1   0.15375 251793.120000
   1645   1649     1   0.15241 261918.400000
   1649   1650     1   0.13513 334803.680000
   1649   1651     1   0.12183 533627.360000
   1654   1657     1   0.15241 261918.400000
   1657   1658     1   0.12183 533627.360000
   1657   1659     1   0.13513 334803.680000
   1663   1665     1   0.14619 275056.160000
   1665   1667     1   0.15375 251793.120000
   1667   1671     1   0.15110 237065.440000
   1671   1672     1   0.15110 237065.440000
   1671   1673     1   0.15110 237065.440000
   1672   1684     1   0.15375 251793.120000
   1673   1675     1   0.15375 251793.120000
   1675   1679     1   0.15241 261918.400000
   1679   1680     1   0.13513 334803.680000
   1679   1681     1   0.12183 533627.360000
   1684   1687     1   0.15241 261918.400000
   1687   1688     1   0.12183 533627.360000
   1687   1689     1   0.13513 334803.680000
   1693   1695     1   0.14619 275056.160000
   1695   1697     1   0.15375 251793.120000
   1697   1701     1   0.15110 237065.440000
   1701   1702     1   0.15110 237065.440000
   1701   1703     1   0.15110 237065.440000
   1702   1714     1   0.15375 251793.120000
   1703   1705     1   0.15375 251793.120000
   1705   1709     1   0.15241 261918.400000
   1709   1710     1   0.13513 334803.680000
   1709   1711     1   0.12183 533627.360000
   1714   1717     1   0.15241 261918.400000
   1717   1718     1   0.12183 533627.360000
   1717   1719     1   0.13513 334803.680000
   1723   1725     1   0.14619 275056.160000
   1725   1727     1   0.15375 251793.120000
   1727   1731     1   0.15110 237065.440000
   1731   1732     1   0.15110 237065.440000
   1731   1733     1   0.15110 237065.440000
   1732   1744     1   0.15375 251793.120000
   1733   1735     1   0.15375 251793.120000
   1735   1739     1   0.15241 261918.400000
   1739   1740     1   0.13513 334803.680000
   1739   1741     1   0.12183 533627.360000
   1744   1747     1   0.15241 261918.400000
   1747   1748     1   0.12183 533627.360000
   1747   1749     1   0.13513 334803.680000
   1753   1755     1   0.14619 275056.160000
   1755   1757     1   0.15375 251793.120000
   1757   1761     1   0.15110 237065.440000
   1761   1762     1   0.15110 237065.440000
   1761   1763     1   0.15110 237065.440000
   1762   1774     1   0.15375 251793.120000
   1763   1765     1   0.15375 251793.120000
   1765   1769     1   0.15241 261918.400000
   1769   1770     1   0.13513 334803.680000
   1769   1771     1   0.12183 533627.360000
   1774   1777     1   0.15241 261918.400000
   1777   1778     1   0.12183 533627.360000
   1777   1779     1   0.13513 334803.680000
   1783   1785     1   0.14619 275056.160000
   1785   1787     1   0.15375 251793.120000
   1787   1791     1   0.15110 237065.440000
   1791   1792     1   0.15110 237065.440000
   1791   1793     1   0.15110 237065.440000
   1792   1804     1   0.15375 251793.120000
   1793   1795     1   0.15375 251793.120000
   1795   1799     1   0.15241 261918.400000
   1799   1800     1   0.13513 334803.680000
   1799   1801     1   0.12183 533627.360000
   1804   1807     1   0.15241 261918.400000
   1807   1808     1   0.12183 533627.360000
   1807   1809     1   0.13513 334803.680000
   1813   1815     1   0.14619 275056.160000
   1815   1817     1   0.15375 251793.120000
   1817   1821     1   0.15110 237065.440000
   1821   1822     1   0.15110 237065.440000
   1821   1823     1   0.15110 237065.440000
   1822   1834     1   0.15375 251793.120000
   1823   1825     1   0.15375 251793.120000
   1825   1829     1   0.15241 261918.400000
   1829   1830     1   0.13513 334803.680000
   1829   1831     1   0.12183 533627.360000
   1834   1837     1   0.15241 261918.400000
   1837   1838     1   0.12183 533627.360000
   1837   1839     1   0.13513 334803.680000
   1843   1845     1   0.14619 275056.160000
   1845   1847     1   0.15375 251793.120000
   1847   1851     1   0.15110 237065.440000
   1851   1852     1   0.15110 237065.440000
   1851   1853     1   0.15110 237065.440000
   1852   1864     1   0.15375 251793.120000
   1853   1855     1   0.15375 251793.120000
   1855   1859     1   0.15241 261918.400000
   1859   1860     1   0.13513 334803.680000
   1859   1861     1   0.12183 533627.360000
   1864   1867     1   0.15241 261918.400000
   1867   1868     1   0.12183 533627.360000
   1867   1869     1   0.13513 334803.680000
   1873   1875     1   0.14619 275056.160000
   1875   1877     1   0.15375 251793.120000
   1877   1881     1   0.15110 237065.440000
   1881   1882     1   0.15110 237065.440000
   1881   1883     1   0.15110 237065.440000
   1882   1894     1   0.15375 251793.120000
   1883   1885     1   0.15375 251793.120000
   1885   1889     1   0.15241 261918.400000
   1889   1890     1   0.13513 334803.680000
   1889   1891     1   0.12183 533627.360000
   1894   1897     1   0.15241 261918.400000
   1897   1898     1   0.12183 533627.360000
   1897   1899     1   0.13513 334803.680000
   1903   1905     1   0.14619 275056.160000
   1905   1907     1   0.15375 251793.120000
   1907   1911     1   0.15110 237065.440000
   1911   1912     1   0.15110 237065.440000
   1911   1913     1   0.15110 237065.440000
   1912   1924     1   0.15375 251793.120000
   1913   1915     1   0.15375 251793.120000
   1915   1919     1   0.15241 261918.400000
   1919   1920     1   0.13513 334803.680000
   1919   1921     1   0.12183 533627.360000
   1924   1927     1   0.15241 261918.400000
   1927   1928     1   0.12183 533627.360000
   1927   1929     1   0.13513 334803.680000
   1933   1935     1   0.14619 275056.160000
   1935   1937     1   0.15375 251793.120000
   1937   1941     1   0.15110 237065.440000
   1941   1942     1   0.15110 237065.440000
   1941   1943     1   0.15110 237065.440000
   1942   1954     1   0.15375 251793.120000
   1943   1945     1   0.15375 251793.120000
   1945   1949     1   0.15241 261918.400000
   1949   1950     1   0.13513 334803.680000
   1949   1951     1   0.12183 533627.360000
   1954   1957     1   0.15241 261918.400000
   1957   1958     1   0.12183 533627.360000
   1957   1959     1   0.13513 334803.680000
   1963   1965     1   0.14619 275056.160000
   1965   1967     1   0.15375 251793.120000
   1967   1971     1   0.15110 237065.440000
   1971   1972     1   0.15110 237065.440000
   1971   1973     1   0.15110 237065.440000
   1972   1984     1   0.15375 251793.120000
   1973   1975     1   0.15375 251793.120000
   1975   1979     1   0.15241 261918.400000
   1979   1980     1   0.13513 334803.680000
   1979   1981     1   0.12183 533627.360000
   1984   1987     1   0.15241 261918.400000
   1987   1988     1   0.12183 533627.360000
   1987   1989     1   0.13513 334803.680000
   1993   1995     1   0.14619 275056.160000
   1995   1997     1   0.15375 251793.120000
   1997   2001     1   0.15110 237065.440000
   2001   2002     1   0.15110 237065.440000
   2001   2003     1   0.15110 237065.440000
   2002   2014     1   0.15375 251793.120000
   2003   2005     1   0.15375 251793.120000
   2005   2009     1   0.15241 261918.400000
   2009   2010     1   0.13513 334803.680000
   2009   2011     1   0.12183 533627.360000
   2014   2017     1   0.15241 261918.400000
   2017   2018     1   0.12183 533627.360000
   2017   2019     1   0.13513 334803.680000
   2023   2025     1   0.14619 275056.160000
   2025   2027     1   0.15375 251793.120000
   2027   2031     1   0.15110 237065.440000
   2031   2032     1   0.15110 237065.440000
   2031   2033     1   0.15110 237065.440000
   2032   2044     1   0.15375 251793.120000
   2033   2035     1   0.15375 251793.120000
   2035   2039     1   0.15241 261918.400000
   2039   2040     1   0.13513 334803.680000
   2039   2041     1   0.12183 533627.360000
   2044   2047     1   0.15241 261918.400000
   2047   2048     1   0.12183 533627.360000
   2047   2049     1   0.13513 334803.680000
   2053   2055     1   0.14619 275056.160000
   2055   2057     1   0.15375 251793.120000
   2057   2061     1   0.15110 237065.440000
   2061   2062     1   0.15110 237065.440000
   2061   2063     1   0.15110 237065.440000
   2062   2074     1   0.15375 251793.120000
   2063   2065     1   0.15375 251793.120000
   2065   2069     1   0.15241 261918.400000
   2069   2070     1   0.13513 334803.680000
   2069   2071     1   0.12183 533627.360000
   2074   2077     1   0.15241 261918.400000
   2077   2078     1   0.12183 533627.360000
   2077   2079     1   0.13513 334803.680000
   2083   2085     1   0.14619 275056.160000
   2085   2087     1   0.15375 251793.120000
   2087   2091     1   0.15110 237065.440000
   2091   2092     1   0.15110 237065.440000
   2091   2093     1   0.15110 237065.440000
   2092   2104     1   0.15375 251793.120000
   2093   2095     1   0.15375 251793.120000
   2095   2099     1   0.15241 261918.400000
   2099   2100     1   0.13513 334803.680000
   2099   2101     1   0.12183 533627.360000
   2104   2107     1   0.15241 261918.400000
   2107   2108     1   0.12183 533627.360000
   2107   2109     1   0.13513 334803.680000
   2113   2115     1   0.14619 275056.160000
   2115   2117     1   0.15375 251793.120000
   2117   2121     1   0.15110 237065.440000
   2121   2122     1   0.15110 237065.440000
   2121   2123     1   0.15110 237065.440000
   2122   2134     1   0.15375 251793.120000
   2123   2125     1   0.15375 251793.120000
   2125   2129     1   0.15241 261918.400000
   2129   2130     1   0.13513 334803.680000
   2129   2131     1   0.12183 533627.360000
   2134   2137     1   0.15241 261918.400000
   2137   2138     1   0.12183 533627.360000
   2137   2139     1   0.13513 334803.680000
   2143   2145     1   0.14619 275056.160000
   2145   2147     1   0.15375 251793.120000
   2147   2151     1   0.15110 237065.440000
   2151   2152     1   0.15110 237065.440000
   2151   2153     1   0.15110 237065.440000
   2152   2164     1   0.15375 251793.120000
   2153   2155     1   0.15375 251793.120000
   2155   2159     1   0.15241 261918.400000
   2159   2160     1   0.13513 334803.680000
   2159   2161     1   0.12183 533627.360000
   2164   2167     1   0.15241 261918.400000
   2167   2168     1   0.12183 533627.360000
   2167   2169     1   0.13513 334803.680000
   2173   2175     1   0.14619 275056.160000
   2175   2177     1   0.15375 251793.120000
   2177   2181     1   0.15110 237065.440000
   2181   2182     1   0.15110 237065.440000
   2181   2183     1   0.15110 237065.440000
   2182   2194     1   0.15375 251793.120000
   2183   2185     1   0.15375 251793.120000
   2185   2189     1   0.15241 261918.400000
   2189   2190     1   0.13513 334803.680000
   2189   2191     1   0.12183 533627.360000
   2194   2197     1   0.15241 261918.400000
   2197   2198     1   0.12183 533627.360000
   2197   2199     1   0.13513 334803.680000
   2203   2205     1   0.14619 275056.160000
   2205   2207     1   0.15375 251793.120000
   2207   2211     1   0.15110 237065.440000
   2211   2212     1   0.15110 237065.440000
   2211   2213     1   0.15110 237065.440000
   2212   2224     1   0.15375 251793.120000
   2213   2215     1   0.15375 251793.120000
   2215   2219     1   0.15241 261918.400000
   2219   2220     1   0.13513 334803.680000
   2219   2221     1   0.12183 533627.360000
   2224   2227     1   0.15241 261918.400000
   2227   2228     1   0.12183 533627.360000
   2227   2229     1   0.13513 334803.680000
   2233   2235     1   0.14619 275056.160000
   2235   2237     1   0.15375 251793.120000
   2237   2241     1   0.15110 237065.440000
   2241   2242     1   0.15110 237065.440000
   2241   2243     1   0.15110 237065.440000
   2242   2254     1   0.15375 251793.120000
   2243   2245     1   0.15375 251793.120000
   2245   2249     1   0.15241 261918.400000
   2249   2250     1   0.13513 334803.680000
   2249   2251     1   0.12183 533627.360000
   2254   2257     1   0.15241 261918.400000
   2257   2258     1   0.12183 533627.360000
   2257   2259     1   0.13513 334803.680000
   2263   2265     1   0.14619 275056.160000
   2265   2267     1   0.15375 251793.120000
   2267   2271     1   0.15110 237065.440000
   2271   2272     1   0.15110 237065.440000
   2271   2273     1   0.15110 237065.440000
   2272   2284     1   0.15375 251793.120000
   2273   2275     1   0.15375 251793.120000
   2275   2279     1   0.15241 261918.400000
   2279   2280     1   0.13513 334803.680000
   2279   2281     1   0.12183 533627.360000
   2284   2287     1   0.15241 261918.400000
   2287   2288     1   0.12183 533627.360000
   2287   2289     1   0.13513 334803.680000
   2293   2295     1   0.14619 275056.160000
   2295   2297     1   0.15375 251793.120000
   2297   2301     1   0.15110 237065.440000
   2301   2302     1   0.15110 237065.440000
   2301   2303     1   0.15110 237065.440000
   2302   2314     1   0.15375 251793.120000
   2303   2305     1   0.15375 251793.120000
   2305   2309     1   0.15241 261918.400000
   2309   2310     1   0.13513 334803.680000
   2309   2311     1   0.12183 533627.360000
   2314   2317     1   0.15241 261918.400000
   2317   2318     1   0.12183 533627.360000
   2317   2319     1   0.13513 334803.680000
   2323   2325     1   0.14619 275056.160000
   2325   2327     1   0.15375 251793.120000
   2327   2331     1   0.15110 237065.440000
   2331   2332     1   0.15110 237065.440000
   2331   2333     1   0.15110 237065.440000
   2332   2344     1   0.15375 251793.120000
   2333   2335     1   0.15375 251793.120000
   2335   2339     1   0.15241 261918.400000
   2339   2340     1   0.13513 334803.680000
   2339   2341     1   0.12183 533627.360000
   2344   2347     1   0.15241 261918.400000
   2347   2348     1   0.12183 533627.360000
   2347   2349     1   0.13513 334803.680000
   2353   2355     1   0.14619 275056.160000
   2355   2357     1   0.15375 251793.120000
   2357   2361     1   0.15110 237065.440000
   2361   2362     1   0.15110 237065.440000
   2361   2363     1   0.15110 237065.440000
   2362   2374     1   0.15375 251793.120000
   2363   2365     1   0.15375 251793.120000
   2365   2369     1   0.15241 261918.400000
   2369   2370     1   0.13513 334803.680000
   2369   2371     1   0.12183 533627.360000
   2374   2377     1   0.15241 261918.400000
   2377   2378     1   0.12183 533627.360000
   2377   2379     1   0.13513 334803.680000
   2383   2385     1   0.14619 275056.160000
   2385   2387     1   0.15375 251793.120000
   2387   2391     1   0.15110 237065.440000
   2391   2392     1   0.15110 237065.440000
   2391   2393     1   0.15110 237065.440000
   2392   2404     1   0.15375 251793.120000
   2393   2395     1   0.15375 251793.120000
   2395   2399     1   0.15241 261918.400000
   2399   2400     1   0.13513 334803.680000
   2399   2401     1   0.12183 533627.360000
   2404   2407     1   0.15241 261918.400000
   2407   2408     1   0.12183 533627.360000
   2407   2409     1   0.13513 334803.680000
   2413   2415     1   0.14619 275056.160000
   2415   2417     1   0.15375 251793.120000
   2417   2421     1   0.15110 237065.440000
   2421   2422     1   0.15110 237065.440000
   2421   2423     1   0.15110 237065.440000
   2422   2434     1   0.15375 251793.120000
   2423   2425     1   0.15375 251793.120000
   2425   2429     1   0.15241 261918.400000
   2429   2430     1   0.13513 334803.680000
   2429   2431     1   0.12183 533627.360000
   2434   2437     1   0.15241 261918.400000
   2437   2438     1   0.12183 533627.360000
   2437   2439     1   0.13513 334803.680000
   2443   2445     1   0.14619 275056.160000
   2445   2447     1   0.15375 251793.120000
   2447   2451     1   0.15110 237065.440000
   2451   2452     1   0.15110 237065.440000
   2451   2453     1   0.15110 237065.440000
   2452   2464     1   0.15375 251793.120000
   2453   2455     1   0.15375 251793.120000
   2455   2459     1   0.15241 261918.400000
   2459   2460     1   0.13513 334803.680000
   2459   2461     1   0.12183 533627.360000
   2464   2467     1   0.15241 261918.400000
   2467   2468     1   0.12183 533627.360000
   2467   2469     1   0.13513 334803.680000
   2473   2475     1   0.14619 275056.160000
   2475   2477     1   0.15375 251793.120000
   2477   2481     1   0.15110 237065.440000
   2481   2482     1   0.15110 237065.440000
   2481   2483     1   0.15110 237065.440000
   2482   2494     1   0.15375 251793.120000
   2483   2485     1   0.15375 251793.120000
   2485   2489     1   0.15241 261918.400000
   2489   2490     1   0.13513 334803.680000
   2489   2491     1   0.12183 533627.360000
   2494   2497     1   0.15241 261918.400000
   2497   2498     1   0.12183 533627.360000
   2497   2499     1   0.13513 334803.680000
   2503   2505     1   0.14619 275056.160000
   2505   2507     1   0.15375 251793.120000
   2507   2511     1   0.15110 237065.440000
   2511   2512     1   0.15110 237065.440000
   2511   2513     1   0.15110 237065.440000
   2512   2524     1   0.15375 251793.120000
   2513   2515     1   0.15375 251793.120000
   2515   2519     1   0.15241 261918.400000
   2519   2520     1   0.13513 334803.680000
   2519   2521     1   0.12183 533627.360000
   2524   2527     1   0.15241 261918.400000
   2527   2528     1   0.12183 533627.360000
   2527   2529     1   0.13513 334803.680000
   2533   2535     1   0.14619 275056.160000
   2535   2537     1   0.15375 251793.120000
   2537   2541     1   0.15110 237065.440000
   2541   2542     1   0.15110 237065.440000
   2541   2543     1   0.15110 237065.440000
   2542   2554     1   0.15375 251793.120000
   2543   2545     1   0.15375 251793.120000
   2545   2549     1   0.15241 261918.400000
   2549   2550     1   0.13513 334803.680000
   2549   2551     1   0.12183 533627.360000
   2554   2557     1   0.15241 261918.400000
   2557   2558     1   0.12183 533627.360000
   2557   2559     1   0.13513 334803.680000
   2563   2565     1   0.14619 275056.160000
   2565   2567     1   0.15375 251793.120000
   2567   2571     1   0.15110 237065.440000
   2571   2572     1   0.15110 237065.440000
   2571   2573     1   0.15110 237065.440000
   2572   2584     1   0.15375 251793.120000
   2573   2575     1   0.15375 251793.120000
   2575   2579     1   0.15241 261918.400000
   2579   2580     1   0.13513 334803.680000
   2579   2581     1   0.12183 533627.360000
   2584   2587     1   0.15241 261918.400000
   2587   2588     1   0.12183 533627.360000
   2587   2589     1   0.13513 334803.680000
   2593   2595     1   0.14619 275056.160000
   2595   2597     1   0.15375 251793.120000
   2597   2601     1   0.15110 237065.440000
   2601   2602     1   0.15110 237065.440000
   2601   2603     1   0.15110 237065.440000
   2602   2614     1   0.15375 251793.120000
   2603   2605     1   0.15375 251793.120000
   2605   2609     1   0.15241 261918.400000
   2609   2610     1   0.13513 334803.680000
   2609   2611     1   0.12183 533627.360000
   2614   2617     1   0.15241 261918.400000
   2617   2618     1   0.12183 533627.360000
   2617   2619     1   0.13513 334803.680000
   2623   2625     1   0.14619 275056.160000
   2625   2627     1   0.15375 251793.120000
   2627   2631     1   0.15110 237065.440000
   2631   2632     1   0.15110 237065.440000
   2631   2633     1   0.15110 237065.440000
   2632   2644     1   0.15375 251793.120000
   2633   2635     1   0.15375 251793.120000
   2635   2639     1   0.15241 261918.400000
   2639   2640     1   0.13513 334803.680000
   2639   2641     1   0.12183 533627.360000
   2644   2647     1   0.15241 261918.400000
   2647   2648     1   0.12183 533627.360000
   2647   2649     1   0.13513 334803.680000
   2653   2655     1   0.14619 275056.160000
   2655   2657     1   0.15375 251793.120000
   2657   2661     1   0.15110 237065.440000
   2661   2662     1   0.15110 237065.440000
   2661   2663     1   0.15110 237065.440000
   2662   2674     1   0.15375 251793.120000
   2663   2665     1   0.15375 251793.120000
   2665   2669     1   0.15241 261918.400000
   2669   2670     1   0.13513 334803.680000
   2669   2671     1   0.12183 533627.360000
   2674   2677     1   0.15241 261918.400000
   2677   2678     1   0.12183 533627.360000
   2677   2679     1   0.13513 334803.680000
   2683   2685     1   0.14619 275056.160000
   2685   2687     1   0.15375 251793.120000
   2687   2691     1   0.15110 237065.440000
   2691   2692     1   0.15110 237065.440000
   2691   2693     1   0.15110 237065.440000
   2692   2704     1   0.15375 251793.120000
   2693   2695     1   0.15375 251793.120000
   2695   2699     1   0.15241 261918.400000
   2699   2700     1   0.13513 334803.680000
   2699   2701     1   0.12183 533627.360000
   2704   2707     1   0.15241 261918.400000
   2707   2708     1   0.12183 533627.360000
   2707   2709     1   0.13513 334803.680000
   2713   2715     1   0.14619 275056.160000
   2715   2717     1   0.15375 251793.120000
   2717   2721     1   0.15110 237065.440000
   2721   2722     1   0.15110 237065.440000
   2721   2723     1   0.15110 237065.440000
   2722   2734     1   0.15375 251793.120000
   2723   2725     1   0.15375 251793.120000
   2725   2729     1   0.15241 261918.400000
   2729   2730     1   0.13513 334803.680000
   2729   2731     1   0.12183 533627.360000
   2734   2737     1   0.15241 261918.400000
   2737   2738     1   0.12183 533627.360000
   2737   2739     1   0.13513 334803.680000
   2743   2745     1   0.14619 275056.160000
   2745   2747     1   0.15375 251793.120000
   2747   2751     1   0.15110 237065.440000
   2751   2752     1   0.15110 237065.440000
   2751   2753     1   0.15110 237065.440000
   2752   2764     1   0.15375 251793.120000
   2753   2755     1   0.15375 251793.120000
   2755   2759     1   0.15241 261918.400000
   2759   2760     1   0.13513 334803.680000
   2759   2761     1   0.12183 533627.360000
   2764   2767     1   0.15241 261918.400000
   2767   2768     1   0.12183 533627.360000
   2767   2769     1   0.13513 334803.680000
   2773   2775     1   0.14619 275056.160000
   2775   2777     1   0.15375 251793.120000
   2777   2781     1   0.15110 237065.440000
   2781   2782     1   0.15110 237065.440000
   2781   2783     1   0.15110 237065.440000
   2782   2794     1   0.15375 251793.120000
   2783   2785     1   0.15375 251793.120000
   2785   2789     1   0.15241 261918.400000
   2789   2790     1   0.13513 334803.680000
   2789   2791     1   0.12183 533627.360000
   2794   2797     1   0.15241 261918.400000
   2797   2798     1   0.12183 533627.360000
   2797   2799     1   0.13513 334803.680000
   2803   2805     1   0.14619 275056.160000
   2805   2807     1   0.15375 251793.120000
   2807   2811     1   0.15110 237065.440000
   2811   2812     1   0.15110 237065.440000
   2811   2813     1   0.15110 237065.440000
   2812   2824     1   0.15375 251793.120000
   2813   2815     1   0.15375 251793.120000
   2815   2819     1   0.15241 261918.400000
   2819   2820     1   0.13513 334803.680000
   2819   2821     1   0.12183 533627.360000
   2824   2827     1   0.15241 261918.400000
   2827   2828     1   0.12183 533627.360000
   2827   2829     1   0.13513 334803.680000
   2833   2835     1   0.14619 275056.160000
   2835   2837     1   0.15375 251793.120000
   2837   2841     1   0.15110 237065.440000
   2841   2842     1   0.15110 237065.440000
   2841   2843     1   0.15110 237065.440000
   2842   2854     1   0.15375 251793.120000
   2843   2845     1   0.15375 251793.120000
   2845   2849     1   0.15241 261918.400000
   2849   2850     1   0.13513 334803.680000
   2849   2851     1   0.12183 533627.360000
   2854   2857     1   0.15241 261918.400000
   2857   2858     1   0.12183 533627.360000
   2857   2859     1   0.13513 334803.680000
   2863   2865     1   0.14619 275056.160000
   2865   2867     1   0.15375 251793.120000
   2867   2871     1   0.15110 237065.440000
   2871   2872     1   0.15110 237065.440000
   2871   2873     1   0.15110 237065.440000
   2872   2884     1   0.15375 251793.120000
   2873   2875     1   0.15375 251793.120000
   2875   2879     1   0.15241 261918.400000
   2879   2880     1   0.13513 334803.680000
   2879   2881     1   0.12183 533627.360000
   2884   2887     1   0.15241 261918.400000
   2887   2888     1   0.12183 533627.360000
   2887   2889     1   0.13513 334803.680000
   2893   2895     1   0.14619 275056.160000
   2895   2897     1   0.15375 251793.120000
   2897   2901     1   0.15110 237065.440000
   2901   2902     1   0.15110 237065.440000
   2901   2903     1   0.15110 237065.440000
   2902   2914     1   0.15375 251793.120000
   2903   2905     1   0.15375 251793.120000
   2905   2909     1   0.15241 261918.400000
   2909   2910     1   0.13513 334803.680000
   2909   2911     1   0.12183 533627.360000
   2914   2917     1   0.15241 261918.400000
   2917   2918     1   0.12183 533627.360000
   2917   2919     1   0.13513 334803.680000
   2923   2925     1   0.14619 275056.160000
   2925   2927     1   0.15375 251793.120000
   2927   2931     1   0.15110 237065.440000
   2931   2932     1   0.15110 237065.440000
   2931   2933     1   0.15110 237065.440000
   2932   2944     1   0.15375 251793.120000
   2933   2935     1   0.15375 251793.120000
   2935   2939     1   0.15241 261918.400000
   2939   2940     1   0.13513 334803.680000
   2939   2941     1   0.12183 533627.360000
   2944   2947     1   0.15241 261918.400000
   2947   2948     1   0.12183 533627.360000
   2947   2949     1   0.13513 334803.680000
   2953   2955     1   0.14619 275056.160000
   2955   2957     1   0.15375 251793.120000
   2957   2961     1   0.15110 237065.440000
   2961   2962     1   0.15110 237065.440000
   2961   2963     1   0.15110 237065.440000
   2962   2974     1   0.15375 251793.120000
   2963   2965     1   0.15375 251793.120000
   2965   2969     1   0.15241 261918.400000
   2969   2970     1   0.13513 334803.680000
   2969   2971     1   0.12183 533627.360000
   2974   2977     1   0.15241 261918.400000
   2977   2978     1   0.12183 533627.360000
   2977   2979     1   0.13513 334803.680000
   2983   2985     1   0.14619 275056.160000
   2985   2987     1   0.15375 251793.120000
   2987   2991     1   0.15110 237065.440000
   2991   2992     1   0.15110 237065.440000
   2991   2993     1   0.15110 237065.440000
   2992   3004     1   0.15375 251793.120000
   2993   2995     1   0.15375 251793.120000
   2995   2999     1   0.15241 261918.400000
   2999   3000     1   0.13513 334803.680000
   2999   3001     1   0.12183 533627.360000
   3004   3007     1   0.15241 261918.400000
   3007   3008     1   0.12183 533627.360000
   3007   3009     1   0.13513 334803.680000
   3013   3015     1   0.14619 275056.160000
   3015   3017     1   0.15375 251793.120000
   3017   3021     1   0.15110 237065.440000
   3021   3022     1   0.15110 237065.440000
   3021   3023     1   0.15110 237065.440000
   3022   3034     1   0.15375 251793.120000
   3023   3025     1   0.15375 251793.120000
   3025   3029     1   0.15241 261918.400000
   3029   3030     1   0.13513 334803.680000
   3029   3031     1   0.12183 533627.360000
   3034   3037     1   0.15241 261918.400000
   3037   3038     1   0.12183 533627.360000
   3037   3039     1   0.13513 334803.680000
   3043   3045     1   0.14619 275056.160000
   3045   3047     1   0.15375 251793.120000
   3047   3051     1   0.15110 237065.440000
   3051   3052     1   0.15110 237065.440000
   3051   3053     1   0.15110 237065.440000
   3052   3064     1   0.15375 251793.120000
   3053   3055     1   0.15375 251793.120000
   3055   3059     1   0.15241 261918.400000
   3059   3060     1   0.13513 334803.680000
   3059   3061     1   0.12183 533627.360000
   3064   3067     1   0.15241 261918.400000
   3067   3068     1   0.12183 533627.360000
   3067   3069     1   0.13513 334803.680000
   3073   3075     1   0.14619 275056.160000
   3075   3077     1   0.15375 251793.120000
   3077   3081     1   0.15110 237065.440000
   3081   3082     1   0.15110 237065.440000
   3081   3083     1   0.15110 237065.440000
   3082   3094     1   0.15375 251793.120000
   3083   3085     1   0.15375 251793.120000
   3085   3089     1   0.15241 261918.400000
   3089   3090     1   0.13513 334803.680000
   3089   3091     1   0.12183 533627.360000
   3094   3097     1   0.15241 261918.400000
   3097   3098     1   0.12183 533627.360000
   3097   3099     1   0.13513 334803.680000
   3103   3105     1   0.14619 275056.160000
   3105   3107     1   0.15375 251793.120000
   3107   3111     1   0.15110 237065.440000
   3111   3112     1   0.15110 237065.440000
   3111   3113     1   0.15110 237065.440000
   3112   3124     1   0.15375 251793.120000
   3113   3115     1   0.15375 251793.120000
   3115   3119     1   0.15241 261918.400000
   3119   3120     1   0.13513 334803.680000
   3119   3121     1   0.12183 533627.360000
   3124   3127     1   0.15241 261918.400000
   3127   3128     1   0.12183 533627.360000
   3127   3129     1   0.13513 334803.680000
   3133   3135     1   0.14619 275056.160000
   3135   3137     1   0.15375 251793.120000
   3137   3141     1   0.15110 237065.440000
   3141   3142     1   0.15110 237065.440000
   3141   3143     1   0.15110 237065.440000
   3142   3154     1   0.15375 251793.120000
   3143   3145     1   0.15375 251793.120000
   3145   3149     1   0.15241 261918.400000
   3149   3150     1   0.13513 334803.680000
   3149   3151     1   0.12183 533627.360000
   3154   3157     1   0.15241 261918.400000
   3157   3158     1   0.12183 533627.360000
   3157   3159     1   0.13513 334803.680000
   3163   3165     1   0.14619 275056.160000
   3165   3167     1   0.15375 251793.120000
   3167   3171     1   0.15110 237065.440000
   3171   3172     1   0.15110 237065.440000
   3171   3173     1   0.15110 237065.440000
   3172   3184     1   0.15375 251793.120000
   3173   3175     1   0.15375 251793.120000
   3175   3179     1   0.15241 261918.400000
   3179   3180     1   0.13513 334803.680000
   3179   3181     1   0.12183 533627.360000
   3184   3187     1   0.15241 261918.400000
   3187   3188     1   0.12183 533627.360000
   3187   3189     1   0.13513 334803.680000
   3193   3195     1   0.14619 275056.160000
   3195   3197     1   0.15375 251793.120000
   3197   3201     1   0.15110 237065.440000
   3201   3202     1   0.15110 237065.440000
   3201   3203     1   0.15110 237065.440000
   3202   3214     1   0.15375 251793.120000
   3203   3205     1   0.15375 251793.120000
   3205   3209     1   0.15241 261918.400000
   3209   3210     1   0.13513 334803.680000
   3209   3211     1   0.12183 533627.360000
   3214   3217     1   0.15241 261918.400000
   3217   3218     1   0.12183 533627.360000
   3217   3219     1   0.13513 334803.680000
   3223   3225     1   0.14619 275056.160000
   3225   3227     1   0.15375 251793.120000
   3227   3231     1   0.15110 237065.440000
   3231   3232     1   0.15110 237065.440000
   3231   3233     1   0.15110 237065.440000
   3232   3244     1   0.15375 251793.120000
   3233   3235     1   0.15375 251793.120000
   3235   3239     1   0.15241 261918.400000
   3239   3240     1   0.13513 334803.680000
   3239   3241     1   0.12183 533627.360000
   3244   3247     1   0.15241 261918.400000
   3247   3248     1   0.12183 533627.360000
   3247   3249     1   0.13513 334803.680000
   3253   3255     1   0.14619 275056.160000
   3255   3257     1   0.15375 251793.120000
   3257   3261     1   0.15110 237065.440000
   3261   3262     1   0.15110 237065.440000
   3261   3263     1   0.15110 237065.440000
   3262   3274     1   0.15375 251793.120000
   3263   3265     1   0.15375 251793.120000
   3265   3269     1   0.15241 261918.400000
   3269   3270     1   0.13513 334803.680000
   3269   3271     1   0.12183 533627.360000
   3274   3277     1   0.15241 261918.400000
   3277   3278     1   0.12183 533627.360000
   3277   3279     1   0.13513 334803.680000
   3283   3285     1   0.14619 275056.160000
   3285   3287     1   0.15375 251793.120000
   3287   3291     1   0.15110 237065.440000
   3291   3292     1   0.15110 237065.440000
   3291   3293     1   0.15110 237065.440000
   3292   3304     1   0.15375 251793.120000
   3293   3295     1   0.15375 251793.120000
   3295   3299     1   0.15241 261918.400000
   3299   3300     1   0.13513 334803.680000
   3299   3301     1   0.12183 533627.360000
   3304   3307     1   0.15241 261918.400000
   3307   3308     1   0.12183 533627.360000
   3307   3309     1   0.13513 334803.680000
   3313   3315     1   0.14619 275056.160000
   3315   3317     1   0.15375 251793.120000
   3317   3321     1   0.15110 237065.440000
   3321   3322     1   0.15110 237065.440000
   3321   3323     1   0.15110 237065.440000
   3322   3334     1   0.15375 251793.120000
   3323   3325     1   0.15375 251793.120000
   3325   3329     1   0.15241 261918.400000
   3329   3330     1   0.13513 334803.680000
   3329   3331     1   0.12183 533627.360000
   3334   3337     1   0.15241 261918.400000
   3337   3338     1   0.12183 533627.360000
   3337   3339     1   0.13513 334803.680000
   3343   3345     1   0.14619 275056.160000
   3345   3347     1   0.15375 251793.120000
   3347   3351     1   0.15110 237065.440000
   3351   3352     1   0.15110 237065.440000
   3351   3353     1   0.15110 237065.440000
   3352   3364     1   0.15375 251793.120000
   3353   3355     1   0.15375 251793.120000
   3355   3359     1   0.15241 261918.400000
   3359   3360     1   0.13513 334803.680000
   3359   3361     1   0.12183 533627.360000
   3364   3367     1   0.15241 261918.400000
   3367   3368     1   0.12183 533627.360000
   3367   3369     1   0.13513 334803.680000
   3373   3375     1   0.14619 275056.160000
   3375   3377     1   0.15375 251793.120000
   3377   3381     1   0.15110 237065.440000
   3381   3382     1   0.15110 237065.440000
   3381   3383     1   0.15110 237065.440000
   3382   3394     1   0.15375 251793.120000
   3383   3385     1   0.15375 251793.120000
   3385   3389     1   0.15241 261918.400000
   3389   3390     1   0.13513 334803.680000
   3389   3391     1   0.12183 533627.360000
   3394   3397     1   0.15241 261918.400000
   3397   3398     1   0.12183 533627.360000
   3397   3399     1   0.13513 334803.680000
   3403   3405     1   0.14619 275056.160000
   3405   3407     1   0.15375 251793.120000
   3407   3411     1   0.15110 237065.440000
   3411   3412     1   0.15110 237065.440000
   3411   3413     1   0.15110 237065.440000
   3412   3424     1   0.15375 251793.120000
   3413   3415     1   0.15375 251793.120000
   3415   3419     1   0.15241 261918.400000
   3419   3420     1   0.13513 334803.680000
   3419   3421     1   0.12183 533627.360000
   3424   3427     1   0.15241 261918.400000
   3427   3428     1   0.12183 533627.360000
   3427   3429     1   0.13513 334803.680000
   3433   3435     1   0.14619 275056.160000
   3435   3437     1   0.15375 251793.120000
   3437   3441     1   0.15110 237065.440000
   3441   3442     1   0.15110 237065.440000
   3441   3443     1   0.15110 237065.440000
   3442   3454     1   0.15375 251793.120000
   3443   3445     1   0.15375 251793.120000
   3445   3449     1   0.15241 261918.400000
   3449   3450     1   0.13513 334803.680000
   3449   3451     1   0.12183 533627.360000
   3454   3457     1   0.15241 261918.400000
   3457   3458     1   0.12183 533627.360000
   3457   3459     1   0.13513 334803.680000
   3463   3465     1   0.14619 275056.160000
   3465   3467     1   0.15375 251793.120000
   3467   3471     1   0.15110 237065.440000
   3471   3472     1   0.15110 237065.440000
   3471   3473     1   0.15110 237065.440000
   3472   3484     1   0.15375 251793.120000
   3473   3475     1   0.15375 251793.120000
   3475   3479     1   0.15241 261918.400000
   3479   3480     1   0.13513 334803.680000
   3479   3481     1   0.12183 533627.360000
   3484   3487     1   0.15241 261918.400000
   3487   3488     1   0.12183 533627.360000
   3487   3489     1   0.13513 334803.680000
   3493   3495     1   0.14619 275056.160000
   3495   3497     1   0.15375 251793.120000
   3497   3501     1   0.15110 237065.440000
   3501   3502     1   0.15110 237065.440000
   3501   3503     1   0.15110 237065.440000
   3502   3514     1   0.15375 251793.120000
   3503   3505     1   0.15375 251793.120000
   3505   3509     1   0.15241 261918.400000
   3509   3510     1   0.13513 334803.680000
   3509   3511     1   0.12183 533627.360000
   3514   3517     1   0.15241 261918.400000
   3517   3518     1   0.12183 533627.360000
   3517   3519     1   0.13513 334803.680000
      1     41     1   0.10304 312293.760000
      2     21     1   0.10910 283424.160000
      2     22     1   0.10910 283424.160000
      3     23     1   0.10910 283424.160000
      3     24     1   0.10910 283424.160000
      4     42     1   0.10304 312293.760000
      5     25     1   0.10910 283424.160000
      5     26     1   0.10910 283424.160000
      6     27     1   0.10910 283424.160000
      6     28     1   0.10910 283424.160000
      7     29     1   0.10910 283424.160000
      7     30     1   0.10910 283424.160000
      8     31     1   0.10910 283424.160000
      8     32     1   0.10910 283424.160000
      9     33     1   0.10969 276646.080000
      9     34     1   0.10969 276646.080000
     11     35     1   0.10969 276646.080000
     11     36     1   0.10969 276646.080000
     13     37     1   0.10969 276646.080000
     13     38     1   0.10969 276646.080000
     15     39     1   0.10969 276646.080000
     15     40     1   0.10969 276646.080000
     43     68     1   0.10304 312293.760000
     44     55     1   0.10910 283424.160000
     44     56     1   0.10910 283424.160000
     45     57     1   0.10910 283424.160000
     45     58     1   0.10910 283424.160000
     46     59     1   0.10969 276646.080000
     46     60     1   0.10969 276646.080000
     48     61     1   0.10969 276646.080000
     48     62     1   0.10969 276646.080000
     50     63     1   0.10910 283424.160000
     50     64     1   0.10910 283424.160000
     51     65     1   0.10969 276646.080000
     51     66     1   0.10969 276646.080000
     52     67     1   0.10129 337397.760000
     69     94     1   0.10304 312293.760000
     70     81     1   0.10910 283424.160000
     70     82     1   0.10910 283424.160000
     71     83     1   0.10910 283424.160000
     71     84     1   0.10910 283424.160000
     72     85     1   0.10969 276646.080000
     72     86     1   0.10969 276646.080000
     74     87     1   0.10969 276646.080000
     74     88     1   0.10969 276646.080000
     76     89     1   0.10910 283424.160000
     76     90     1   0.10910 283424.160000
     77     91     1   0.10969 276646.080000
     77     92     1   0.10969 276646.080000
     78     93     1   0.10129 337397.760000
     95    120     1   0.10304 312293.760000
     96    107     1   0.10910 283424.160000
     96    108     1   0.10910 283424.160000
     97    109     1   0.10910 283424.160000
     97    110     1   0.10910 283424.160000
     98    111     1   0.10969 276646.080000
     98    112     1   0.10969 276646.080000
    100    113     1   0.10969 276646.080000
    100    114     1   0.10969 276646.080000
    102    115     1   0.10910 283424.160000
    102    116     1   0.10910 283424.160000
    103    117     1   0.10969 276646.080000
    103    118     1   0.10969 276646.080000
    104    119     1   0.10129 337397.760000
    121    146     1   0.10304 312293.760000
    122    133     1   0.10910 283424.160000
    122    134     1   0.10910 283424.160000
    123    135     1   0.10910 283424.160000
    123    136     1   0.10910 283424.160000
    124    137     1   0.10969 276646.080000
    124    138     1   0.10969 276646.080000
    126    139     1   0.10969 276646.080000
    126    140     1   0.10969 276646.080000
    128    141     1   0.10910 283424.160000
    128    142     1   0.10910 283424.160000
    129    143     1   0.10969 276646.080000
    129    144     1   0.10969 276646.080000
    130    145     1   0.10129 337397.760000
    147    172     1   0.10304 312293.760000
    148    159     1   0.10910 283424.160000
    148    160     1   0.10910 283424.160000
    149    161     1   0.10910 283424.160000
    149    162     1   0.10910 283424.160000
    150    163     1   0.10969 276646.080000
    150    164     1   0.10969 276646.080000
    152    165     1   0.10969 276646.080000
    152    166     1   0.10969 276646.080000
    154    167     1   0.10910 283424.160000
    154    168     1   0.10910 283424.160000
    155    169     1   0.10969 276646.080000
    155    170     1   0.10969 276646.080000
    156    171     1   0.10129 337397.760000
    173    198     1   0.10304 312293.760000
    174    185     1   0.10910 283424.160000
    174    186     1   0.10910 283424.160000
    175    187     1   0.10910 283424.160000
    175    188     1   0.10910 283424.160000
    176    189     1   0.10969 276646.080000
    176    190     1   0.10969 276646.080000
    178    191     1   0.10969 276646.080000
    178    192     1   0.10969 276646.080000
    180    193     1   0.10910 283424.160000
    180    194     1   0.10910 283424.160000
    181    195     1   0.10969 276646.080000
    181    196     1   0.10969 276646.080000
    182    197     1   0.10129 337397.760000
    199    224     1   0.10304 312293.760000
    200    211     1   0.10910 283424.160000
    200    212     1   0.10910 283424.160000
    201    213     1   0.10910 283424.160000
    201    214     1   0.10910 283424.160000
    202    215     1   0.10969 276646.080000
    202    216     1   0.10969 276646.080000
    204    217     1   0.10969 276646.080000
    204    218     1   0.10969 276646.080000
    206    219     1   0.10910 283424.160000
    206    220     1   0.10910 283424.160000
    207    221     1   0.10969 276646.080000
    207    222     1   0.10969 276646.080000
    208    223     1   0.10129 337397.760000
    225    250     1   0.10304 312293.760000
    226    237     1   0.10910 283424.160000
    226    238     1   0.10910 283424.160000
    227    239     1   0.10910 283424.160000
    227    240     1   0.10910 283424.160000
    228    241     1   0.10969 276646.080000
    228    242     1   0.10969 276646.080000
    230    243     1   0.10969 276646.080000
    230    244     1   0.10969 276646.080000
    232    245     1   0.10910 283424.160000
    232    246     1   0.10910 283424.160000
    233    247     1   0.10969 276646.080000
    233    248     1   0.10969 276646.080000
    234    249     1   0.10129 337397.760000
    251    276     1   0.10304 312293.760000
    252    263     1   0.10910 283424.160000
    252    264     1   0.10910 283424.160000
    253    265     1   0.10910 283424.160000
    253    266     1   0.10910 283424.160000
    254    267     1   0.10969 276646.080000
    254    268     1   0.10969 276646.080000
    256    269     1   0.10969 276646.080000
    256    270     1   0.10969 276646.080000
    258    271     1   0.10910 283424.160000
    258    272     1   0.10910 283424.160000
    259    273     1   0.10969 276646.080000
    259    274     1   0.10969 276646.080000
    260    275     1   0.10129 337397.760000
    277    302     1   0.10304 312293.760000
    278    289     1   0.10910 283424.160000
    278    290     1   0.10910 283424.160000
    279    291     1   0.10910 283424.160000
    279    292     1   0.10910 283424.160000
    280    293     1   0.10969 276646.080000
    280    294     1   0.10969 276646.080000
    282    295     1   0.10969 276646.080000
    282    296     1   0.10969 276646.080000
    284    297     1   0.10910 283424.160000
    284    298     1   0.10910 283424.160000
    285    299     1   0.10969 276646.080000
    285    300     1   0.10969 276646.080000
    286    301     1   0.10129 337397.760000
    303    328     1   0.10304 312293.760000
    304    315     1   0.10910 283424.160000
    304    316     1   0.10910 283424.160000
    305    317     1   0.10910 283424.160000
    305    318     1   0.10910 283424.160000
    306    319     1   0.10969 276646.080000
    306    320     1   0.10969 276646.080000
    308    321     1   0.10969 276646.080000
    308    322     1   0.10969 276646.080000
    310    323     1   0.10910 283424.160000
    310    324     1   0.10910 283424.160000
    311    325     1   0.10969 276646.080000
    311    326     1   0.10969 276646.080000
    312    327     1   0.10129 337397.760000
    329    354     1   0.10304 312293.760000
    330    341     1   0.10910 283424.160000
    330    342     1   0.10910 283424.160000
    331    343     1   0.10910 283424.160000
    331    344     1   0.10910 283424.160000
    332    345     1   0.10969 276646.080000
    332    346     1   0.10969 276646.080000
    334    347     1   0.10969 276646.080000
    334    348     1   0.10969 276646.080000
    336    349     1   0.10910 283424.160000
    336    350     1   0.10910 283424.160000
    337    351     1   0.10969 276646.080000
    337    352     1   0.10969 276646.080000
    338    353     1   0.10129 337397.760000
    355    380     1   0.10304 312293.760000
    356    367     1   0.10910 283424.160000
    356    368     1   0.10910 283424.160000
    357    369     1   0.10910 283424.160000
    357    370     1   0.10910 283424.160000
    358    371     1   0.10969 276646.080000
    358    372     1   0.10969 276646.080000
    360    373     1   0.10969 276646.080000
    360    374     1   0.10969 276646.080000
    362    375     1   0.10910 283424.160000
    362    376     1   0.10910 283424.160000
    363    377     1   0.10969 276646.080000
    363    378     1   0.10969 276646.080000
    364    379     1   0.10129 337397.760000
    381    406     1   0.10304 312293.760000
    382    393     1   0.10910 283424.160000
    382    394     1   0.10910 283424.160000
    383    395     1   0.10910 283424.160000
    383    396     1   0.10910 283424.160000
    384    397     1   0.10969 276646.080000
    384    398     1   0.10969 276646.080000
    386    399     1   0.10969 276646.080000
    386    400     1   0.10969 276646.080000
    388    401     1   0.10910 283424.160000
    388    402     1   0.10910 283424.160000
    389    403     1   0.10969 276646.080000
    389    404     1   0.10969 276646.080000
    390    405     1   0.10129 337397.760000
    407    432     1   0.10304 312293.760000
    408    419     1   0.10910 283424.160000
    408    420     1   0.10910 283424.160000
    409    421     1   0.10910 283424.160000
    409    422     1   0.10910 283424.160000
    410    423     1   0.10969 276646.080000
    410    424     1   0.10969 276646.080000
    412    425     1   0.10969 276646.080000
    412    426     1   0.10969 276646.080000
    414    427     1   0.10910 283424.160000
    414    428     1   0.10910 283424.160000
    415    429     1   0.10969 276646.080000
    415    430     1   0.10969 276646.080000
    416    431     1   0.10129 337397.760000
    433    458     1   0.10304 312293.760000
    434    445     1   0.10910 283424.160000
    434    446     1   0.10910 283424.160000
    435    447     1   0.10910 283424.160000
    435    448     1   0.10910 283424.160000
    436    449     1   0.10969 276646.080000
    436    450     1   0.10969 276646.080000
    438    451     1   0.10969 276646.080000
    438    452     1   0.10969 276646.080000
    440    453     1   0.10910 283424.160000
    440    454     1   0.10910 283424.160000
    441    455     1   0.10969 276646.080000
    441    456     1   0.10969 276646.080000
    442    457     1   0.10129 337397.760000
    459    484     1   0.10304 312293.760000
    460    471     1   0.10910 283424.160000
    460    472     1   0.10910 283424.160000
    461    473     1   0.10910 283424.160000
    461    474     1   0.10910 283424.160000
    462    475     1   0.10969 276646.080000
    462    476     1   0.10969 276646.080000
    464    477     1   0.10969 276646.080000
    464    478     1   0.10969 276646.080000
    466    479     1   0.10910 283424.160000
    466    480     1   0.10910 283424.160000
    467    481     1   0.10969 276646.080000
    467    482     1   0.10969 276646.080000
    468    483     1   0.10129 337397.760000
    485    510     1   0.10304 312293.760000
    486    497     1   0.10910 283424.160000
    486    498     1   0.10910 283424.160000
    487    499     1   0.10910 283424.160000
    487    500     1   0.10910 283424.160000
    488    501     1   0.10969 276646.080000
    488    502     1   0.10969 276646.080000
    490    503     1   0.10969 276646.080000
    490    504     1   0.10969 276646.080000
    492    505     1   0.10910 283424.160000
    492    506     1   0.10910 283424.160000
    493    507     1   0.10969 276646.080000
    493    508     1   0.10969 276646.080000
    494    509     1   0.10129 337397.760000
    511    536     1   0.10304 312293.760000
    512    523     1   0.10910 283424.160000
    512    524     1   0.10910 283424.160000
    513    525     1   0.10910 283424.160000
    513    526     1   0.10910 283424.160000
    514    527     1   0.10969 276646.080000
    514    528     1   0.10969 276646.080000
    516    529     1   0.10969 276646.080000
    516    530     1   0.10969 276646.080000
    518    531     1   0.10910 283424.160000
    518    532     1   0.10910 283424.160000
    519    533     1   0.10969 276646.080000
    519    534     1   0.10969 276646.080000
    520    535     1   0.10129 337397.760000
    537    562     1   0.10304 312293.760000
    538    549     1   0.10910 283424.160000
    538    550     1   0.10910 283424.160000
    539    551     1   0.10910 283424.160000
    539    552     1   0.10910 283424.160000
    540    553     1   0.10969 276646.080000
    540    554     1   0.10969 276646.080000
    542    555     1   0.10969 276646.080000
    542    556     1   0.10969 276646.080000
    544    557     1   0.10910 283424.160000
    544    558     1   0.10910 283424.160000
    545    559     1   0.10969 276646.080000
    545    560     1   0.10969 276646.080000
    546    561     1   0.10129 337397.760000
    563    588     1   0.10304 312293.760000
    564    575     1   0.10910 283424.160000
    564    576     1   0.10910 283424.160000
    565    577     1   0.10910 283424.160000
    565    578     1   0.10910 283424.160000
    566    579     1   0.10969 276646.080000
    566    580     1   0.10969 276646.080000
    568    581     1   0.10969 276646.080000
    568    582     1   0.10969 276646.080000
    570    583     1   0.10910 283424.160000
    570    584     1   0.10910 283424.160000
    571    585     1   0.10969 276646.080000
    571    586     1   0.10969 276646.080000
    572    587     1   0.10129 337397.760000
    589    614     1   0.10304 312293.760000
    590    601     1   0.10910 283424.160000
    590    602     1   0.10910 283424.160000
    591    603     1   0.10910 283424.160000
    591    604     1   0.10910 283424.160000
    592    605     1   0.10969 276646.080000
    592    606     1   0.10969 276646.080000
    594    607     1   0.10969 276646.080000
    594    608     1   0.10969 276646.080000
    596    609     1   0.10910 283424.160000
    596    610     1   0.10910 283424.160000
    597    611     1   0.10969 276646.080000
    597    612     1   0.10969 276646.080000
    598    613     1   0.10129 337397.760000
    615    640     1   0.10304 312293.760000
    616    627     1   0.10910 283424.160000
    616    628     1   0.10910 283424.160000
    617    629     1   0.10910 283424.160000
    617    630     1   0.10910 283424.160000
    618    631     1   0.10969 276646.080000
    618    632     1   0.10969 276646.080000
    620    633     1   0.10969 276646.080000
    620    634     1   0.10969 276646.080000
    622    635     1   0.10910 283424.160000
    622    636     1   0.10910 283424.160000
    623    637     1   0.10969 276646.080000
    623    638     1   0.10969 276646.080000
    624    639     1   0.10129 337397.760000
    641    666     1   0.10304 312293.760000
    642    653     1   0.10910 283424.160000
    642    654     1   0.10910 283424.160000
    643    655     1   0.10910 283424.160000
    643    656     1   0.10910 283424.160000
    644    657     1   0.10969 276646.080000
    644    658     1   0.10969 276646.080000
    646    659     1   0.10969 276646.080000
    646    660     1   0.10969 276646.080000
    648    661     1   0.10910 283424.160000
    648    662     1   0.10910 283424.160000
    649    663     1   0.10969 276646.080000
    649    664     1   0.10969 276646.080000
    650    665     1   0.10129 337397.760000
    667    692     1   0.10304 312293.760000
    668    679     1   0.10910 283424.160000
    668    680     1   0.10910 283424.160000
    669    681     1   0.10910 283424.160000
    669    682     1   0.10910 283424.160000
    670    683     1   0.10969 276646.080000
    670    684     1   0.10969 276646.080000
    672    685     1   0.10969 276646.080000
    672    686     1   0.10969 276646.080000
    674    687     1   0.10910 283424.160000
    674    688     1   0.10910 283424.160000
    675    689     1   0.10969 276646.080000
    675    690     1   0.10969 276646.080000
    676    691     1   0.10129 337397.760000
    693    718     1   0.10304 312293.760000
    694    705     1   0.10910 283424.160000
    694    706     1   0.10910 283424.160000
    695    707     1   0.10910 283424.160000
    695    708     1   0.10910 283424.160000
    696    709     1   0.10969 276646.080000
    696    710     1   0.10969 276646.080000
    698    711     1   0.10969 276646.080000
    698    712     1   0.10969 276646.080000
    700    713     1   0.10910 283424.160000
    700    714     1   0.10910 283424.160000
    701    715     1   0.10969 276646.080000
    701    716     1   0.10969 276646.080000
    702    717     1   0.10129 337397.760000
    719    744     1   0.10304 312293.760000
    720    731     1   0.10910 283424.160000
    720    732     1   0.10910 283424.160000
    721    733     1   0.10910 283424.160000
    721    734     1   0.10910 283424.160000
    722    735     1   0.10969 276646.080000
    722    736     1   0.10969 276646.080000
    724    737     1   0.10969 276646.080000
    724    738     1   0.10969 276646.080000
    726    739     1   0.10910 283424.160000
    726    740     1   0.10910 283424.160000
    727    741     1   0.10969 276646.080000
    727    742     1   0.10969 276646.080000
    728    743     1   0.10129 337397.760000
    745    770     1   0.10304 312293.760000
    746    757     1   0.10910 283424.160000
    746    758     1   0.10910 283424.160000
    747    759     1   0.10910 283424.160000
    747    760     1   0.10910 283424.160000
    748    761     1   0.10969 276646.080000
    748    762     1   0.10969 276646.080000
    750    763     1   0.10969 276646.080000
    750    764     1   0.10969 276646.080000
    752    765     1   0.10910 283424.160000
    752    766     1   0.10910 283424.160000
    753    767     1   0.10969 276646.080000
    753    768     1   0.10969 276646.080000
    754    769     1   0.10129 337397.760000
    771    796     1   0.10304 312293.760000
    772    783     1   0.10910 283424.160000
    772    784     1   0.10910 283424.160000
    773    785     1   0.10910 283424.160000
    773    786     1   0.10910 283424.160000
    774    787     1   0.10969 276646.080000
    774    788     1   0.10969 276646.080000
    776    789     1   0.10969 276646.080000
    776    790     1   0.10969 276646.080000
    778    791     1   0.10910 283424.160000
    778    792     1   0.10910 283424.160000
    779    793     1   0.10969 276646.080000
    779    794     1   0.10969 276646.080000
    780    795     1   0.10129 337397.760000
    797    822     1   0.10304 312293.760000
    798    809     1   0.10910 283424.160000
    798    810     1   0.10910 283424.160000
    799    811     1   0.10910 283424.160000
    799    812     1   0.10910 283424.160000
    800    813     1   0.10969 276646.080000
    800    814     1   0.10969 276646.080000
    802    815     1   0.10969 276646.080000
    802    816     1   0.10969 276646.080000
    804    817     1   0.10910 283424.160000
    804    818     1   0.10910 283424.160000
    805    819     1   0.10969 276646.080000
    805    820     1   0.10969 276646.080000
    806    821     1   0.10129 337397.760000
    823    848     1   0.10304 312293.760000
    824    835     1   0.10910 283424.160000
    824    836     1   0.10910 283424.160000
    825    837     1   0.10910 283424.160000
    825    838     1   0.10910 283424.160000
    826    839     1   0.10969 276646.080000
    826    840     1   0.10969 276646.080000
    828    841     1   0.10969 276646.080000
    828    842     1   0.10969 276646.080000
    830    843     1   0.10910 283424.160000
    830    844     1   0.10910 283424.160000
    831    845     1   0.10969 276646.080000
    831    846     1   0.10969 276646.080000
    832    847     1   0.10129 337397.760000
    849    874     1   0.10304 312293.760000
    850    861     1   0.10910 283424.160000
    850    862     1   0.10910 283424.160000
    851    863     1   0.10910 283424.160000
    851    864     1   0.10910 283424.160000
    852    865     1   0.10969 276646.080000
    852    866     1   0.10969 276646.080000
    854    867     1   0.10969 276646.080000
    854    868     1   0.10969 276646.080000
    856    869     1   0.10910 283424.160000
    856    870     1   0.10910 283424.160000
    857    871     1   0.10969 276646.080000
    857    872     1   0.10969 276646.080000
    858    873     1   0.10129 337397.760000
    875    900     1   0.10304 312293.760000
    876    887     1   0.10910 283424.160000
    876    888     1   0.10910 283424.160000
    877    889     1   0.10910 283424.160000
    877    890     1   0.10910 283424.160000
    878    891     1   0.10969 276646.080000
    878    892     1   0.10969 276646.080000
    880    893     1   0.10969 276646.080000
    880    894     1   0.10969 276646.080000
    882    895     1   0.10910 283424.160000
    882    896     1   0.10910 283424.160000
    883    897     1   0.10969 276646.080000
    883    898     1   0.10969 276646.080000
    884    899     1   0.10129 337397.760000
    901    926     1   0.10304 312293.760000
    902    913     1   0.10910 283424.160000
    902    914     1   0.10910 283424.160000
    903    915     1   0.10910 283424.160000
    903    916     1   0.10910 283424.160000
    904    917     1   0.10969 276646.080000
    904    918     1   0.10969 276646.080000
    906    919     1   0.10969 276646.080000
    906    920     1   0.10969 276646.080000
    908    921     1   0.10910 283424.160000
    908    922     1   0.10910 283424.160000
    909    923     1   0.10969 276646.080000
    909    924     1   0.10969 276646.080000
    910    925     1   0.10129 337397.760000
    927    952     1   0.10304 312293.760000
    928    939     1   0.10910 283424.160000
    928    940     1   0.10910 283424.160000
    929    941     1   0.10910 283424.160000
    929    942     1   0.10910 283424.160000
    930    943     1   0.10969 276646.080000
    930    944     1   0.10969 276646.080000
    932    945     1   0.10969 276646.080000
    932    946     1   0.10969 276646.080000
    934    947     1   0.10910 283424.160000
    934    948     1   0.10910 283424.160000
    935    949     1   0.10969 276646.080000
    935    950     1   0.10969 276646.080000
    936    951     1   0.10129 337397.760000
    953    978     1   0.10304 312293.760000
    954    965     1   0.10910 283424.160000
    954    966     1   0.10910 283424.160000
    955    967     1   0.10910 283424.160000
    955    968     1   0.10910 283424.160000
    956    969     1   0.10969 276646.080000
    956    970     1   0.10969 276646.080000
    958    971     1   0.10969 276646.080000
    958    972     1   0.10969 276646.080000
    960    973     1   0.10910 283424.160000
    960    974     1   0.10910 283424.160000
    961    975     1   0.10969 276646.080000
    961    976     1   0.10969 276646.080000
    962    977     1   0.10129 337397.760000
    979   1004     1   0.10304 312293.760000
    980    991     1   0.10910 283424.160000
    980    992     1   0.10910 283424.160000
    981    993     1   0.10910 283424.160000
    981    994     1   0.10910 283424.160000
    982    995     1   0.10969 276646.080000
    982    996     1   0.10969 276646.080000
    984    997     1   0.10969 276646.080000
    984    998     1   0.10969 276646.080000
    986    999     1   0.10910 283424.160000
    986   1000     1   0.10910 283424.160000
    987   1001     1   0.10969 276646.080000
    987   1002     1   0.10969 276646.080000
    988   1003     1   0.10129 337397.760000
   1005   1030     1   0.10304 312293.760000
   1006   1017     1   0.10910 283424.160000
   1006   1018     1   0.10910 283424.160000
   1007   1019     1   0.10910 283424.160000
   1007   1020     1   0.10910 283424.160000
   1008   1021     1   0.10969 276646.080000
   1008   1022     1   0.10969 276646.080000
   1010   1023     1   0.10969 276646.080000
   1010   1024     1   0.10969 276646.080000
   1012   1025     1   0.10910 283424.160000
   1012   1026     1   0.10910 283424.160000
   1013   1027     1   0.10969 276646.080000
   1013   1028     1   0.10969 276646.080000
   1014   1029     1   0.10129 337397.760000
   1031   1056     1   0.10304 312293.760000
   1032   1043     1   0.10910 283424.160000
   1032   1044     1   0.10910 283424.160000
   1033   1045     1   0.10910 283424.160000
   1033   1046     1   0.10910 283424.160000
   1034   1047     1   0.10969 276646.080000
   1034   1048     1   0.10969 276646.080000
   1036   1049     1   0.10969 276646.080000
   1036   1050     1   0.10969 276646.080000
   1038   1051     1   0.10910 283424.160000
   1038   1052     1   0.10910 283424.160000
   1039   1053     1   0.10969 276646.080000
   1039   1054     1   0.10969 276646.080000
   1040   1055     1   0.10129 337397.760000
   1057   1082     1   0.10304 312293.760000
   1058   1069     1   0.10910 283424.160000
   1058   1070     1   0.10910 283424.160000
   1059   1071     1   0.10910 283424.160000
   1059   1072     1   0.10910 283424.160000
   1060   1073     1   0.10969 276646.080000
   1060   1074     1   0.10969 276646.080000
   1062   1075     1   0.10969 276646.080000
   1062   1076     1   0.10969 276646.080000
   1064   1077     1   0.10910 283424.160000
   1064   1078     1   0.10910 283424.160000
   1065   1079     1   0.10969 276646.080000
   1065   1080     1   0.10969 276646.080000
   1066   1081     1   0.10129 337397.760000
   1083   1108     1   0.10304 312293.760000
   1084   1095     1   0.10910 283424.160000
   1084   1096     1   0.10910 283424.160000
   1085   1097     1   0.10910 283424.160000
   1085   1098     1   0.10910 283424.160000
   1086   1099     1   0.10969 276646.080000
   1086   1100     1   0.10969 276646.080000
   1088   1101     1   0.10969 276646.080000
   1088   1102     1   0.10969 276646.080000
   1090   1103     1   0.10910 283424.160000
   1090   1104     1   0.10910 283424.160000
   1091   1105     1   0.10969 276646.080000
   1091   1106     1   0.10969 276646.080000
   1092   1107     1   0.10129 337397.760000
   1109   1134     1   0.10304 312293.760000
   1110   1121     1   0.10910 283424.160000
   1110   1122     1   0.10910 283424.160000
   1111   1123     1   0.10910 283424.160000
   1111   1124     1   0.10910 283424.160000
   1112   1125     1   0.10969 276646.080000
   1112   1126     1   0.10969 276646.080000
   1114   1127     1   0.10969 276646.080000
   1114   1128     1   0.10969 276646.080000
   1116   1129     1   0.10910 283424.160000
   1116   1130     1   0.10910 283424.160000
   1117   1131     1   0.10969 276646.080000
   1117   1132     1   0.10969 276646.080000
   1118   1133     1   0.10129 337397.760000
   1135   1160     1   0.10304 312293.760000
   1136   1147     1   0.10910 283424.160000
   1136   1148     1   0.10910 283424.160000
   1137   1149     1   0.10910 283424.160000
   1137   1150     1   0.10910 283424.160000
   1138   1151     1   0.10969 276646.080000
   1138   1152     1   0.10969 276646.080000
   1140   1153     1   0.10969 276646.080000
   1140   1154     1   0.10969 276646.080000
   1142   1155     1   0.10910 283424.160000
   1142   1156     1   0.10910 283424.160000
   1143   1157     1   0.10969 276646.080000
   1143   1158     1   0.10969 276646.080000
   1144   1159     1   0.10129 337397.760000
   1161   1186     1   0.10304 312293.760000
   1162   1173     1   0.10910 283424.160000
   1162   1174     1   0.10910 283424.160000
   1163   1175     1   0.10910 283424.160000
   1163   1176     1   0.10910 283424.160000
   1164   1177     1   0.10969 276646.080000
   1164   1178     1   0.10969 276646.080000
   1166   1179     1   0.10969 276646.080000
   1166   1180     1   0.10969 276646.080000
   1168   1181     1   0.10910 283424.160000
   1168   1182     1   0.10910 283424.160000
   1169   1183     1   0.10969 276646.080000
   1169   1184     1   0.10969 276646.080000
   1170   1185     1   0.10129 337397.760000
   1187   1212     1   0.10304 312293.760000
   1188   1199     1   0.10910 283424.160000
   1188   1200     1   0.10910 283424.160000
   1189   1201     1   0.10910 283424.160000
   1189   1202     1   0.10910 283424.160000
   1190   1203     1   0.10969 276646.080000
   1190   1204     1   0.10969 276646.080000
   1192   1205     1   0.10969 276646.080000
   1192   1206     1   0.10969 276646.080000
   1194   1207     1   0.10910 283424.160000
   1194   1208     1   0.10910 283424.160000
   1195   1209     1   0.10969 276646.080000
   1195   1210     1   0.10969 276646.080000
   1196   1211     1   0.10129 337397.760000
   1213   1238     1   0.10304 312293.760000
   1214   1225     1   0.10910 283424.160000
   1214   1226     1   0.10910 283424.160000
   1215   1227     1   0.10910 283424.160000
   1215   1228     1   0.10910 283424.160000
   1216   1229     1   0.10969 276646.080000
   1216   1230     1   0.10969 276646.080000
   1218   1231     1   0.10969 276646.080000
   1218   1232     1   0.10969 276646.080000
   1220   1233     1   0.10910 283424.160000
   1220   1234     1   0.10910 283424.160000
   1221   1235     1   0.10969 276646.080000
   1221   1236     1   0.10969 276646.080000
   1222   1237     1   0.10129 337397.760000
   1239   1264     1   0.10304 312293.760000
   1240   1251     1   0.10910 283424.160000
   1240   1252     1   0.10910 283424.160000
   1241   1253     1   0.10910 283424.160000
   1241   1254     1   0.10910 283424.160000
   1242   1255     1   0.10969 276646.080000
   1242   1256     1   0.10969 276646.080000
   1244   1257     1   0.10969 276646.080000
   1244   1258     1   0.10969 276646.080000
   1246   1259     1   0.10910 283424.160000
   1246   1260     1   0.10910 283424.160000
   1247   1261     1   0.10969 276646.080000
   1247   1262     1   0.10969 276646.080000
   1248   1263     1   0.10129 337397.760000
   1265   1290     1   0.10304 312293.760000
   1266   1277     1   0.10910 283424.160000
   1266   1278     1   0.10910 283424.160000
   1267   1279     1   0.10910 283424.160000
   1267   1280     1   0.10910 283424.160000
   1268   1281     1   0.10969 276646.080000
   1268   1282     1   0.10969 276646.080000
   1270   1283     1   0.10969 276646.080000
   1270   1284     1   0.10969 276646.080000
   1272   1285     1   0.10910 283424.160000
   1272   1286     1   0.10910 283424.160000
   1273   1287     1   0.10969 276646.080000
   1273   1288     1   0.10969 276646.080000
   1274   1289     1   0.10129 337397.760000
   1291   1316     1   0.10304 312293.760000
   1292   1303     1   0.10910 283424.160000
   1292   1304     1   0.10910 283424.160000
   1293   1305     1   0.10910 283424.160000
   1293   1306     1   0.10910 283424.160000
   1294   1307     1   0.10969 276646.080000
   1294   1308     1   0.10969 276646.080000
   1296   1309     1   0.10969 276646.080000
   1296   1310     1   0.10969 276646.080000
   1298   1311     1   0.10910 283424.160000
   1298   1312     1   0.10910 283424.160000
   1299   1313     1   0.10969 276646.080000
   1299   1314     1   0.10969 276646.080000
   1300   1315     1   0.10129 337397.760000
   1317   1342     1   0.10304 312293.760000
   1318   1329     1   0.10910 283424.160000
   1318   1330     1   0.10910 283424.160000
   1319   1331     1   0.10910 283424.160000
   1319   1332     1   0.10910 283424.160000
   1320   1333     1   0.10969 276646.080000
   1320   1334     1   0.10969 276646.080000
   1322   1335     1   0.10969 276646.080000
   1322   1336     1   0.10969 276646.080000
   1324   1337     1   0.10910 283424.160000
   1324   1338     1   0.10910 283424.160000
   1325   1339     1   0.10969 276646.080000
   1325   1340     1   0.10969 276646.080000
   1326   1341     1   0.10129 337397.760000
   1343   1368     1   0.10304 312293.760000
   1344   1355     1   0.10910 283424.160000
   1344   1356     1   0.10910 283424.160000
   1345   1357     1   0.10910 283424.160000
   1345   1358     1   0.10910 283424.160000
   1346   1359     1   0.10969 276646.080000
   1346   1360     1   0.10969 276646.080000
   1348   1361     1   0.10969 276646.080000
   1348   1362     1   0.10969 276646.080000
   1350   1363     1   0.10910 283424.160000
   1350   1364     1   0.10910 283424.160000
   1351   1365     1   0.10969 276646.080000
   1351   1366     1   0.10969 276646.080000
   1352   1367     1   0.10129 337397.760000
   1369   1394     1   0.10304 312293.760000
   1370   1381     1   0.10910 283424.160000
   1370   1382     1   0.10910 283424.160000
   1371   1383     1   0.10910 283424.160000
   1371   1384     1   0.10910 283424.160000
   1372   1385     1   0.10969 276646.080000
   1372   1386     1   0.10969 276646.080000
   1374   1387     1   0.10969 276646.080000
   1374   1388     1   0.10969 276646.080000
   1376   1389     1   0.10910 283424.160000
   1376   1390     1   0.10910 283424.160000
   1377   1391     1   0.10969 276646.080000
   1377   1392     1   0.10969 276646.080000
   1378   1393     1   0.10129 337397.760000
   1395   1420     1   0.10304 312293.760000
   1396   1407     1   0.10910 283424.160000
   1396   1408     1   0.10910 283424.160000
   1397   1409     1   0.10910 283424.160000
   1397   1410     1   0.10910 283424.160000
   1398   1411     1   0.10969 276646.080000
   1398   1412     1   0.10969 276646.080000
   1400   1413     1   0.10969 276646.080000
   1400   1414     1   0.10969 276646.080000
   1402   1415     1   0.10910 283424.160000
   1402   1416     1   0.10910 283424.160000
   1403   1417     1   0.10969 276646.080000
   1403   1418     1   0.10969 276646.080000
   1404   1419     1   0.10129 337397.760000
   1421   1446     1   0.10304 312293.760000
   1422   1433     1   0.10910 283424.160000
   1422   1434     1   0.10910 283424.160000
   1423   1435     1   0.10910 283424.160000
   1423   1436     1   0.10910 283424.160000
   1424   1437     1   0.10969 276646.080000
   1424   1438     1   0.10969 276646.080000
   1426   1439     1   0.10969 276646.080000
   1426   1440     1   0.10969 276646.080000
   1428   1441     1   0.10910 283424.160000
   1428   1442     1   0.10910 283424.160000
   1429   1443     1   0.10969 276646.080000
   1429   1444     1   0.10969 276646.080000
   1430   1445     1   0.10129 337397.760000
   1447   1472     1   0.10304 312293.760000
   1448   1459     1   0.10910 283424.160000
   1448   1460     1   0.10910 283424.160000
   1449   1461     1   0.10910 283424.160000
   1449   1462     1   0.10910 283424.160000
   1450   1463     1   0.10969 276646.080000
   1450   1464     1   0.10969 276646.080000
   1452   1465     1   0.10969 276646.080000
   1452   1466     1   0.10969 276646.080000
   1454   1467     1   0.10910 283424.160000
   1454   1468     1   0.10910 283424.160000
   1455   1469     1   0.10969 276646.080000
   1455   1470     1   0.10969 276646.080000
   1456   1471     1   0.10129 337397.760000
   1473   1498     1   0.10304 312293.760000
   1474   1485     1   0.10910 283424.160000
   1474   1486     1   0.10910 283424.160000
   1475   1487     1   0.10910 283424.160000
   1475   1488     1   0.10910 283424.160000
   1476   1489     1   0.10969 276646.080000
   1476   1490     1   0.10969 276646.080000
   1478   1491     1   0.10969 276646.080000
   1478   1492     1   0.10969 276646.080000
   1480   1493     1   0.10910 283424.160000
   1480   1494     1   0.10910 283424.160000
   1481   1495     1   0.10969 276646.080000
   1481   1496     1   0.10969 276646.080000
   1482   1497     1   0.10129 337397.760000
   1499   1524     1   0.10304 312293.760000
   1500   1511     1   0.10910 283424.160000
   1500   1512     1   0.10910 283424.160000
   1501   1513     1   0.10910 283424.160000
   1501   1514     1   0.10910 283424.160000
   1502   1515     1   0.10969 276646.080000
   1502   1516     1   0.10969 276646.080000
   1504   1517     1   0.10969 276646.080000
   1504   1518     1   0.10969 276646.080000
   1506   1519     1   0.10910 283424.160000
   1506   1520     1   0.10910 283424.160000
   1507   1521     1   0.10969 276646.080000
   1507   1522     1   0.10969 276646.080000
   1508   1523     1   0.10129 337397.760000
   1525   1550     1   0.10304 312293.760000
   1526   1537     1   0.10910 283424.160000
   1526   1538     1   0.10910 283424.160000
   1527   1539     1   0.10910 283424.160000
   1527   1540     1   0.10910 283424.160000
   1528   1541     1   0.10969 276646.080000
   1528   1542     1   0.10969 276646.080000
   1530   1543     1   0.10969 276646.080000
   1530   1544     1   0.10969 276646.080000
   1532   1545     1   0.10910 283424.160000
   1532   1546     1   0.10910 283424.160000
   1533   1547     1   0.10969 276646.080000
   1533   1548     1   0.10969 276646.080000
   1534   1549     1   0.10129 337397.760000
   1551   1576     1   0.10304 312293.760000
   1552   1563     1   0.10910 283424.160000
   1552   1564     1   0.10910 283424.160000
   1553   1565     1   0.10910 283424.160000
   1553   1566     1   0.10910 283424.160000
   1554   1567     1   0.10969 276646.080000
   1554   1568     1   0.10969 276646.080000
   1556   1569     1   0.10969 276646.080000
   1556   1570     1   0.10969 276646.080000
   1558   1571     1   0.10910 283424.160000
   1558   1572     1   0.10910 283424.160000
   1559   1573     1   0.10969 276646.080000
   1559   1574     1   0.10969 276646.080000
   1560   1575     1   0.10129 337397.760000
   1577   1602     1   0.10304 312293.760000
   1578   1589     1   0.10910 283424.160000
   1578   1590     1   0.10910 283424.160000
   1579   1591     1   0.10910 283424.160000
   1579   1592     1   0.10910 283424.160000
   1580   1593     1   0.10969 276646.080000
   1580   1594     1   0.10969 276646.080000
   1582   1595     1   0.10969 276646.080000
   1582   1596     1   0.10969 276646.080000
   1584   1597     1   0.10910 283424.160000
   1584   1598     1   0.10910 283424.160000
   1585   1599     1   0.10969 276646.080000
   1585   1600     1   0.10969 276646.080000
   1586   1601     1   0.10129 337397.760000
   1603   1604     1   0.10129 337397.760000
   1605   1606     1   0.10969 276646.080000
   1605   1608     1   0.10969 276646.080000
   1607   1609     1   0.10910 283424.160000
   1607   1610     1   0.10910 283424.160000
   1611   1632     1   0.10304 312293.760000
   1612   1622     1   0.10910 283424.160000
   1612   1623     1   0.10910 283424.160000
   1613   1614     1   0.10910 283424.160000
   1613   1616     1   0.10910 283424.160000
   1615   1617     1   0.10969 276646.080000
   1615   1618     1   0.10969 276646.080000
   1620   1630     1   0.09730 310787.520000
   1624   1625     1   0.10969 276646.080000
   1624   1626     1   0.10969 276646.080000
   1629   1631     1   0.09730 310787.520000
   1633   1634     1   0.10129 337397.760000
   1635   1636     1   0.10969 276646.080000
   1635   1638     1   0.10969 276646.080000
   1637   1639     1   0.10910 283424.160000
   1637   1640     1   0.10910 283424.160000
   1641   1662     1   0.10304 312293.760000
   1642   1652     1   0.10910 283424.160000
   1642   1653     1   0.10910 283424.160000
   1643   1644     1   0.10910 283424.160000
   1643   1646     1   0.10910 283424.160000
   1645   1647     1   0.10969 276646.080000
   1645   1648     1   0.10969 276646.080000
   1650   1660     1   0.09730 310787.520000
   1654   1655     1   0.10969 276646.080000
   1654   1656     1   0.10969 276646.080000
   1659   1661     1   0.09730 310787.520000
   1663   1664     1   0.10129 337397.760000
   1665   1666     1   0.10969 276646.080000
   1665   1668     1   0.10969 276646.080000
   1667   1669     1   0.10910 283424.160000
   1667   1670     1   0.10910 283424.160000
   1671   1692     1   0.10304 312293.760000
   1672   1682     1   0.10910 283424.160000
   1672   1683     1   0.10910 283424.160000
   1673   1674     1   0.10910 283424.160000
   1673   1676     1   0.10910 283424.160000
   1675   1677     1   0.10969 276646.080000
   1675   1678     1   0.10969 276646.080000
   1680   1690     1   0.09730 310787.520000
   1684   1685     1   0.10969 276646.080000
   1684   1686     1   0.10969 276646.080000
   1689   1691     1   0.09730 310787.520000
   1693   1694     1   0.10129 337397.760000
   1695   1696     1   0.10969 276646.080000
   1695   1698     1   0.10969 276646.080000
   1697   1699     1   0.10910 283424.160000
   1697   1700     1   0.10910 283424.160000
   1701   1722     1   0.10304 312293.760000
   1702   1712     1   0.10910 283424.160000
   1702   1713     1   0.10910 283424.160000
   1703   1704     1   0.10910 283424.160000
   1703   1706     1   0.10910 283424.160000
   1705   1707     1   0.10969 276646.080000
   1705   1708     1   0.10969 276646.080000
   1710   1720     1   0.09730 310787.520000
   1714   1715     1   0.10969 276646.080000
   1714   1716     1   0.10969 276646.080000
   1719   1721     1   0.09730 310787.520000
   1723   1724     1   0.10129 337397.760000
   1725   1726     1   0.10969 276646.080000
   1725   1728     1   0.10969 276646.080000
   1727   1729     1   0.10910 283424.160000
   1727   1730     1   0.10910 283424.160000
   1731   1752     1   0.10304 312293.760000
   1732   1742     1   0.10910 283424.160000
   1732   1743     1   0.10910 283424.160000
   1733   1734     1   0.10910 283424.160000
   1733   1736     1   0.10910 283424.160000
   1735   1737     1   0.10969 276646.080000
   1735   1738     1   0.10969 276646.080000
   1740   1750     1   0.09730 310787.520000
   1744   1745     1   0.10969 276646.080000
   1744   1746     1   0.10969 276646.080000
   1749   1751     1   0.09730 310787.520000
   1753   1754     1   0.10129 337397.760000
   1755   1756     1   0.10969 276646.080000
   1755   1758     1   0.10969 276646.080000
   1757   1759     1   0.10910 283424.160000
   1757   1760     1   0.10910 283424.160000
   1761   1782     1   0.10304 312293.760000
   1762   1772     1   0.10910 283424.160000
   1762   1773     1   0.10910 283424.160000
   1763   1764     1   0.10910 283424.160000
   1763   1766     1   0.10910 283424.160000
   1765   1767     1   0.10969 276646.080000
   1765   1768     1   0.10969 276646.080000
   1770   1780     1   0.09730 310787.520000
   1774   1775     1   0.10969 276646.080000
   1774   1776     1   0.10969 276646.080000
   1779   1781     1   0.09730 310787.520000
   1783   1784     1   0.10129 337397.760000
   1785   1786     1   0.10969 276646.080000
   1785   1788     1   0.10969 276646.080000
   1787   1789     1   0.10910 283424.160000
   1787   1790     1   0.10910 283424.160000
   1791   1812     1   0.10304 312293.760000
   1792   1802     1   0.10910 283424.160000
   1792   1803     1   0.10910 283424.160000
   1793   1794     1   0.10910 283424.160000
   1793   1796     1   0.10910 283424.160000
   1795   1797     1   0.10969 276646.080000
   1795   1798     1   0.10969 276646.080000
   1800   1810     1   0.09730 310787.520000
   1804   1805     1   0.10969 276646.080000
   1804   1806     1   0.10969 276646.080000
   1809   1811     1   0.09730 310787.520000
   1813   1814     1   0.10129 337397.760000
   1815   1816     1   0.10969 276646.080000
   1815   1818     1   0.10969 276646.080000
   1817   1819     1   0.10910 283424.160000
   1817   1820     1   0.10910 283424.160000
   1821   1842     1   0.10304 312293.760000
   1822   1832     1   0.10910 283424.160000
   1822   1833     1   0.10910 283424.160000
   1823   1824     1   0.10910 283424.160000
   1823   1826     1   0.10910 283424.160000
   1825   1827     1   0.10969 276646.080000
   1825   1828     1   0.10969 276646.080000
   1830   1840     1   0.09730 310787.520000
   1834   1835     1   0.10969 276646.080000
   1834   1836     1   0.10969 276646.080000
   1839   1841     1   0.09730 310787.520000
   1843   1844     1   0.10129 337397.760000
   1845   1846     1   0.10969 276646.080000
   1845   1848     1   0.10969 276646.080000
   1847   1849     1   0.10910 283424.160000
   1847   1850     1   0.10910 283424.160000
   1851   1872     1   0.10304 312293.760000
   1852   1862     1   0.10910 283424.160000
   1852   1863     1   0.10910 283424.160000
   1853   1854     1   0.10910 283424.160000
   1853   1856     1   0.10910 283424.160000
   1855   1857     1   0.10969 276646.080000
   1855   1858     1   0.10969 276646.080000
   1860   1870     1   0.09730 310787.520000
   1864   1865     1   0.10969 276646.080000
   1864   1866     1   0.10969 276646.080000
   1869   1871     1   0.09730 310787.520000
   1873   1874     1   0.10129 337397.760000
   1875   1876     1   0.10969 276646.080000
   1875   1878     1   0.10969 276646.080000
   1877   1879     1   0.10910 283424.160000
   1877   1880     1   0.10910 283424.160000
   1881   1902     1   0.10304 312293.760000
   1882   1892     1   0.10910 283424.160000
   1882   1893     1   0.10910 283424.160000
   1883   1884     1   0.10910 283424.160000
   1883   1886     1   0.10910 283424.160000
   1885   1887     1   0.10969 276646.080000
   1885   1888     1   0.10969 276646.080000
   1890   1900     1   0.09730 310787.520000
   1894   1895     1   0.10969 276646.080000
   1894   1896     1   0.10969 276646.080000
   1899   1901     1   0.09730 310787.520000
   1903   1904     1   0.10129 337397.760000
   1905   1906     1   0.10969 276646.080000
   1905   1908     1   0.10969 276646.080000
   1907   1909     1   0.10910 283424.160000
   1907   1910     1   0.10910 283424.160000
   1911   1932     1   0.10304 312293.760000
   1912   1922     1   0.10910 283424.160000
   1912   1923     1   0.10910 283424.160000
   1913   1914     1   0.10910 283424.160000
   1913   1916     1   0.10910 283424.160000
   1915   1917     1   0.10969 276646.080000
   1915   1918     1   0.10969 276646.080000
   1920   1930     1   0.09730 310787.520000
   1924   1925     1   0.10969 276646.080000
   1924   1926     1   0.10969 276646.080000
   1929   1931     1   0.09730 310787.520000
   1933   1934     1   0.10129 337397.760000
   1935   1936     1   0.10969 276646.080000
   1935   1938     1   0.10969 276646.080000
   1937   1939     1   0.10910 283424.160000
   1937   1940     1   0.10910 283424.160000
   1941   1962     1   0.10304 312293.760000
   1942   1952     1   0.10910 283424.160000
   1942   1953     1   0.10910 283424.160000
   1943   1944     1   0.10910 283424.160000
   1943   1946     1   0.10910 283424.160000
   1945   1947     1   0.10969 276646.080000
   1945   1948     1   0.10969 276646.080000
   1950   1960     1   0.09730 310787.520000
   1954   1955     1   0.10969 276646.080000
   1954   1956     1   0.10969 276646.080000
   1959   1961     1   0.09730 310787.520000
   1963   1964     1   0.10129 337397.760000
   1965   1966     1   0.10969 276646.080000
   1965   1968     1   0.10969 276646.080000
   1967   1969     1   0.10910 283424.160000
   1967   1970     1   0.10910 283424.160000
   1971   1992     1   0.10304 312293.760000
   1972   1982     1   0.10910 283424.160000
   1972   1983     1   0.10910 283424.160000
   1973   1974     1   0.10910 283424.160000
   1973   1976     1   0.10910 283424.160000
   1975   1977     1   0.10969 276646.080000
   1975   1978     1   0.10969 276646.080000
   1980   1990     1   0.09730 310787.520000
   1984   1985     1   0.10969 276646.080000
   1984   1986     1   0.10969 276646.080000
   1989   1991     1   0.09730 310787.520000
   1993   1994     1   0.10129 337397.760000
   1995   1996     1   0.10969 276646.080000
   1995   1998     1   0.10969 276646.080000
   1997   1999     1   0.10910 283424.160000
   1997   2000     1   0.10910 283424.160000
   2001   2022     1   0.10304 312293.760000
   2002   2012     1   0.10910 283424.160000
   2002   2013     1   0.10910 283424.160000
   2003   2004     1   0.10910 283424.160000
   2003   2006     1   0.10910 283424.160000
   2005   2007     1   0.10969 276646.080000
   2005   2008     1   0.10969 276646.080000
   2010   2020     1   0.09730 310787.520000
   2014   2015     1   0.10969 276646.080000
   2014   2016     1   0.10969 276646.080000
   2019   2021     1   0.09730 310787.520000
   2023   2024     1   0.10129 337397.760000
   2025   2026     1   0.10969 276646.080000
   2025   2028     1   0.10969 276646.080000
   2027   2029     1   0.10910 283424.160000
   2027   2030     1   0.10910 283424.160000
   2031   2052     1   0.10304 312293.760000
   2032   2042     1   0.10910 283424.160000
   2032   2043     1   0.10910 283424.160000
   2033   2034     1   0.10910 283424.160000
   2033   2036     1   0.10910 283424.160000
   2035   2037     1   0.10969 276646.080000
   2035   2038     1   0.10969 276646.080000
   2040   2050     1   0.09730 310787.520000
   2044   2045     1   0.10969 276646.080000
   2044   2046     1   0.10969 276646.080000
   2049   2051     1   0.09730 310787.520000
   2053   2054     1   0.10129 337397.760000
   2055   2056     1   0.10969 276646.080000
   2055   2058     1   0.10969 276646.080000
   2057   2059     1   0.10910 283424.160000
   2057   2060     1   0.10910 283424.160000
   2061   2082     1   0.10304 312293.760000
   2062   2072     1   0.10910 283424.160000
   2062   2073     1   0.10910 283424.160000
   2063   2064     1   0.10910 283424.160000
   2063   2066     1   0.10910 283424.160000
   2065   2067     1   0.10969 276646.080000
   2065   2068     1   0.10969 276646.080000
   2070   2080     1   0.09730 310787.520000
   2074   2075     1   0.10969 276646.080000
   2074   2076     1   0.10969 276646.080000
   2079   2081     1   0.09730 310787.520000
   2083   2084     1   0.10129 337397.760000
   2085   2086     1   0.10969 276646.080000
   2085   2088     1   0.10969 276646.080000
   2087   2089     1   0.10910 283424.160000
   2087   2090     1   0.10910 283424.160000
   2091   2112     1   0.10304 312293.760000
   2092   2102     1   0.10910 283424.160000
   2092   2103     1   0.10910 283424.160000
   2093   2094     1   0.10910 283424.160000
   2093   2096     1   0.10910 283424.160000
   2095   2097     1   0.10969 276646.080000
   2095   2098     1   0.10969 276646.080000
   2100   2110     1   0.09730 310787.520000
   2104   2105     1   0.10969 276646.080000
   2104   2106     1   0.10969 276646.080000
   2109   2111     1   0.09730 310787.520000
   2113   2114     1   0.10129 337397.760000
   2115   2116     1   0.10969 276646.080000
   2115   2118     1   0.10969 276646.080000
   2117   2119     1   0.10910 283424.160000
   2117   2120     1   0.10910 283424.160000
   2121   2142     1   0.10304 312293.760000
   2122   2132     1   0.10910 283424.160000
   2122   2133     1   0.10910 283424.160000
   2123   2124     1   0.10910 283424.160000
   2123   2126     1   0.10910 283424.160000
   2125   2127     1   0.10969 276646.080000
   2125   2128     1   0.10969 276646.080000
   2130   2140     1   0.09730 310787.520000
   2134   2135     1   0.10969 276646.080000
   2134   2136     1   0.10969 276646.080000
   2139   2141     1   0.09730 310787.520000
   2143   2144     1   0.10129 337397.760000
   2145   2146     1   0.10969 276646.080000
   2145   2148     1   0.10969 276646.080000
   2147   2149     1   0.10910 283424.160000
   2147   2150     1   0.10910 283424.160000
   2151   2172     1   0.10304 312293.760000
   2152   2162     1   0.10910 283424.160000
   2152   2163     1   0.10910 283424.160000
   2153   2154     1   0.10910 283424.160000
   2153   2156     1   0.10910 283424.160000
   2155   2157     1   0.10969 276646.080000
   2155   2158     1   0.10969 276646.080000
   2160   2170     1   0.09730 310787.520000
   2164   2165     1   0.10969 276646.080000
   2164   2166     1   0.10969 276646.080000
   2169   2171     1   0.09730 310787.520000
   2173   2174     1   0.10129 337397.760000
   2175   2176     1   0.10969 276646.080000
   2175   2178     1   0.10969 276646.080000
   2177   2179     1   0.10910 283424.160000
   2177   2180     1   0.10910 283424.160000
   2181   2202     1   0.10304 312293.760000
   2182   2192     1   0.10910 283424.160000
   2182   2193     1   0.10910 283424.160000
   2183   2184     1   0.10910 283424.160000
   2183   2186     1   0.10910 283424.160000
   2185   2187     1   0.10969 276646.080000
   2185   2188     1   0.10969 276646.080000
   2190   2200     1   0.09730 310787.520000
   2194   2195     1   0.10969 276646.080000
   2194   2196     1   0.10969 276646.080000
   2199   2201     1   0.09730 310787.520000
   2203   2204     1   0.10129 337397.760000
   2205   2206     1   0.10969 276646.080000
   2205   2208     1   0.10969 276646.080000
   2207   2209     1   0.10910 283424.160000
   2207   2210     1   0.10910 283424.160000
   2211   2232     1   0.10304 312293.760000
   2212   2222     1   0.10910 283424.160000
   2212   2223     1   0.10910 283424.160000
   2213   2214     1   0.10910 283424.160000
   2213   2216     1   0.10910 283424.160000
   2215   2217     1   0.10969 276646.080000
   2215   2218     1   0.10969 276646.080000
   2220   2230     1   0.09730 310787.520000
   2224   2225     1   0.10969 276646.080000
   2224   2226     1   0.10969 276646.080000
   2229   2231     1   0.09730 310787.520000
   2233   2234     1   0.10129 337397.760000
   2235   2236     1   0.10969 276646.080000
   2235   2238     1   0.10969 276646.080000
   2237   2239     1   0.10910 283424.160000
   2237   2240     1   0.10910 283424.160000
   2241   2262     1   0.10304 312293.760000
   2242   2252     1   0.10910 283424.160000
   2242   2253     1   0.10910 283424.160000
   2243   2244     1   0.10910 283424.160000
   2243   2246     1   0.10910 283424.160000
   2245   2247     1   0.10969 276646.080000
   2245   2248     1   0.10969 276646.080000
   2250   2260     1   0.09730 310787.520000
   2254   2255     1   0.10969 276646.080000
   2254   2256     1   0.10969 276646.080000
   2259   2261     1   0.09730 310787.520000
   2263   2264     1   0.10129 337397.760000
   2265   2266     1   0.10969 276646.080000
   2265   2268     1   0.10969 276646.080000
   2267   2269     1   0.10910 283424.160000
   2267   2270     1   0.10910 283424.160000
   2271   2292     1   0.10304 312293.760000
   2272   2282     1   0.10910 283424.160000
   2272   2283     1   0.10910 283424.160000
   2273   2274     1   0.10910 283424.160000
   2273   2276     1   0.10910 283424.160000
   2275   2277     1   0.10969 276646.080000
   2275   2278     1   0.10969 276646.080000
   2280   2290     1   0.09730 310787.520000
   2284   2285     1   0.10969 276646.080000
   2284   2286     1   0.10969 276646.080000
   2289   2291     1   0.09730 310787.520000
   2293   2294     1   0.10129 337397.760000
   2295   2296     1   0.10969 276646.080000
   2295   2298     1   0.10969 276646.080000
   2297   2299     1   0.10910 283424.160000
   2297   2300     1   0.10910 283424.160000
   2301   2322     1   0.10304 312293.760000
   2302   2312     1   0.10910 283424.160000
   2302   2313     1   0.10910 283424.160000
   2303   2304     1   0.10910 283424.160000
   2303   2306     1   0.10910 283424.160000
   2305   2307     1   0.10969 276646.080000
   2305   2308     1   0.10969 276646.080000
   2310   2320     1   0.09730 310787.520000
   2314   2315     1   0.10969 276646.080000
   2314   2316     1   0.10969 276646.080000
   2319   2321     1   0.09730 310787.520000
   2323   2324     1   0.10129 337397.760000
   2325   2326     1   0.10969 276646.080000
   2325   2328     1   0.10969 276646.080000
   2327   2329     1   0.10910 283424.160000
   2327   2330     1   0.10910 283424.160000
   2331   2352     1   0.10304 312293.760000
   2332   2342     1   0.10910 283424.160000
   2332   2343     1   0.10910 283424.160000
   2333   2334     1   0.10910 283424.160000
   2333   2336     1   0.10910 283424.160000
   2335   2337     1   0.10969 276646.080000
   2335   2338     1   0.10969 276646.080000
   2340   2350     1   0.09730 310787.520000
   2344   2345     1   0.10969 276646.080000
   2344   2346     1   0.10969 276646.080000
   2349   2351     1   0.09730 310787.520000
   2353   2354     1   0.10129 337397.760000
   2355   2356     1   0.10969 276646.080000
   2355   2358     1   0.10969 276646.080000
   2357   2359     1   0.10910 283424.160000
   2357   2360     1   0.10910 283424.160000
   2361   2382     1   0.10304 312293.760000
   2362   2372     1   0.10910 283424.160000
   2362   2373     1   0.10910 283424.160000
   2363   2364     1   0.10910 283424.160000
   2363   2366     1   0.10910 283424.160000
   2365   2367     1   0.10969 276646.080000
   2365   2368     1   0.10969 276646.080000
   2370   2380     1   0.09730 310787.520000
   2374   2375     1   0.10969 276646.080000
   2374   2376     1   0.10969 276646.080000
   2379   2381     1   0.09730 310787.520000
   2383   2384     1   0.10129 337397.760000
   2385   2386     1   0.10969 276646.080000
   2385   2388     1   0.10969 276646.080000
   2387   2389     1   0.10910 283424.160000
   2387   2390     1   0.10910 283424.160000
   2391   2412     1   0.10304 312293.760000
   2392   2402     1   0.10910 283424.160000
   2392   2403     1   0.10910 283424.160000
   2393   2394     1   0.10910 283424.160000
   2393   2396     1   0.10910 283424.160000
   2395   2397     1   0.10969 276646.080000
   2395   2398     1   0.10969 276646.080000
   2400   2410     1   0.09730 310787.520000
   2404   2405     1   0.10969 276646.080000
   2404   2406     1   0.10969 276646.080000
   2409   2411     1   0.09730 310787.520000
   2413   2414     1   0.10129 337397.760000
   2415   2416     1   0.10969 276646.080000
   2415   2418     1   0.10969 276646.080000
   2417   2419     1   0.10910 283424.160000
   2417   2420     1   0.10910 283424.160000
   2421   2442     1   0.10304 312293.760000
   2422   2432     1   0.10910 283424.160000
   2422   2433     1   0.10910 283424.160000
   2423   2424     1   0.10910 283424.160000
   2423   2426     1   0.10910 283424.160000
   2425   2427     1   0.10969 276646.080000
   2425   2428     1   0.10969 276646.080000
   2430   2440     1   0.09730 310787.520000
   2434   2435     1   0.10969 276646.080000
   2434   2436     1   0.10969 276646.080000
   2439   2441     1   0.09730 310787.520000
   2443   2444     1   0.10129 337397.760000
   2445   2446     1   0.10969 276646.080000
   2445   2448     1   0.10969 276646.080000
   2447   2449     1   0.10910 283424.160000
   2447   2450     1   0.10910 283424.160000
   2451   2472     1   0.10304 312293.760000
   2452   2462     1   0.10910 283424.160000
   2452   2463     1   0.10910 283424.160000
   2453   2454     1   0.10910 283424.160000
   2453   2456     1   0.10910 283424.160000
   2455   2457     1   0.10969 276646.080000
   2455   2458     1   0.10969 276646.080000
   2460   2470     1   0.09730 310787.520000
   2464   2465     1   0.10969 276646.080000
   2464   2466     1   0.10969 276646.080000
   2469   2471     1   0.09730 310787.520000
   2473   2474     1   0.10129 337397.760000
   2475   2476     1   0.10969 276646.080000
   2475   2478     1   0.10969 276646.080000
   2477   2479     1   0.10910 283424.160000
   2477   2480     1   0.10910 283424.160000
   2481   2502     1   0.10304 312293.760000
   2482   2492     1   0.10910 283424.160000
   2482   2493     1   0.10910 283424.160000
   2483   2484     1   0.10910 283424.160000
   2483   2486     1   0.10910 283424.160000
   2485   2487     1   0.10969 276646.080000
   2485   2488     1   0.10969 276646.080000
   2490   2500     1   0.09730 310787.520000
   2494   2495     1   0.10969 276646.080000
   2494   2496     1   0.10969 276646.080000
   2499   2501     1   0.09730 310787.520000
   2503   2504     1   0.10129 337397.760000
   2505   2506     1   0.10969 276646.080000
   2505   2508     1   0.10969 276646.080000
   2507   2509     1   0.10910 283424.160000
   2507   2510     1   0.10910 283424.160000
   2511   2532     1   0.10304 312293.760000
   2512   2522     1   0.10910 283424.160000
   2512   2523     1   0.10910 283424.160000
   2513   2514     1   0.10910 283424.160000
   2513   2516     1   0.10910 283424.160000
   2515   2517     1   0.10969 276646.080000
   2515   2518     1   0.10969 276646.080000
   2520   2530     1   0.09730 310787.520000
   2524   2525     1   0.10969 276646.080000
   2524   2526     1   0.10969 276646.080000
   2529   2531     1   0.09730 310787.520000
   2533   2534     1   0.10129 337397.760000
   2535   2536     1   0.10969 276646.080000
   2535   2538     1   0.10969 276646.080000
   2537   2539     1   0.10910 283424.160000
   2537   2540     1   0.10910 283424.160000
   2541   2562     1   0.10304 312293.760000
   2542   2552     1   0.10910 283424.160000
   2542   2553     1   0.10910 283424.160000
   2543   2544     1   0.10910 283424.160000
   2543   2546     1   0.10910 283424.160000
   2545   2547     1   0.10969 276646.080000
   2545   2548     1   0.10969 276646.080000
   2550   2560     1   0.09730 310787.520000
   2554   2555     1   0.10969 276646.080000
   2554   2556     1   0.10969 276646.080000
   2559   2561     1   0.09730 310787.520000
   2563   2564     1   0.10129 337397.760000
   2565   2566     1   0.10969 276646.080000
   2565   2568     1   0.10969 276646.080000
   2567   2569     1   0.10910 283424.160000
   2567   2570     1   0.10910 283424.160000
   2571   2592     1   0.10304 312293.760000
   2572   2582     1   0.10910 283424.160000
   2572   2583     1   0.10910 283424.160000
   2573   2574     1   0.10910 283424.160000
   2573   2576     1   0.10910 283424.160000
   2575   2577     1   0.10969 276646.080000
   2575   2578     1   0.10969 276646.080000
   2580   2590     1   0.09730 310787.520000
   2584   2585     1   0.10969 276646.080000
   2584   2586     1   0.10969 276646.080000
   2589   2591     1   0.09730 310787.520000
   2593   2594     1   0.10129 337397.760000
   2595   2596     1   0.10969 276646.080000
   2595   2598     1   0.10969 276646.080000
   2597   2599     1   0.10910 283424.160000
   2597   2600     1   0.10910 283424.160000
   2601   2622     1   0.10304 312293.760000
   2602   2612     1   0.10910 283424.160000
   2602   2613     1   0.10910 283424.160000
   2603   2604     1   0.10910 283424.160000
   2603   2606     1   0.10910 283424.160000
   2605   2607     1   0.10969 276646.080000
   2605   2608     1   0.10969 276646.080000
   2610   2620     1   0.09730 310787.520000
   2614   2615     1   0.10969 276646.080000
   2614   2616     1   0.10969 276646.080000
   2619   2621     1   0.09730 310787.520000
   2623   2624     1   0.10129 337397.760000
   2625   2626     1   0.10969 276646.080000
   2625   2628     1   0.10969 276646.080000
   2627   2629     1   0.10910 283424.160000
   2627   2630     1   0.10910 283424.160000
   2631   2652     1   0.10304 312293.760000
   2632   2642     1   0.10910 283424.160000
   2632   2643     1   0.10910 283424.160000
   2633   2634     1   0.10910 283424.160000
   2633   2636     1   0.10910 283424.160000
   2635   2637     1   0.10969 276646.080000
   2635   2638     1   0.10969 276646.080000
   2640   2650     1   0.09730 310787.520000
   2644   2645     1   0.10969 276646.080000
   2644   2646     1   0.10969 276646.080000
   2649   2651     1   0.09730 310787.520000
   2653   2654     1   0.10129 337397.760000
   2655   2656     1   0.10969 276646.080000
   2655   2658     1   0.10969 276646.080000
   2657   2659     1   0.10910 283424.160000
   2657   2660     1   0.10910 283424.160000
   2661   2682     1   0.10304 312293.760000
   2662   2672     1   0.10910 283424.160000
   2662   2673     1   0.10910 283424.160000
   2663   2664     1   0.10910 283424.160000
   2663   2666     1   0.10910 283424.160000
   2665   2667     1   0.10969 276646.080000
   2665   2668     1   0.10969 276646.080000
   2670   2680     1   0.09730 310787.520000
   2674   2675     1   0.10969 276646.080000
   2674   2676     1   0.10969 276646.080000
   2679   2681     1   0.09730 310787.520000
   2683   2684     1   0.10129 337397.760000
   2685   2686     1   0.10969 276646.080000
   2685   2688     1   0.10969 276646.080000
   2687   2689     1   0.10910 283424.160000
   2687   2690     1   0.10910 283424.160000
   2691   2712     1   0.10304 312293.760000
   2692   2702     1   0.10910 283424.160000
   2692   2703     1   0.10910 283424.160000
   2693   2694     1   0.10910 283424.160000
   2693   2696     1   0.10910 283424.160000
   2695   2697     1   0.10969 276646.080000
   2695   2698     1   0.10969 276646.080000
   2700   2710     1   0.09730 310787.520000
   2704   2705     1   0.10969 276646.080000
   2704   2706     1   0.10969 276646.080000
   2709   2711     1   0.09730 310787.520000
   2713   2714     1   0.10129 337397.760000
   2715   2716     1   0.10969 276646.080000
   2715   2718     1   0.10969 276646.080000
   2717   2719     1   0.10910 283424.160000
   2717   2720     1   0.10910 283424.160000
   2721   2742     1   0.10304 312293.760000
   2722   2732     1   0.10910 283424.160000
   2722   2733     1   0.10910 283424.160000
   2723   2724     1   0.10910 283424.160000
   2723   2726     1   0.10910 283424.160000
   2725   2727     1   0.10969 276646.080000
   2725   2728     1   0.10969 276646.080000
   2730   2740     1   0.09730 310787.520000
   2734   2735     1   0.10969 276646.080000
   2734   2736     1   0.10969 276646.080000
   2739   2741     1   0.09730 310787.520000
   2743   2744     1   0.10129 337397.760000
   2745   2746     1   0.10969 276646.080000
   2745   2748     1   0.10969 276646.080000
   2747   2749     1   0.10910 283424.160000
   2747   2750     1   0.10910 283424.160000
   2751   2772     1   0.10304 312293.760000
   2752   2762     1   0.10910 283424.160000
   2752   2763     1   0.10910 283424.160000
   2753   2754     1   0.10910 283424.160000
   2753   2756     1   0.10910 283424.160000
   2755   2757     1   0.10969 276646.080000
   2755   2758     1   0.10969 276646.080000
   2760   2770     1   0.09730 310787.520000
   2764   2765     1   0.10969 276646.080000
   2764   2766     1   0.10969 276646.080000
   2769   2771     1   0.09730 310787.520000
   2773   2774     1   0.10129 337397.760000
   2775   2776     1   0.10969 276646.080000
   2775   2778     1   0.10969 276646.080000
   2777   2779     1   0.10910 283424.160000
   2777   2780     1   0.10910 283424.160000
   2781   2802     1   0.10304 312293.760000
   2782   2792     1   0.10910 283424.160000
   2782   2793     1   0.10910 283424.160000
   2783   2784     1   0.10910 283424.160000
   2783   2786     1   0.10910 283424.160000
   2785   2787     1   0.10969 276646.080000
   2785   2788     1   0.10969 276646.080000
   2790   2800     1   0.09730 310787.520000
   2794   2795     1   0.10969 276646.080000
   2794   2796     1   0.10969 276646.080000
   2799   2801     1   0.09730 310787.520000
   2803   2804     1   0.10129 337397.760000
   2805   2806     1   0.10969 276646.080000
   2805   2808     1   0.10969 276646.080000
   2807   2809     1   0.10910 283424.160000
   2807   2810     1   0.10910 283424.160000
   2811   2832     1   0.10304 312293.760000
   2812   2822     1   0.10910 283424.160000
   2812   2823     1   0.10910 283424.160000
   2813   2814     1   0.10910 283424.160000
   2813   2816     1   0.10910 283424.160000
   2815   2817     1   0.10969 276646.080000
   2815   2818     1   0.10969 276646.080000
   2820   2830     1   0.09730 310787.520000
   2824   2825     1   0.10969 276646.080000
   2824   2826     1   0.10969 276646.080000
   2829   2831     1   0.09730 310787.520000
   2833   2834     1   0.10129 337397.760000
   2835   2836     1   0.10969 276646.080000
   2835   2838     1   0.10969 276646.080000
   2837   2839     1   0.10910 283424.160000
   2837   2840     1   0.10910 283424.160000
   2841   2862     1   0.10304 312293.760000
   2842   2852     1   0.10910 283424.160000
   2842   2853     1   0.10910 283424.160000
   2843   2844     1   0.10910 283424.160000
   2843   2846     1   0.10910 283424.160000
   2845   2847     1   0.10969 276646.080000
   2845   2848     1   0.10969 276646.080000
   2850   2860     1   0.09730 310787.520000
   2854   2855     1   0.10969 276646.080000
   2854   2856     1   0.10969 276646.080000
   2859   2861     1   0.09730 310787.520000
   2863   2864     1   0.10129 337397.760000
   2865   2866     1   0.10969 276646.080000
   2865   2868     1   0.10969 276646.080000
   2867   2869     1   0.10910 283424.160000
   2867   2870     1   0.10910 283424.160000
   2871   2892     1   0.10304 312293.760000
   2872   2882     1   0.10910 283424.160000
   2872   2883     1   0.10910 283424.160000
   2873   2874     1   0.10910 283424.160000
   2873   2876     1   0.10910 283424.160000
   2875   2877     1   0.10969 276646.080000
   2875   2878     1   0.10969 276646.080000
   2880   2890     1   0.09730 310787.520000
   2884   2885     1   0.10969 276646.080000
   2884   2886     1   0.10969 276646.080000
   2889   2891     1   0.09730 310787.520000
   2893   2894     1   0.10129 337397.760000
   2895   2896     1   0.10969 276646.080000
   2895   2898     1   0.10969 276646.080000
   2897   2899     1   0.10910 283424.160000
   2897   2900     1   0.10910 283424.160000
   2901   2922     1   0.10304 312293.760000
   2902   2912     1   0.10910 283424.160000
   2902   2913     1   0.10910 283424.160000
   2903   2904     1   0.10910 283424.160000
   2903   2906     1   0.10910 283424.160000
   2905   2907     1   0.10969 276646.080000
   2905   2908     1   0.10969 276646.080000
   2910   2920     1   0.09730 310787.520000
   2914   2915     1   0.10969 276646.080000
   2914   2916     1   0.10969 276646.080000
   2919   2921     1   0.09730 310787.520000
   2923   2924     1   0.10129 337397.760000
   2925   2926     1   0.10969 276646.080000
   2925   2928     1   0.10969 276646.080000
   2927   2929     1   0.10910 283424.160000
   2927   2930     1   0.10910 283424.160000
   2931   2952     1   0.10304 312293.760000
   2932   2942     1   0.10910 283424.160000
   2932   2943     1   0.10910 283424.160000
   2933   2934     1   0.10910 283424.160000
   2933   2936     1   0.10910 283424.160000
   2935   2937     1   0.10969 276646.080000
   2935   2938     1   0.10969 276646.080000
   2940   2950     1   0.09730 310787.520000
   2944   2945     1   0.10969 276646.080000
   2944   2946     1   0.10969 276646.080000
   2949   2951     1   0.09730 310787.520000
   2953   2954     1   0.10129 337397.760000
   2955   2956     1   0.10969 276646.080000
   2955   2958     1   0.10969 276646.080000
   2957   2959     1   0.10910 283424.160000
   2957   2960     1   0.10910 283424.160000
   2961   2982     1   0.10304 312293.760000
   2962   2972     1   0.10910 283424.160000
   2962   2973     1   0.10910 283424.160000
   2963   2964     1   0.10910 283424.160000
   2963   2966     1   0.10910 283424.160000
   2965   2967     1   0.10969 276646.080000
   2965   2968     1   0.10969 276646.080000
   2970   2980     1   0.09730 310787.520000
   2974   2975     1   0.10969 276646.080000
   2974   2976     1   0.10969 276646.080000
   2979   2981     1   0.09730 310787.520000
   2983   2984     1   0.10129 337397.760000
   2985   2986     1   0.10969 276646.080000
   2985   2988     1   0.10969 276646.080000
   2987   2989     1   0.10910 283424.160000
   2987   2990     1   0.10910 283424.160000
   2991   3012     1   0.10304 312293.760000
   2992   3002     1   0.10910 283424.160000
   2992   3003     1   0.10910 283424.160000
   2993   2994     1   0.10910 283424.160000
   2993   2996     1   0.10910 283424.160000
   2995   2997     1   0.10969 276646.080000
   2995   2998     1   0.10969 276646.080000
   3000   3010     1   0.09730 310787.520000
   3004   3005     1   0.10969 276646.080000
   3004   3006     1   0.10969 276646.080000
   3009   3011     1   0.09730 310787.520000
   3013   3014     1   0.10129 337397.760000
   3015   3016     1   0.10969 276646.080000
   3015   3018     1   0.10969 276646.080000
   3017   3019     1   0.10910 283424.160000
   3017   3020     1   0.10910 283424.160000
   3021   3042     1   0.10304 312293.760000
   3022   3032     1   0.10910 283424.160000
   3022   3033     1   0.10910 283424.160000
   3023   3024     1   0.10910 283424.160000
   3023   3026     1   0.10910 283424.160000
   3025   3027     1   0.10969 276646.080000
   3025   3028     1   0.10969 276646.080000
   3030   3040     1   0.09730 310787.520000
   3034   3035     1   0.10969 276646.080000
   3034   3036     1   0.10969 276646.080000
   3039   3041     1   0.09730 310787.520000
   3043   3044     1   0.10129 337397.760000
   3045   3046     1   0.10969 276646.080000
   3045   3048     1   0.10969 276646.080000
   3047   3049     1   0.10910 283424.160000
   3047   3050     1   0.10910 283424.160000
   3051   3072     1   0.10304 312293.760000
   3052   3062     1   0.10910 283424.160000
   3052   3063     1   0.10910 283424.160000
   3053   3054     1   0.10910 283424.160000
   3053   3056     1   0.10910 283424.160000
   3055   3057     1   0.10969 276646.080000
   3055   3058     1   0.10969 276646.080000
   3060   3070     1   0.09730 310787.520000
   3064   3065     1   0.10969 276646.080000
   3064   3066     1   0.10969 276646.080000
   3069   3071     1   0.09730 310787.520000
   3073   3074     1   0.10129 337397.760000
   3075   3076     1   0.10969 276646.080000
   3075   3078     1   0.10969 276646.080000
   3077   3079     1   0.10910 283424.160000
   3077   3080     1   0.10910 283424.160000
   3081   3102     1   0.10304 312293.760000
   3082   3092     1   0.10910 283424.160000
   3082   3093     1   0.10910 283424.160000
   3083   3084     1   0.10910 283424.160000
   3083   3086     1   0.10910 283424.160000
   3085   3087     1   0.10969 276646.080000
   3085   3088     1   0.10969 276646.080000
   3090   3100     1   0.09730 310787.520000
   3094   3095     1   0.10969 276646.080000
   3094   3096     1   0.10969 276646.080000
   3099   3101     1   0.09730 310787.520000
   3103   3104     1   0.10129 337397.760000
   3105   3106     1   0.10969 276646.080000
   3105   3108     1   0.10969 276646.080000
   3107   3109     1   0.10910 283424.160000
   3107   3110     1   0.10910 283424.160000
   3111   3132     1   0.10304 312293.760000
   3112   3122     1   0.10910 283424.160000
   3112   3123     1   0.10910 283424.160000
   3113   3114     1   0.10910 283424.160000
   3113   3116     1   0.10910 283424.160000
   3115   3117     1   0.10969 276646.080000
   3115   3118     1   0.10969 276646.080000
   3120   3130     1   0.09730 310787.520000
   3124   3125     1   0.10969 276646.080000
   3124   3126     1   0.10969 276646.080000
   3129   3131     1   0.09730 310787.520000
   3133   3134     1   0.10129 337397.760000
   3135   3136     1   0.10969 276646.080000
   3135   3138     1   0.10969 276646.080000
   3137   3139     1   0.10910 283424.160000
   3137   3140     1   0.10910 283424.160000
   3141   3162     1   0.10304 312293.760000
   3142   3152     1   0.10910 283424.160000
   3142   3153     1   0.10910 283424.160000
   3143   3144     1   0.10910 283424.160000
   3143   3146     1   0.10910 283424.160000
   3145   3147     1   0.10969 276646.080000
   3145   3148     1   0.10969 276646.080000
   3150   3160     1   0.09730 310787.520000
   3154   3155     1   0.10969 276646.080000
   3154   3156     1   0.10969 276646.080000
   3159   3161     1   0.09730 310787.520000
   3163   3164     1   0.10129 337397.760000
   3165   3166     1   0.10969 276646.080000
   3165   3168     1   0.10969 276646.080000
   3167   3169     1   0.10910 283424.160000
   3167   3170     1   0.10910 283424.160000
   3171   3192     1   0.10304 312293.760000
   3172   3182     1   0.10910 283424.160000
   3172   3183     1   0.10910 283424.160000
   3173   3174     1   0.10910 283424.160000
   3173   3176     1   0.10910 283424.160000
   3175   3177     1   0.10969 276646.080000
   3175   3178     1   0.10969 276646.080000
   3180   3190     1   0.09730 310787.520000
   3184   3185     1   0.10969 276646.080000
   3184   3186     1   0.10969 276646.080000
   3189   3191     1   0.09730 310787.520000
   3193   3194     1   0.10129 337397.760000
   3195   3196     1   0.10969 276646.080000
   3195   3198     1   0.10969 276646.080000
   3197   3199     1   0.10910 283424.160000
   3197   3200     1   0.10910 283424.160000
   3201   3222     1   0.10304 312293.760000
   3202   3212     1   0.10910 283424.160000
   3202   3213     1   0.10910 283424.160000
   3203   3204     1   0.10910 283424.160000
   3203   3206     1   0.10910 283424.160000
   3205   3207     1   0.10969 276646.080000
   3205   3208     1   0.10969 276646.080000
   3210   3220     1   0.09730 310787.520000
   3214   3215     1   0.10969 276646.080000
   3214   3216     1   0.10969 276646.080000
   3219   3221     1   0.09730 310787.520000
   3223   3224     1   0.10129 337397.760000
   3225   3226     1   0.10969 276646.080000
   3225   3228     1   0.10969 276646.080000
   3227   3229     1   0.10910 283424.160000
   3227   3230     1   0.10910 283424.160000
   3231   3252     1   0.10304 312293.760000
   3232   3242     1   0.10910 283424.160000
   3232   3243     1   0.10910 283424.160000
   3233   3234     1   0.10910 283424.160000
   3233   3236     1   0.10910 283424.160000
   3235   3237     1   0.10969 276646.080000
   3235   3238     1   0.10969 276646.080000
   3240   3250     1   0.09730 310787.520000
   3244   3245     1   0.10969 276646.080000
   3244   3246     1   0.10969 276646.080000
   3249   3251     1   0.09730 310787.520000
   3253   3254     1   0.10129 337397.760000
   3255   3256     1   0.10969 276646.080000
   3255   3258     1   0.10969 276646.080000
   3257   3259     1   0.10910 283424.160000
   3257   3260     1   0.10910 283424.160000
   3261   3282     1   0.10304 312293.760000
   3262   3272     1   0.10910 283424.160000
   3262   3273     1   0.10910 283424.160000
   3263   3264     1   0.10910 283424.160000
   3263   3266     1   0.10910 283424.160000
   3265   3267     1   0.10969 276646.080000
   3265   3268     1   0.10969 276646.080000
   3270   3280     1   0.09730 310787.520000
   3274   3275     1   0.10969 276646.080000
   3274   3276     1   0.10969 276646.080000
   3279   3281     1   0.09730 310787.520000
   3283   3284     1   0.10129 337397.760000
   3285   3286     1   0.10969 276646.080000
   3285   3288     1   0.10969 276646.080000
   3287   3289     1   0.10910 283424.160000
   3287   3290     1   0.10910 283424.160000
   3291   3312     1   0.10304 312293.760000
   3292   3302     1   0.10910 283424.160000
   3292   3303     1   0.10910 283424.160000
   3293   3294     1   0.10910 283424.160000
   3293   3296     1   0.10910 283424.160000
   3295   3297     1   0.10969 276646.080000
   3295   3298     1   0.10969 276646.080000
   3300   3310     1   0.09730 310787.520000
   3304   3305     1   0.10969 276646.080000
   3304   3306     1   0.10969 276646.080000
   3309   3311     1   0.09730 310787.520000
   3313   3314     1   0.10129 337397.760000
   3315   3316     1   0.10969 276646.080000
   3315   3318     1   0.10969 276646.080000
   3317   3319     1   0.10910 283424.160000
   3317   3320     1   0.10910 283424.160000
   3321   3342     1   0.10304 312293.760000
   3322   3332     1   0.10910 283424.160000
   3322   3333     1   0.10910 283424.160000
   3323   3324     1   0.10910 283424.160000
   3323   3326     1   0.10910 283424.160000
   3325   3327     1   0.10969 276646.080000
   3325   3328     1   0.10969 276646.080000
   3330   3340     1   0.09730 310787.520000
   3334   3335     1   0.10969 276646.080000
   3334   3336     1   0.10969 276646.080000
   3339   3341     1   0.09730 310787.520000
   3343   3344     1   0.10129 337397.760000
   3345   3346     1   0.10969 276646.080000
   3345   3348     1   0.10969 276646.080000
   3347   3349     1   0.10910 283424.160000
   3347   3350     1   0.10910 283424.160000
   3351   3372     1   0.10304 312293.760000
   3352   3362     1   0.10910 283424.160000
   3352   3363     1   0.10910 283424.160000
   3353   3354     1   0.10910 283424.160000
   3353   3356     1   0.10910 283424.160000
   3355   3357     1   0.10969 276646.080000
   3355   3358     1   0.10969 276646.080000
   3360   3370     1   0.09730 310787.520000
   3364   3365     1   0.10969 276646.080000
   3364   3366     1   0.10969 276646.080000
   3369   3371     1   0.09730 310787.520000
   3373   3374     1   0.10129 337397.760000
   3375   3376     1   0.10969 276646.080000
   3375   3378     1   0.10969 276646.080000
   3377   3379     1   0.10910 283424.160000
   3377   3380     1   0.10910 283424.160000
   3381   3402     1   0.10304 312293.760000
   3382   3392     1   0.10910 283424.160000
   3382   3393     1   0.10910 283424.160000
   3383   3384     1   0.10910 283424.160000
   3383   3386     1   0.10910 283424.160000
   3385   3387     1   0.10969 276646.080000
   3385   3388     1   0.10969 276646.080000
   3390   3400     1   0.09730 310787.520000
   3394   3395     1   0.10969 276646.080000
   3394   3396     1   0.10969 276646.080000
   3399   3401     1   0.09730 310787.520000
   3403   3404     1   0.10129 337397.760000
   3405   3406     1   0.10969 276646.080000
   3405   3408     1   0.10969 276646.080000
   3407   3409     1   0.10910 283424.160000
   3407   3410     1   0.10910 283424.160000
   3411   3432     1   0.10304 312293.760000
   3412   3422     1   0.10910 283424.160000
   3412   3423     1   0.10910 283424.160000
   3413   3414     1   0.10910 283424.160000
   3413   3416     1   0.10910 283424.160000
   3415   3417     1   0.10969 276646.080000
   3415   3418     1   0.10969 276646.080000
   3420   3430     1   0.09730 310787.520000
   3424   3425     1   0.10969 276646.080000
   3424   3426     1   0.10969 276646.080000
   3429   3431     1   0.09730 310787.520000
   3433   3434     1   0.10129 337397.760000
   3435   3436     1   0.10969 276646.080000
   3435   3438     1   0.10969 276646.080000
   3437   3439     1   0.10910 283424.160000
   3437   3440     1   0.10910 283424.160000
   3441   3462     1   0.10304 312293.760000
   3442   3452     1   0.10910 283424.160000
   3442   3453     1   0.10910 283424.160000
   3443   3444     1   0.10910 283424.160000
   3443   3446     1   0.10910 283424.160000
   3445   3447     1   0.10969 276646.080000
   3445   3448     1   0.10969 276646.080000
   3450   3460     1   0.09730 310787.520000
   3454   3455     1   0.10969 276646.080000
   3454   3456     1   0.10969 276646.080000
   3459   3461     1   0.09730 310787.520000
   3463   3464     1   0.10129 337397.760000
   3465   3466     1   0.10969 276646.080000
   3465   3468     1   0.10969 276646.080000
   3467   3469     1   0.10910 283424.160000
   3467   3470     1   0.10910 283424.160000
   3471   3492     1   0.10304 312293.760000
   3472   3482     1   0.10910 283424.160000
   3472   3483     1   0.10910 283424.160000
   3473   3474     1   0.10910 283424.160000
   3473   3476     1   0.10910 283424.160000
   3475   3477     1   0.10969 276646.080000
   3475   3478     1   0.10969 276646.080000
   3480   3490     1   0.09730 310787.520000
   3484   3485     1   0.10969 276646.080000
   3484   3486     1   0.10969 276646.080000
   3489   3491     1   0.09730 310787.520000
   3493   3494     1   0.10129 337397.760000
   3495   3496     1   0.10969 276646.080000
   3495   3498     1   0.10969 276646.080000
   3497   3499     1   0.10910 283424.160000
   3497   3500     1   0.10910 283424.160000
   3501   3522     1   0.10304 312293.760000
   3502   3512     1   0.10910 283424.160000
   3502   3513     1   0.10910 283424.160000
   3503   3504     1   0.10910 283424.160000
   3503   3506     1   0.10910 283424.160000
   3505   3507     1   0.10969 276646.080000
   3505   3508     1   0.10969 276646.080000
   3510   3520     1   0.09730 310787.520000
   3514   3515     1   0.10969 276646.080000
   3514   3516     1   0.10969 276646.080000
   3519   3521     1   0.09730 310787.520000

[ pairs ]
;    ai     aj funct         c0         c1         c2         c3
      1      4     1
      1     14     1
      1     16     1
      2     13     1
      2     15     1
      2      5     1
      2      6     1
      7      3     1
      8      3     1
      3     11     1
      3      9     1
      4     12     1
      4     10     1
      5      9     1
      5     17     1
      5     78     1
      6     11     1
      6     18     1
      6     52     1
      7     15     1
      7     20     1
      7    104     1
      8     13     1
      8     19     1
      8    130     1
      9     51     1
     10     50     1
     11     77     1
     12     76     1
     13    103     1
     14    102     1
     15    129     1
     16    128     1
     17     77     1
     18     51     1
     19    129     1
     20    103     1
     43     47     1
     43     49     1
     43     52     1
     44     48     1
     44     51     1
     44     53     1
     44    156     1
     45     46     1
     45     51     1
     45     54     1
     45    182     1
     46     50     1
     46    155     1
     47    154     1
     48     50     1
     48    181     1
     49    180     1
     53    155     1
     54    181     1
     69     73     1
     69     75     1
     69     78     1
     70     74     1
     70     77     1
     70     79     1
     70    208     1
     71     72     1
     71     77     1
     71     80     1
     71    234     1
     72     76     1
     72    207     1
     73    206     1
     74     76     1
     74    233     1
     75    232     1
     79    207     1
     80    233     1
     95     99     1
     95    101     1
     95    104     1
     96    100     1
     96    103     1
     96    105     1
     96    260     1
     97     98     1
     97    103     1
     97    106     1
     97    286     1
     98    102     1
     98    259     1
     99    258     1
    100    102     1
    100    285     1
    101    284     1
    105    259     1
    106    285     1
    121    125     1
    121    127     1
    121    130     1
    122    126     1
    122    129     1
    122    131     1
    122    312     1
    123    124     1
    123    129     1
    123    132     1
    123    338     1
    124    128     1
    124    311     1
    125    310     1
    126    128     1
    126    337     1
    127    336     1
    131    311     1
    132    337     1
    147    151     1
    147    153     1
    147    156     1
    148    152     1
    148    155     1
    148    157     1
    148    364     1
    149    150     1
    149    155     1
    149    158     1
    149    390     1
    150    154     1
    150    363     1
    151    362     1
    152    154     1
    152    389     1
    153    388     1
    157    363     1
    158    389     1
    173    177     1
    173    179     1
    173    182     1
    174    178     1
    174    181     1
    174    183     1
    174    416     1
    175    176     1
    175    181     1
    175    184     1
    175    442     1
    176    180     1
    176    415     1
    177    414     1
    178    180     1
    178    441     1
    179    440     1
    183    415     1
    184    441     1
    199    203     1
    199    205     1
    199    208     1
    200    204     1
    200    207     1
    200    209     1
    200    468     1
    201    202     1
    201    207     1
    201    210     1
    201    494     1
    202    206     1
    202    467     1
    203    466     1
    204    206     1
    204    493     1
    205    492     1
    209    467     1
    210    493     1
    225    229     1
    225    231     1
    225    234     1
    226    230     1
    226    233     1
    226    235     1
    226    520     1
    227    228     1
    227    233     1
    227    236     1
    227    546     1
    228    232     1
    228    519     1
    229    518     1
    230    232     1
    230    545     1
    231    544     1
    235    519     1
    236    545     1
    251    255     1
    251    257     1
    251    260     1
    252    256     1
    252    259     1
    252    261     1
    252    572     1
    253    254     1
    253    259     1
    253    262     1
    253    598     1
    254    258     1
    254    571     1
    255    570     1
    256    258     1
    256    597     1
    257    596     1
    261    571     1
    262    597     1
    277    281     1
    277    283     1
    277    286     1
    278    282     1
    278    285     1
    278    287     1
    278    624     1
    279    280     1
    279    285     1
    279    288     1
    279    650     1
    280    284     1
    280    623     1
    281    622     1
    282    284     1
    282    649     1
    283    648     1
    287    623     1
    288    649     1
    303    307     1
    303    309     1
    303    312     1
    304    308     1
    304    311     1
    304    313     1
    304    676     1
    305    306     1
    305    311     1
    305    314     1
    305    702     1
    306    310     1
    306    675     1
    307    674     1
    308    310     1
    308    701     1
    309    700     1
    313    675     1
    314    701     1
    329    333     1
    329    335     1
    329    338     1
    330    334     1
    330    337     1
    330    339     1
    330    728     1
    331    332     1
    331    337     1
    331    340     1
    331    754     1
    332    336     1
    332    727     1
    333    726     1
    334    336     1
    334    753     1
    335    752     1
    339    727     1
    340    753     1
    355    359     1
    355    361     1
    355    364     1
    356    360     1
    356    363     1
    356    365     1
    356    780     1
    357    358     1
    357    363     1
    357    366     1
    357    806     1
    358    362     1
    358    779     1
    359    778     1
    360    362     1
    360    805     1
    361    804     1
    365    779     1
    366    805     1
    381    385     1
    381    387     1
    381    390     1
    382    386     1
    382    389     1
    382    391     1
    382    832     1
    383    384     1
    383    389     1
    383    392     1
    383    858     1
    384    388     1
    384    831     1
    385    830     1
    386    388     1
    386    857     1
    387    856     1
    391    831     1
    392    857     1
    407    411     1
    407    413     1
    407    416     1
    408    412     1
    408    415     1
    408    417     1
    408    884     1
    409    410     1
    409    415     1
    409    418     1
    409    910     1
    410    414     1
    410    883     1
    411    882     1
    412    414     1
    412    909     1
    413    908     1
    417    883     1
    418    909     1
    433    437     1
    433    439     1
    433    442     1
    434    438     1
    434    441     1
    434    443     1
    434    936     1
    435    436     1
    435    441     1
    435    444     1
    435    962     1
    436    440     1
    436    935     1
    437    934     1
    438    440     1
    438    961     1
    439    960     1
    443    935     1
    444    961     1
    459    463     1
    459    465     1
    459    468     1
    460    464     1
    460    467     1
    460    469     1
    460    988     1
    461    462     1
    461    467     1
    461    470     1
    461   1014     1
    462    466     1
    462    987     1
    463    986     1
    464    466     1
    464   1013     1
    465   1012     1
    469    987     1
    470   1013     1
    485    489     1
    485    491     1
    485    494     1
    486    490     1
    486    493     1
    486    495     1
    486   1040     1
    487    488     1
    487    493     1
    487    496     1
    487   1066     1
    488    492     1
    488   1039     1
    489   1038     1
    490    492     1
    490   1065     1
    491   1064     1
    495   1039     1
    496   1065     1
    511    515     1
    511    517     1
    511    520     1
    512    516     1
    512    519     1
    512    521     1
    512   1092     1
    513    514     1
    513    519     1
    513    522     1
    513   1118     1
    514    518     1
    514   1091     1
    515   1090     1
    516    518     1
    516   1117     1
    517   1116     1
    521   1091     1
    522   1117     1
    537    541     1
    537    543     1
    537    546     1
    538    542     1
    538    545     1
    538    547     1
    538   1144     1
    539    540     1
    539    545     1
    539    548     1
    539   1170     1
    540    544     1
    540   1143     1
    541   1142     1
    542    544     1
    542   1169     1
    543   1168     1
    547   1143     1
    548   1169     1
    563    567     1
    563    569     1
    563    572     1
    564    568     1
    564    571     1
    564    573     1
    564   1196     1
    565    566     1
    565    571     1
    565    574     1
    565   1222     1
    566    570     1
    566   1195     1
    567   1194     1
    568    570     1
    568   1221     1
    569   1220     1
    573   1195     1
    574   1221     1
    589    593     1
    589    595     1
    589    598     1
    590    594     1
    590    597     1
    590    599     1
    590   1248     1
    591    592     1
    591    597     1
    591    600     1
    591   1274     1
    592    596     1
    592   1247     1
    593   1246     1
    594    596     1
    594   1273     1
    595   1272     1
    599   1247     1
    600   1273     1
    615    619     1
    615    621     1
    615    624     1
    616    620     1
    616    623     1
    616    625     1
    616   1300     1
    617    618     1
    617    623     1
    617    626     1
    617   1326     1
    618    622     1
    618   1299     1
    619   1298     1
    620    622     1
    620   1325     1
    621   1324     1
    625   1299     1
    626   1325     1
    641    645     1
    641    647     1
    641    650     1
    642    646     1
    642    649     1
    642    651     1
    642   1352     1
    643    644     1
    643    649     1
    643    652     1
    643   1378     1
    644    648     1
    644   1351     1
    645   1350     1
    646    648     1
    646   1377     1
    647   1376     1
    651   1351     1
    652   1377     1
    667    671     1
    667    673     1
    667    676     1
    668    672     1
    668    675     1
    668    677     1
    668   1404     1
    669    670     1
    669    675     1
    669    678     1
    669   1430     1
    670    674     1
    670   1403     1
    671   1402     1
    672    674     1
    672   1429     1
    673   1428     1
    677   1403     1
    678   1429     1
    693    697     1
    693    699     1
    693    702     1
    694    698     1
    694    701     1
    694    703     1
    694   1456     1
    695    696     1
    695    701     1
    695    704     1
    695   1482     1
    696    700     1
    696   1455     1
    697   1454     1
    698    700     1
    698   1481     1
    699   1480     1
    703   1455     1
    704   1481     1
    719    723     1
    719    725     1
    719    728     1
    720    724     1
    720    727     1
    720    729     1
    720   1508     1
    721    722     1
    721    727     1
    721    730     1
    721   1534     1
    722    726     1
    722   1507     1
    723   1506     1
    724    726     1
    724   1533     1
    725   1532     1
    729   1507     1
    730   1533     1
    745    749     1
    745    751     1
    745    754     1
    746    750     1
    746    753     1
    746    755     1
    746   1560     1
    747    748     1
    747    753     1
    747    756     1
    747   1586     1
    748    752     1
    748   1559     1
    749   1558     1
    750    752     1
    750   1585     1
    751   1584     1
    755   1559     1
    756   1585     1
    771    775     1
    771    777     1
    771    780     1
    772    776     1
    772    779     1
    772   1603     1
    772    781     1
    773    774     1
    773    779     1
    773    782     1
    773   1633     1
    774    778     1
    774   1605     1
    775   1607     1
    776    778     1
    776   1635     1
    777   1637     1
    781   1605     1
    782   1635     1
    797    801     1
    797    803     1
    797    806     1
    798    802     1
    798    805     1
    798   1663     1
    798    807     1
    799    800     1
    799    805     1
    799    808     1
    799   1693     1
    800    804     1
    800   1665     1
    801   1667     1
    802    804     1
    802   1695     1
    803   1697     1
    807   1665     1
    808   1695     1
    823    827     1
    823    829     1
    823    832     1
    824    828     1
    824    831     1
    824   1723     1
    824    833     1
    825    826     1
    825    831     1
    825    834     1
    825   1753     1
    826    830     1
    826   1725     1
    827   1727     1
    828    830     1
    828   1755     1
    829   1757     1
    833   1725     1
    834   1755     1
    849    853     1
    849    855     1
    849    858     1
    850    854     1
    850    857     1
    850   1783     1
    850    859     1
    851    852     1
    851    857     1
    851    860     1
    851   1813     1
    852    856     1
    852   1785     1
    853   1787     1
    854    856     1
    854   1815     1
    855   1817     1
    859   1785     1
    860   1815     1
    875    879     1
    875    881     1
    875    884     1
    876    880     1
    876    883     1
    876   1843     1
    876    885     1
    877    878     1
    877    883     1
    877    886     1
    877   1873     1
    878    882     1
    878   1845     1
    879   1847     1
    880    882     1
    880   1875     1
    881   1877     1
    885   1845     1
    886   1875     1
    901    905     1
    901    907     1
    901    910     1
    902    906     1
    902    909     1
    902   1903     1
    902    911     1
    903    904     1
    903    909     1
    903    912     1
    903   1933     1
    904    908     1
    904   1905     1
    905   1907     1
    906    908     1
    906   1935     1
    907   1937     1
    911   1905     1
    912   1935     1
    927    931     1
    927    933     1
    927    936     1
    928    932     1
    928    935     1
    928   1963     1
    928    937     1
    929    930     1
    929    935     1
    929    938     1
    929   1993     1
    930    934     1
    930   1965     1
    931   1967     1
    932    934     1
    932   1995     1
    933   1997     1
    937   1965     1
    938   1995     1
    953    957     1
    953    959     1
    953    962     1
    954    958     1
    954    961     1
    954   2023     1
    954    963     1
    955    956     1
    955    961     1
    955    964     1
    955   2053     1
    956    960     1
    956   2025     1
    957   2027     1
    958    960     1
    958   2055     1
    959   2057     1
    963   2025     1
    964   2055     1
    979    983     1
    979    985     1
    979    988     1
    980    984     1
    980    987     1
    980   2083     1
    980    989     1
    981    982     1
    981    987     1
    981    990     1
    981   2113     1
    982    986     1
    982   2085     1
    983   2087     1
    984    986     1
    984   2115     1
    985   2117     1
    989   2085     1
    990   2115     1
   1005   1009     1
   1005   1011     1
   1005   1014     1
   1006   1010     1
   1006   1013     1
   1006   2143     1
   1006   1015     1
   1007   1008     1
   1007   1013     1
   1007   1016     1
   1007   2173     1
   1008   1012     1
   1008   2145     1
   1009   2147     1
   1010   1012     1
   1010   2175     1
   1011   2177     1
   1015   2145     1
   1016   2175     1
   1031   1035     1
   1031   1037     1
   1031   1040     1
   1032   1036     1
   1032   1039     1
   1032   2203     1
   1032   1041     1
   1033   1034     1
   1033   1039     1
   1033   1042     1
   1033   2233     1
   1034   1038     1
   1034   2205     1
   1035   2207     1
   1036   1038     1
   1036   2235     1
   1037   2237     1
   1041   2205     1
   1042   2235     1
   1057   1061     1
   1057   1063     1
   1057   1066     1
   1058   1062     1
   1058   1065     1
   1058   2263     1
   1058   1067     1
   1059   1060     1
   1059   1065     1
   1059   1068     1
   1059   2293     1
   1060   1064     1
   1060   2265     1
   1061   2267     1
   1062   1064     1
   1062   2295     1
   1063   2297     1
   1067   2265     1
   1068   2295     1
   1083   1087     1
   1083   1089     1
   1083   1092     1
   1084   1088     1
   1084   1091     1
   1084   2323     1
   1084   1093     1
   1085   1086     1
   1085   1091     1
   1085   1094     1
   1085   2353     1
   1086   1090     1
   1086   2325     1
   1087   2327     1
   1088   1090     1
   1088   2355     1
   1089   2357     1
   1093   2325     1
   1094   2355     1
   1109   1113     1
   1109   1115     1
   1109   1118     1
   1110   1114     1
   1110   1117     1
   1110   2383     1
   1110   1119     1
   1111   1112     1
   1111   1117     1
   1111   1120     1
   1111   2413     1
   1112   1116     1
   1112   2385     1
   1113   2387     1
   1114   1116     1
   1114   2415     1
   1115   2417     1
   1119   2385     1
   1120   2415     1
   1135   1139     1
   1135   1141     1
   1135   1144     1
   1136   1140     1
   1136   1143     1
   1136   2443     1
   1136   1145     1
   1137   1138     1
   1137   1143     1
   1137   1146     1
   1137   2473     1
   1138   1142     1
   1138   2445     1
   1139   2447     1
   1140   1142     1
   1140   2475     1
   1141   2477     1
   1145   2445     1
   1146   2475     1
   1161   1165     1
   1161   1167     1
   1161   1170     1
   1162   1166     1
   1162   1169     1
   1162   2503     1
   1162   1171     1
   1163   1164     1
   1163   1169     1
   1163   1172     1
   1163   2533     1
   1164   1168     1
   1164   2505     1
   1165   2507     1
   1166   1168     1
   1166   2535     1
   1167   2537     1
   1171   2505     1
   1172   2535     1
   1187   1191     1
   1187   1193     1
   1187   1196     1
   1188   1192     1
   1188   1195     1
   1188   2563     1
   1188   1197     1
   1189   1190     1
   1189   1195     1
   1189   1198     1
   1189   2593     1
   1190   1194     1
   1190   2565     1
   1191   2567     1
   1192   1194     1
   1192   2595     1
   1193   2597     1
   1197   2565     1
   1198   2595     1
   1213   1217     1
   1213   1219     1
   1213   1222     1
   1214   1218     1
   1214   1221     1
   1214   2623     1
   1214   1223     1
   1215   1216     1
   1215   1221     1
   1215   1224     1
   1215   2653     1
   1216   1220     1
   1216   2625     1
   1217   2627     1
   1218   1220     1
   1218   2655     1
   1219   2657     1
   1223   2625     1
   1224   2655     1
   1239   1243     1
   1239   1245     1
   1239   1248     1
   1240   1244     1
   1240   1247     1
   1240   2683     1
   1240   1249     1
   1241   1242     1
   1241   1247     1
   1241   1250     1
   1241   2713     1
   1242   1246     1
   1242   2685     1
   1243   2687     1
   1244   1246     1
   1244   2715     1
   1245   2717     1
   1249   2685     1
   1250   2715     1
   1265   1269     1
   1265   1271     1
   1265   1274     1
   1266   1270     1
   1266   1273     1
   1266   2743     1
   1266   1275     1
   1267   1268     1
   1267   1273     1
   1267   1276     1
   1267   2773     1
   1268   1272     1
   1268   2745     1
   1269   2747     1
   1270   1272     1
   1270   2775     1
   1271   2777     1
   1275   2745     1
   1276   2775     1
   1291   1295     1
   1291   1297     1
   1291   1300     1
   1292   1296     1
   1292   1299     1
   1292   2803     1
   1292   1301     1
   1293   1294     1
   1293   1299     1
   1293   1302     1
   1293   2833     1
   1294   1298     1
   1294   2805     1
   1295   2807     1
   1296   1298     1
   1296   2835     1
   1297   2837     1
   1301   2805     1
   1302   2835     1
   1317   1321     1
   1317   1323     1
   1317   1326     1
   1318   1322     1
   1318   1325     1
   1318   2863     1
   1318   1327     1
   1319   1320     1
   1319   1325     1
   1319   1328     1
   1319   2893     1
   1320   1324     1
   1320   2865     1
   1321   2867     1
   1322   1324     1
   1322   2895     1
   1323   2897     1
   1327   2865     1
   1328   2895     1
   1343   1347     1
   1343   1349     1
   1343   1352     1
   1344   1348     1
   1344   1351     1
   1344   2923     1
   1344   1353     1
   1345   1346     1
   1345   1351     1
   1345   1354     1
   1345   2953     1
   1346   1350     1
   1346   2925     1
   1347   2927     1
   1348   1350     1
   1348   2955     1
   1349   2957     1
   1353   2925     1
   1354   2955     1
   1369   1373     1
   1369   1375     1
   1369   1378     1
   1370   1374     1
   1370   1377     1
   1370   2983     1
   1370   1379     1
   1371   1372     1
   1371   1377     1
   1371   1380     1
   1371   3013     1
   1372   1376     1
   1372   2985     1
   1373   2987     1
   1374   1376     1
   1374   3015     1
   1375   3017     1
   1379   2985     1
   1380   3015     1
   1395   1399     1
   1395   1401     1
   1395   1404     1
   1396   1400     1
   1396   1403     1
   1396   3043     1
   1396   1405     1
   1397   1398     1
   1397   1403     1
   1397   1406     1
   1397   3073     1
   1398   1402     1
   1398   3045     1
   1399   3047     1
   1400   1402     1
   1400   3075     1
   1401   3077     1
   1405   3045     1
   1406   3075     1
   1421   1425     1
   1421   1427     1
   1421   1430     1
   1422   1426     1
   1422   1429     1
   1422   3103     1
   1422   1431     1
   1423   1424     1
   1423   1429     1
   1423   1432     1
   1423   3133     1
   1424   1428     1
   1424   3105     1
   1425   3107     1
   1426   1428     1
   1426   3135     1
   1427   3137     1
   1431   3105     1
   1432   3135     1
   1447   1451     1
   1447   1453     1
   1447   1456     1
   1448   1452     1
   1448   1455     1
   1448   3163     1
   1448   1457     1
   1449   1450     1
   1449   1455     1
   1449   1458     1
   1449   3193     1
   1450   1454     1
   1450   3165     1
   1451   3167     1
   1452   1454     1
   1452   3195     1
   1453   3197     1
   1457   3165     1
   1458   3195     1
   1473   1477     1
   1473   1479     1
   1473   1482     1
   1474   1478     1
   1474   1481     1
   1474   3223     1
   1474   1483     1
   1475   1476     1
   1475   1481     1
   1475   1484     1
   1475   3253     1
   1476   1480     1
   1476   3225     1
   1477   3227     1
   1478   1480     1
   1478   3255     1
   1479   3257     1
   1483   3225     1
   1484   3255     1
   1499   1503     1
   1499   1505     1
   1499   1508     1
   1500   1504     1
   1500   1507     1
   1500   3283     1
   1500   1509     1
   1501   1502     1
   1501   1507     1
   1501   1510     1
   1501   3313     1
   1502   1506     1
   1502   3285     1
   1503   3287     1
   1504   1506     1
   1504   3315     1
   1505   3317     1
   1509   3285     1
   1510   3315     1
   1525   1529     1
   1525   1531     1
   1525   1534     1
   1526   1530     1
   1526   1533     1
   1526   3343     1
   1526   1535     1
   1527   1528     1
   1527   1533     1
   1527   1536     1
   1527   3373     1
   1528   1532     1
   1528   3345     1
   1529   3347     1
   1530   1532     1
   1530   3375     1
   1531   3377     1
   1535   3345     1
   1536   3375     1
   1551   1555     1
   1551   1557     1
   1551   1560     1
   1552   1556     1
   1552   1559     1
   1552   3403     1
   1552   1561     1
   1553   1554     1
   1553   1559     1
   1553   1562     1
   1553   3433     1
   1554   1558     1
   1554   3405     1
   1555   3407     1
   1556   1558     1
   1556   3435     1
   1557   3437     1
   1561   3405     1
   1562   3435     1
   1577   1581     1
   1577   1583     1
   1577   1586     1
   1578   1582     1
   1578   1585     1
   1578   3463     1
   1578   1587     1
   1579   1580     1
   1579   1585     1
   1579   3493     1
   1579   1588     1
   1580   1584     1
   1580   3465     1
   1581   3467     1
   1582   1584     1
   1582   3495     1
   1583   3497     1
   1587   3465     1
   1588   3495     1
   1603   1611     1
   1605   1612     1
   1605   1613     1
   1607   1624     1
   1607   1615     1
   1611   1627     1
   1611   1619     1
   1612   1615     1
   1612   1628     1
   1612   1629     1
   1613   1624     1
   1613   1620     1
   1613   1621     1
   1633   1641     1
   1635   1642     1
   1635   1643     1
   1637   1654     1
   1637   1645     1
   1641   1657     1
   1641   1649     1
   1642   1658     1
   1642   1659     1
   1642   1645     1
   1643   1650     1
   1643   1651     1
   1643   1654     1
   1663   1671     1
   1665   1672     1
   1665   1673     1
   1667   1684     1
   1667   1675     1
   1671   1687     1
   1671   1679     1
   1672   1675     1
   1672   1688     1
   1672   1689     1
   1673   1684     1
   1673   1680     1
   1673   1681     1
   1693   1701     1
   1695   1702     1
   1695   1703     1
   1697   1714     1
   1697   1705     1
   1701   1717     1
   1701   1709     1
   1702   1718     1
   1702   1719     1
   1702   1705     1
   1703   1710     1
   1703   1711     1
   1703   1714     1
   1723   1731     1
   1725   1732     1
   1725   1733     1
   1727   1744     1
   1727   1735     1
   1731   1747     1
   1731   1739     1
   1732   1735     1
   1732   1748     1
   1732   1749     1
   1733   1744     1
   1733   1740     1
   1733   1741     1
   1753   1761     1
   1755   1762     1
   1755   1763     1
   1757   1774     1
   1757   1765     1
   1761   1777     1
   1761   1769     1
   1762   1778     1
   1762   1779     1
   1762   1765     1
   1763   1770     1
   1763   1771     1
   1763   1774     1
   1783   1791     1
   1785   1792     1
   1785   1793     1
   1787   1804     1
   1787   1795     1
   1791   1807     1
   1791   1799     1
   1792   1795     1
   1792   1808     1
   1792   1809     1
   1793   1804     1
   1793   1800     1
   1793   1801     1
   1813   1821     1
   1815   1822     1
   1815   1823     1
   1817   1834     1
   1817   1825     1
   1821   1837     1
   1821   1829     1
   1822   1838     1
   1822   1839     1
   1822   1825     1
   1823   1830     1
   1823   1831     1
   1823   1834     1
   1843   1851     1
   1845   1852     1
   1845   1853     1
   1847   1864     1
   1847   1855     1
   1851   1867     1
   1851   1859     1
   1852   1855     1
   1852   1868     1
   1852   1869     1
   1853   1864     1
   1853   1860     1
   1853   1861     1
   1873   1881     1
   1875   1882     1
   1875   1883     1
   1877   1894     1
   1877   1885     1
   1881   1897     1
   1881   1889     1
   1882   1898     1
   1882   1899     1
   1882   1885     1
   1883   1890     1
   1883   1891     1
   1883   1894     1
   1903   1911     1
   1905   1912     1
   1905   1913     1
   1907   1924     1
   1907   1915     1
   1911   1927     1
   1911   1919     1
   1912   1915     1
   1912   1928     1
   1912   1929     1
   1913   1924     1
   1913   1920     1
   1913   1921     1
   1933   1941     1
   1935   1942     1
   1935   1943     1
   1937   1954     1
   1937   1945     1
   1941   1957     1
   1941   1949     1
   1942   1958     1
   1942   1959     1
   1942   1945     1
   1943   1950     1
   1943   1951     1
   1943   1954     1
   1963   1971     1
   1965   1972     1
   1965   1973     1
   1967   1984     1
   1967   1975     1
   1971   1987     1
   1971   1979     1
   1972   1975     1
   1972   1988     1
   1972   1989     1
   1973   1984     1
   1973   1980     1
   1973   1981     1
   1993   2001     1
   1995   2002     1
   1995   2003     1
   1997   2014     1
   1997   2005     1
   2001   2017     1
   2001   2009     1
   2002   2018     1
   2002   2019     1
   2002   2005     1
   2003   2010     1
   2003   2011     1
   2003   2014     1
   2023   2031     1
   2025   2032     1
   2025   2033     1
   2027   2044     1
   2027   2035     1
   2031   2047     1
   2031   2039     1
   2032   2035     1
   2032   2048     1
   2032   2049     1
   2033   2044     1
   2033   2040     1
   2033   2041     1
   2053   2061     1
   2055   2062     1
   2055   2063     1
   2057   2074     1
   2057   2065     1
   2061   2077     1
   2061   2069     1
   2062   2078     1
   2062   2079     1
   2062   2065     1
   2063   2070     1
   2063   2071     1
   2063   2074     1
   2083   2091     1
   2085   2092     1
   2085   2093     1
   2087   2104     1
   2087   2095     1
   2091   2107     1
   2091   2099     1
   2092   2095     1
   2092   2108     1
   2092   2109     1
   2093   2104     1
   2093   2100     1
   2093   2101     1
   2113   2121     1
   2115   2122     1
   2115   2123     1
   2117   2134     1
   2117   2125     1
   2121   2137     1
   2121   2129     1
   2122   2138     1
   2122   2139     1
   2122   2125     1
   2123   2130     1
   2123   2131     1
   2123   2134     1
   2143   2151     1
   2145   2152     1
   2145   2153     1
   2147   2164     1
   2147   2155     1
   2151   2167     1
   2151   2159     1
   2152   2155     1
   2152   2168     1
   2152   2169     1
   2153   2164     1
   2153   2160     1
   2153   2161     1
   2173   2181     1
   2175   2182     1
   2175   2183     1
   2177   2194     1
   2177   2185     1
   2181   2197     1
   2181   2189     1
   2182   2198     1
   2182   2199     1
   2182   2185     1
   2183   2190     1
   2183   2191     1
   2183   2194     1
   2203   2211     1
   2205   2212     1
   2205   2213     1
   2207   2224     1
   2207   2215     1
   2211   2227     1
   2211   2219     1
   2212   2215     1
   2212   2228     1
   2212   2229     1
   2213   2224     1
   2213   2220     1
   2213   2221     1
   2233   2241     1
   2235   2242     1
   2235   2243     1
   2237   2254     1
   2237   2245     1
   2241   2257     1
   2241   2249     1
   2242   2258     1
   2242   2259     1
   2242   2245     1
   2243   2250     1
   2243   2251     1
   2243   2254     1
   2263   2271     1
   2265   2272     1
   2265   2273     1
   2267   2284     1
   2267   2275     1
   2271   2287     1
   2271   2279     1
   2272   2275     1
   2272   2288     1
   2272   2289     1
   2273   2284     1
   2273   2280     1
   2273   2281     1
   2293   2301     1
   2295   2302     1
   2295   2303     1
   2297   2314     1
   2297   2305     1
   2301   2317     1
   2301   2309     1
   2302   2318     1
   2302   2319     1
   2302   2305     1
   2303   2310     1
   2303   2311     1
   2303   2314     1
   2323   2331     1
   2325   2332     1
   2325   2333     1
   2327   2344     1
   2327   2335     1
   2331   2347     1
   2331   2339     1
   2332   2335     1
   2332   2348     1
   2332   2349     1
   2333   2344     1
   2333   2340     1
   2333   2341     1
   2353   2361     1
   2355   2362     1
   2355   2363     1
   2357   2374     1
   2357   2365     1
   2361   2377     1
   2361   2369     1
   2362   2378     1
   2362   2379     1
   2362   2365     1
   2363   2370     1
   2363   2371     1
   2363   2374     1
   2383   2391     1
   2385   2392     1
   2385   2393     1
   2387   2404     1
   2387   2395     1
   2391   2407     1
   2391   2399     1
   2392   2395     1
   2392   2408     1
   2392   2409     1
   2393   2404     1
   2393   2400     1
   2393   2401     1
   2413   2421     1
   2415   2422     1
   2415   2423     1
   2417   2434     1
   2417   2425     1
   2421   2437     1
   2421   2429     1
   2422   2438     1
   2422   2439     1
   2422   2425     1
   2423   2430     1
   2423   2431     1
   2423   2434     1
   2443   2451     1
   2445   2452     1
   2445   2453     1
   2447   2464     1
   2447   2455     1
   2451   2467     1
   2451   2459     1
   2452   2455     1
   2452   2468     1
   2452   2469     1
   2453   2464     1
   2453   2460     1
   2453   2461     1
   2473   2481     1
   2475   2482     1
   2475   2483     1
   2477   2494     1
   2477   2485     1
   2481   2497     1
   2481   2489     1
   2482   2498     1
   2482   2499     1
   2482   2485     1
   2483   2490     1
   2483   2491     1
   2483   2494     1
   2503   2511     1
   2505   2512     1
   2505   2513     1
   2507   2524     1
   2507   2515     1
   2511   2527     1
   2511   2519     1
   2512   2515     1
   2512   2528     1
   2512   2529     1
   2513   2524     1
   2513   2520     1
   2513   2521     1
   2533   2541     1
   2535   2542     1
   2535   2543     1
   2537   2554     1
   2537   2545     1
   2541   2557     1
   2541   2549     1
   2542   2558     1
   2542   2559     1
   2542   2545     1
   2543   2550     1
   2543   2551     1
   2543   2554     1
   2563   2571     1
   2565   2572     1
   2565   2573     1
   2567   2584     1
   2567   2575     1
   2571   2587     1
   2571   2579     1
   2572   2575     1
   2572   2588     1
   2572   2589     1
   2573   2584     1
   2573   2580     1
   2573   2581     1
   2593   2601     1
   2595   2602     1
   2595   2603     1
   2597   2614     1
   2597   2605     1
   2601   2617     1
   2601   2609     1
   2602   2618     1
   2602   2619     1
   2602   2605     1
   2603   2610     1
   2603   2611     1
   2603   2614     1
   2623   2631     1
   2625   2632     1
   2625   2633     1
   2627   2644     1
   2627   2635     1
   2631   2647     1
   2631   2639     1
   2632   2635     1
   2632   2648     1
   2632   2649     1
   2633   2644     1
   2633   2640     1
   2633   2641     1
   2653   2661     1
   2655   2662     1
   2655   2663     1
   2657   2674     1
   2657   2665     1
   2661   2677     1
   2661   2669     1
   2662   2678     1
   2662   2679     1
   2662   2665     1
   2663   2670     1
   2663   2671     1
   2663   2674     1
   2683   2691     1
   2685   2692     1
   2685   2693     1
   2687   2704     1
   2687   2695     1
   2691   2707     1
   2691   2699     1
   2692   2695     1
   2692   2708     1
   2692   2709     1
   2693   2704     1
   2693   2700     1
   2693   2701     1
   2713   2721     1
   2715   2722     1
   2715   2723     1
   2717   2734     1
   2717   2725     1
   2721   2737     1
   2721   2729     1
   2722   2738     1
   2722   2739     1
   2722   2725     1
   2723   2730     1
   2723   2731     1
   2723   2734     1
   2743   2751     1
   2745   2752     1
   2745   2753     1
   2747   2764     1
   2747   2755     1
   2751   2767     1
   2751   2759     1
   2752   2755     1
   2752   2768     1
   2752   2769     1
   2753   2764     1
   2753   2760     1
   2753   2761     1
   2773   2781     1
   2775   2782     1
   2775   2783     1
   2777   2794     1
   2777   2785     1
   2781   2797     1
   2781   2789     1
   2782   2798     1
   2782   2799     1
   2782   2785     1
   2783   2790     1
   2783   2791     1
   2783   2794     1
   2803   2811     1
   2805   2812     1
   2805   2813     1
   2807   2824     1
   2807   2815     1
   2811   2827     1
   2811   2819     1
   2812   2815     1
   2812   2828     1
   2812   2829     1
   2813   2824     1
   2813   2820     1
   2813   2821     1
   2833   2841     1
   2835   2842     1
   2835   2843     1
   2837   2854     1
   2837   2845     1
   2841   2857     1
   2841   2849     1
   2842   2858     1
   2842   2859     1
   2842   2845     1
   2843   2850     1
   2843   2851     1
   2843   2854     1
   2863   2871     1
   2865   2872     1
   2865   2873     1
   2867   2884     1
   2867   2875     1
   2871   2887     1
   2871   2879     1
   2872   2875     1
   2872   2888     1
   2872   2889     1
   2873   2884     1
   2873   2880     1
   2873   2881     1
   2893   2901     1
   2895   2902     1
   2895   2903     1
   2897   2914     1
   2897   2905     1
   2901   2917     1
   2901   2909     1
   2902   2918     1
   2902   2919     1
   2902   2905     1
   2903   2910     1
   2903   2911     1
   2903   2914     1
   2923   2931     1
   2925   2932     1
   2925   2933     1
   2927   2944     1
   2927   2935     1
   2931   2947     1
   2931   2939     1
   2932   2935     1
   2932   2948     1
   2932   2949     1
   2933   2944     1
   2933   2940     1
   2933   2941     1
   2953   2961     1
   2955   2962     1
   2955   2963     1
   2957   2974     1
   2957   2965     1
   2961   2977     1
   2961   2969     1
   2962   2978     1
   2962   2979     1
   2962   2965     1
   2963   2970     1
   2963   2971     1
   2963   2974     1
   2983   2991     1
   2985   2992     1
   2985   2993     1
   2987   3004     1
   2987   2995     1
   2991   3007     1
   2991   2999     1
   2992   2995     1
   2992   3008     1
   2992   3009     1
   2993   3004     1
   2993   3000     1
   2993   3001     1
   3013   3021     1
   3015   3022     1
   3015   3023     1
   3017   3034     1
   3017   3025     1
   3021   3037     1
   3021   3029     1
   3022   3038     1
   3022   3039     1
   3022   3025     1
   3023   3030     1
   3023   3031     1
   3023   3034     1
   3043   3051     1
   3045   3052     1
   3045   3053     1
   3047   3064     1
   3047   3055     1
   3051   3067     1
   3051   3059     1
   3052   3055     1
   3052   3068     1
   3052   3069     1
   3053   3064     1
   3053   3060     1
   3053   3061     1
   3073   3081     1
   3075   3082     1
   3075   3083     1
   3077   3094     1
   3077   3085     1
   3081   3097     1
   3081   3089     1
   3082   3098     1
   3082   3099     1
   3082   3085     1
   3083   3090     1
   3083   3091     1
   3083   3094     1
   3103   3111     1
   3105   3112     1
   3105   3113     1
   3107   3124     1
   3107   3115     1
   3111   3127     1
   3111   3119     1
   3112   3115     1
   3112   3128     1
   3112   3129     1
   3113   3124     1
   3113   3120     1
   3113   3121     1
   3133   3141     1
   3135   3142     1
   3135   3143     1
   3137   3154     1
   3137   3145     1
   3141   3157     1
   3141   3149     1
   3142   3158     1
   3142   3159     1
   3142   3145     1
   3143   3150     1
   3143   3151     1
   3143   3154     1
   3163   3171     1
   3165   3172     1
   3165   3173     1
   3167   3184     1
   3167   3175     1
   3171   3187     1
   3171   3179     1
   3172   3175     1
   3172   3188     1
   3172   3189     1
   3173   3184     1
   3173   3180     1
   3173   3181     1
   3193   3201     1
   3195   3202     1
   3195   3203     1
   3197   3214     1
   3197   3205     1
   3201   3217     1
   3201   3209     1
   3202   3218     1
   3202   3219     1
   3202   3205     1
   3203   3210     1
   3203   3211     1
   3203   3214     1
   3223   3231     1
   3225   3232     1
   3225   3233     1
   3227   3244     1
   3227   3235     1
   3231   3247     1
   3231   3239     1
   3232   3235     1
   3232   3248     1
   3232   3249     1
   3233   3244     1
   3233   3240     1
   3233   3241     1
   3253   3261     1
   3255   3262     1
   3255   3263     1
   3257   3274     1
   3257   3265     1
   3261   3277     1
   3261   3269     1
   3262   3278     1
   3262   3279     1
   3262   3265     1
   3263   3270     1
   3263   3271     1
   3263   3274     1
   3283   3291     1
   3285   3292     1
   3285   3293     1
   3287   3304     1
   3287   3295     1
   3291   3307     1
   3291   3299     1
   3292   3295     1
   3292   3308     1
   3292   3309     1
   3293   3304     1
   3293   3300     1
   3293   3301     1
   3313   3321     1
   3315   3322     1
   3315   3323     1
   3317   3334     1
   3317   3325     1
   3321   3337     1
   3321   3329     1
   3322   3338     1
   3322   3339     1
   3322   3325     1
   3323   3330     1
   3323   3331     1
   3323   3334     1
   3343   3351     1
   3345   3352     1
   3345   3353     1
   3347   3364     1
   3347   3355     1
   3351   3367     1
   3351   3359     1
   3352   3355     1
   3352   3368     1
   3352   3369     1
   3353   3364     1
   3353   3360     1
   3353   3361     1
   3373   3381     1
   3375   3382     1
   3375   3383     1
   3377   3394     1
   3377   3385     1
   3381   3397     1
   3381   3389     1
   3382   3398     1
   3382   3399     1
   3382   3385     1
   3383   3390     1
   3383   3391     1
   3383   3394     1
   3403   3411     1
   3405   3412     1
   3405   3413     1
   3407   3424     1
   3407   3415     1
   3411   3427     1
   3411   3419     1
   3412   3415     1
   3412   3428     1
   3412   3429     1
   3413   3424     1
   3413   3420     1
   3413   3421     1
   3433   3441     1
   3435   3442     1
   3435   3443     1
   3437   3454     1
   3437   3445     1
   3441   3457     1
   3441   3449     1
   3442   3458     1
   3442   3459     1
   3442   3445     1
   3443   3450     1
   3443   3451     1
   3443   3454     1
   3463   3471     1
   3465   3472     1
   3465   3473     1
   3467   3484     1
   3467   3475     1
   3471   3487     1
   3471   3479     1
   3472   3475     1
   3472   3488     1
   3472   3489     1
   3473   3484     1
   3473   3480     1
   3473   3481     1
   3493   3501     1
   3495   3502     1
   3495   3503     1
   3497   3514     1
   3497   3505     1
   3501   3517     1
   3501   3509     1
   3502   3518     1
   3502   3519     1
   3502   3505     1
   3503   3510     1
   3503   3511     1
   3503   3514     1
      1     23     1
      1     24     1
      1     37     1
      1     38     1
      1     39     1
      1     40     1
      2     29     1
      2     30     1
      2     31     1
      2     32     1
      2     42     1
     41      3     1
      3     25     1
      3     26     1
      3     27     1
      3     28     1
      4     21     1
      4     22     1
      4     35     1
      4     36     1
      4     33     1
      4     34     1
      5     23     1
      5     24     1
      5     27     1
      5     28     1
      6     23     1
      6     24     1
      6     25     1
      6     26     1
      7     21     1
      7     22     1
      7     31     1
      7     32     1
      8     21     1
      8     22     1
      8     29     1
      8     30     1
      9     42     1
      9     67     1
     10     27     1
     10     28     1
     10     65     1
     10     66     1
     11     42     1
     11     93     1
     12     25     1
     12     26     1
     12     91     1
     12     92     1
     41     13     1
     13    119     1
     14     29     1
     14     30     1
     14    117     1
     14    118     1
     41     15     1
     15    145     1
     16     31     1
     16     32     1
     16    143     1
     16    144     1
     17     35     1
     17     36     1
     17     93     1
     18     33     1
     18     34     1
     18     67     1
     19     39     1
     19     40     1
     19    145     1
     20     37     1
     20     38     1
     20    119     1
     41     21     1
     21     23     1
     21     24     1
     41     22     1
     22     23     1
     22     24     1
     23     42     1
     24     42     1
     25     42     1
     25     35     1
     25     36     1
     26     42     1
     26     35     1
     26     36     1
     27     42     1
     27     33     1
     27     34     1
     28     42     1
     28     33     1
     28     34     1
     41     29     1
     29     37     1
     29     38     1
     41     30     1
     30     37     1
     30     38     1
     41     31     1
     31     39     1
     31     40     1
     41     32     1
     32     39     1
     32     40     1
     33     52     1
     34     52     1
     35     78     1
     36     78     1
     37    104     1
     38    104     1
     39    130     1
     40    130     1
     43     59     1
     43     60     1
     43     61     1
     43     62     1
     43     65     1
     43     66     1
     44     57     1
     44     58     1
     44     63     1
     44     64     1
     45     55     1
     45     56     1
     45     63     1
     45     64     1
     46     68     1
     46    171     1
     47     55     1
     47     56     1
     47    169     1
     47    170     1
     48     68     1
     48    197     1
     49     57     1
     49     58     1
     49    195     1
     49    196     1
     50     55     1
     50     56     1
     50     57     1
     50     58     1
     50     67     1
     51     68     1
     52     63     1
     52     64     1
     53     59     1
     53     60     1
     53    171     1
     54     61     1
     54     62     1
     54    197     1
     55     68     1
     55     59     1
     55     60     1
     56     68     1
     56     59     1
     56     60     1
     57     68     1
     57     61     1
     57     62     1
     58     68     1
     58     61     1
     58     62     1
     59    156     1
     60    156     1
     61    182     1
     62    182     1
     63     68     1
     63     65     1
     63     66     1
     64     68     1
     64     65     1
     64     66     1
     65     67     1
     66     67     1
     69     85     1
     69     86     1
     69     87     1
     69     88     1
     69     91     1
     69     92     1
     70     83     1
     70     84     1
     70     89     1
     70     90     1
     71     81     1
     71     82     1
     71     89     1
     71     90     1
     72     94     1
     72    223     1
     73     81     1
     73     82     1
     73    221     1
     73    222     1
     74     94     1
     74    249     1
     75     83     1
     75     84     1
     75    247     1
     75    248     1
     76     81     1
     76     82     1
     76     83     1
     76     84     1
     76     93     1
     77     94     1
     78     89     1
     78     90     1
     79     85     1
     79     86     1
     79    223     1
     80     87     1
     80     88     1
     80    249     1
     81     94     1
     81     85     1
     81     86     1
     82     94     1
     82     85     1
     82     86     1
     83     94     1
     83     87     1
     83     88     1
     84     94     1
     84     87     1
     84     88     1
     85    208     1
     86    208     1
     87    234     1
     88    234     1
     89     94     1
     89     91     1
     89     92     1
     90     94     1
     90     91     1
     90     92     1
     91     93     1
     92     93     1
     95    111     1
     95    112     1
     95    113     1
     95    114     1
     95    117     1
     95    118     1
     96    109     1
     96    110     1
     96    115     1
     96    116     1
     97    107     1
     97    108     1
     97    115     1
     97    116     1
     98    120     1
     98    275     1
     99    107     1
     99    108     1
     99    273     1
     99    274     1
    100    120     1
    100    301     1
    101    109     1
    101    110     1
    101    299     1
    101    300     1
    102    107     1
    102    108     1
    102    109     1
    102    110     1
    102    119     1
    103    120     1
    104    115     1
    104    116     1
    105    111     1
    105    112     1
    105    275     1
    106    113     1
    106    114     1
    106    301     1
    107    120     1
    107    111     1
    107    112     1
    108    120     1
    108    111     1
    108    112     1
    109    120     1
    109    113     1
    109    114     1
    110    120     1
    110    113     1
    110    114     1
    111    260     1
    112    260     1
    113    286     1
    114    286     1
    115    120     1
    115    117     1
    115    118     1
    116    120     1
    116    117     1
    116    118     1
    117    119     1
    118    119     1
    121    137     1
    121    138     1
    121    139     1
    121    140     1
    121    143     1
    121    144     1
    122    135     1
    122    136     1
    122    141     1
    122    142     1
    123    133     1
    123    134     1
    123    141     1
    123    142     1
    124    146     1
    124    327     1
    125    133     1
    125    134     1
    125    325     1
    125    326     1
    126    146     1
    126    353     1
    127    135     1
    127    136     1
    127    351     1
    127    352     1
    128    133     1
    128    134     1
    128    135     1
    128    136     1
    128    145     1
    129    146     1
    130    141     1
    130    142     1
    131    137     1
    131    138     1
    131    327     1
    132    139     1
    132    140     1
    132    353     1
    133    146     1
    133    137     1
    133    138     1
    134    146     1
    134    137     1
    134    138     1
    135    146     1
    135    139     1
    135    140     1
    136    146     1
    136    139     1
    136    140     1
    137    312     1
    138    312     1
    139    338     1
    140    338     1
    141    146     1
    141    143     1
    141    144     1
    142    146     1
    142    143     1
    142    144     1
    143    145     1
    144    145     1
    147    163     1
    147    164     1
    147    165     1
    147    166     1
    147    169     1
    147    170     1
    148    161     1
    148    162     1
    148    167     1
    148    168     1
    149    159     1
    149    160     1
    149    167     1
    149    168     1
    150    172     1
    150    379     1
    151    159     1
    151    160     1
    151    377     1
    151    378     1
    152    172     1
    152    405     1
    153    161     1
    153    162     1
    153    403     1
    153    404     1
    154    159     1
    154    160     1
    154    161     1
    154    162     1
    154    171     1
    155    172     1
    156    167     1
    156    168     1
    157    163     1
    157    164     1
    157    379     1
    158    165     1
    158    166     1
    158    405     1
    159    172     1
    159    163     1
    159    164     1
    160    172     1
    160    163     1
    160    164     1
    161    172     1
    161    165     1
    161    166     1
    162    172     1
    162    165     1
    162    166     1
    163    364     1
    164    364     1
    165    390     1
    166    390     1
    167    172     1
    167    169     1
    167    170     1
    168    172     1
    168    169     1
    168    170     1
    169    171     1
    170    171     1
    173    189     1
    173    190     1
    173    191     1
    173    192     1
    173    195     1
    173    196     1
    174    187     1
    174    188     1
    174    193     1
    174    194     1
    175    185     1
    175    186     1
    175    193     1
    175    194     1
    176    198     1
    176    431     1
    177    185     1
    177    186     1
    177    429     1
    177    430     1
    178    198     1
    178    457     1
    179    187     1
    179    188     1
    179    455     1
    179    456     1
    180    185     1
    180    186     1
    180    187     1
    180    188     1
    180    197     1
    181    198     1
    182    193     1
    182    194     1
    183    189     1
    183    190     1
    183    431     1
    184    191     1
    184    192     1
    184    457     1
    185    198     1
    185    189     1
    185    190     1
    186    198     1
    186    189     1
    186    190     1
    187    198     1
    187    191     1
    187    192     1
    188    198     1
    188    191     1
    188    192     1
    189    416     1
    190    416     1
    191    442     1
    192    442     1
    193    198     1
    193    195     1
    193    196     1
    194    198     1
    194    195     1
    194    196     1
    195    197     1
    196    197     1
    199    215     1
    199    216     1
    199    217     1
    199    218     1
    199    221     1
    199    222     1
    200    213     1
    200    214     1
    200    219     1
    200    220     1
    201    211     1
    201    212     1
    201    219     1
    201    220     1
    202    224     1
    202    483     1
    203    211     1
    203    212     1
    203    481     1
    203    482     1
    204    224     1
    204    509     1
    205    213     1
    205    214     1
    205    507     1
    205    508     1
    206    211     1
    206    212     1
    206    213     1
    206    214     1
    206    223     1
    207    224     1
    208    219     1
    208    220     1
    209    215     1
    209    216     1
    209    483     1
    210    217     1
    210    218     1
    210    509     1
    211    224     1
    211    215     1
    211    216     1
    212    224     1
    212    215     1
    212    216     1
    213    224     1
    213    217     1
    213    218     1
    214    224     1
    214    217     1
    214    218     1
    215    468     1
    216    468     1
    217    494     1
    218    494     1
    219    224     1
    219    221     1
    219    222     1
    220    224     1
    220    221     1
    220    222     1
    221    223     1
    222    223     1
    225    241     1
    225    242     1
    225    243     1
    225    244     1
    225    247     1
    225    248     1
    226    239     1
    226    240     1
    226    245     1
    226    246     1
    227    237     1
    227    238     1
    227    245     1
    227    246     1
    228    250     1
    228    535     1
    229    237     1
    229    238     1
    229    533     1
    229    534     1
    230    250     1
    230    561     1
    231    239     1
    231    240     1
    231    559     1
    231    560     1
    232    237     1
    232    238     1
    232    239     1
    232    240     1
    232    249     1
    233    250     1
    234    245     1
    234    246     1
    235    241     1
    235    242     1
    235    535     1
    236    243     1
    236    244     1
    236    561     1
    237    250     1
    237    241     1
    237    242     1
    238    250     1
    238    241     1
    238    242     1
    239    250     1
    239    243     1
    239    244     1
    240    250     1
    240    243     1
    240    244     1
    241    520     1
    242    520     1
    243    546     1
    244    546     1
    245    250     1
    245    247     1
    245    248     1
    246    250     1
    246    247     1
    246    248     1
    247    249     1
    248    249     1
    251    267     1
    251    268     1
    251    269     1
    251    270     1
    251    273     1
    251    274     1
    252    265     1
    252    266     1
    252    271     1
    252    272     1
    253    263     1
    253    264     1
    253    271     1
    253    272     1
    254    276     1
    254    587     1
    255    263     1
    255    264     1
    255    585     1
    255    586     1
    256    276     1
    256    613     1
    257    265     1
    257    266     1
    257    611     1
    257    612     1
    258    263     1
    258    264     1
    258    265     1
    258    266     1
    258    275     1
    259    276     1
    260    271     1
    260    272     1
    261    267     1
    261    268     1
    261    587     1
    262    269     1
    262    270     1
    262    613     1
    263    276     1
    263    267     1
    263    268     1
    264    276     1
    264    267     1
    264    268     1
    265    276     1
    265    269     1
    265    270     1
    266    276     1
    266    269     1
    266    270     1
    267    572     1
    268    572     1
    269    598     1
    270    598     1
    271    276     1
    271    273     1
    271    274     1
    272    276     1
    272    273     1
    272    274     1
    273    275     1
    274    275     1
    277    293     1
    277    294     1
    277    295     1
    277    296     1
    277    299     1
    277    300     1
    278    291     1
    278    292     1
    278    297     1
    278    298     1
    279    289     1
    279    290     1
    279    297     1
    279    298     1
    280    302     1
    280    639     1
    281    289     1
    281    290     1
    281    637     1
    281    638     1
    282    302     1
    282    665     1
    283    291     1
    283    292     1
    283    663     1
    283    664     1
    284    289     1
    284    290     1
    284    291     1
    284    292     1
    284    301     1
    285    302     1
    286    297     1
    286    298     1
    287    293     1
    287    294     1
    287    639     1
    288    295     1
    288    296     1
    288    665     1
    289    302     1
    289    293     1
    289    294     1
    290    302     1
    290    293     1
    290    294     1
    291    302     1
    291    295     1
    291    296     1
    292    302     1
    292    295     1
    292    296     1
    293    624     1
    294    624     1
    295    650     1
    296    650     1
    297    302     1
    297    299     1
    297    300     1
    298    302     1
    298    299     1
    298    300     1
    299    301     1
    300    301     1
    303    319     1
    303    320     1
    303    321     1
    303    322     1
    303    325     1
    303    326     1
    304    317     1
    304    318     1
    304    323     1
    304    324     1
    305    315     1
    305    316     1
    305    323     1
    305    324     1
    306    328     1
    306    691     1
    307    315     1
    307    316     1
    307    689     1
    307    690     1
    308    328     1
    308    717     1
    309    317     1
    309    318     1
    309    715     1
    309    716     1
    310    315     1
    310    316     1
    310    317     1
    310    318     1
    310    327     1
    311    328     1
    312    323     1
    312    324     1
    313    319     1
    313    320     1
    313    691     1
    314    321     1
    314    322     1
    314    717     1
    315    328     1
    315    319     1
    315    320     1
    316    328     1
    316    319     1
    316    320     1
    317    328     1
    317    321     1
    317    322     1
    318    328     1
    318    321     1
    318    322     1
    319    676     1
    320    676     1
    321    702     1
    322    702     1
    323    328     1
    323    325     1
    323    326     1
    324    328     1
    324    325     1
    324    326     1
    325    327     1
    326    327     1
    329    345     1
    329    346     1
    329    347     1
    329    348     1
    329    351     1
    329    352     1
    330    343     1
    330    344     1
    330    349     1
    330    350     1
    331    341     1
    331    342     1
    331    349     1
    331    350     1
    332    354     1
    332    743     1
    333    341     1
    333    342     1
    333    741     1
    333    742     1
    334    354     1
    334    769     1
    335    343     1
    335    344     1
    335    767     1
    335    768     1
    336    341     1
    336    342     1
    336    343     1
    336    344     1
    336    353     1
    337    354     1
    338    349     1
    338    350     1
    339    345     1
    339    346     1
    339    743     1
    340    347     1
    340    348     1
    340    769     1
    341    354     1
    341    345     1
    341    346     1
    342    354     1
    342    345     1
    342    346     1
    343    354     1
    343    347     1
    343    348     1
    344    354     1
    344    347     1
    344    348     1
    345    728     1
    346    728     1
    347    754     1
    348    754     1
    349    354     1
    349    351     1
    349    352     1
    350    354     1
    350    351     1
    350    352     1
    351    353     1
    352    353     1
    355    371     1
    355    372     1
    355    373     1
    355    374     1
    355    377     1
    355    378     1
    356    369     1
    356    370     1
    356    375     1
    356    376     1
    357    367     1
    357    368     1
    357    375     1
    357    376     1
    358    380     1
    358    795     1
    359    367     1
    359    368     1
    359    793     1
    359    794     1
    360    380     1
    360    821     1
    361    369     1
    361    370     1
    361    819     1
    361    820     1
    362    367     1
    362    368     1
    362    369     1
    362    370     1
    362    379     1
    363    380     1
    364    375     1
    364    376     1
    365    371     1
    365    372     1
    365    795     1
    366    373     1
    366    374     1
    366    821     1
    367    380     1
    367    371     1
    367    372     1
    368    380     1
    368    371     1
    368    372     1
    369    380     1
    369    373     1
    369    374     1
    370    380     1
    370    373     1
    370    374     1
    371    780     1
    372    780     1
    373    806     1
    374    806     1
    375    380     1
    375    377     1
    375    378     1
    376    380     1
    376    377     1
    376    378     1
    377    379     1
    378    379     1
    381    397     1
    381    398     1
    381    399     1
    381    400     1
    381    403     1
    381    404     1
    382    395     1
    382    396     1
    382    401     1
    382    402     1
    383    393     1
    383    394     1
    383    401     1
    383    402     1
    384    406     1
    384    847     1
    385    393     1
    385    394     1
    385    845     1
    385    846     1
    386    406     1
    386    873     1
    387    395     1
    387    396     1
    387    871     1
    387    872     1
    388    393     1
    388    394     1
    388    395     1
    388    396     1
    388    405     1
    389    406     1
    390    401     1
    390    402     1
    391    397     1
    391    398     1
    391    847     1
    392    399     1
    392    400     1
    392    873     1
    393    406     1
    393    397     1
    393    398     1
    394    406     1
    394    397     1
    394    398     1
    395    406     1
    395    399     1
    395    400     1
    396    406     1
    396    399     1
    396    400     1
    397    832     1
    398    832     1
    399    858     1
    400    858     1
    401    406     1
    401    403     1
    401    404     1
    402    406     1
    402    403     1
    402    404     1
    403    405     1
    404    405     1
    407    423     1
    407    424     1
    407    425     1
    407    426     1
    407    429     1
    407    430     1
    408    421     1
    408    422     1
    408    427     1
    408    428     1
    409    419     1
    409    420     1
    409    427     1
    409    428     1
    410    432     1
    410    899     1
    411    419     1
    411    420     1
    411    897     1
    411    898     1
    412    432     1
    412    925     1
    413    421     1
    413    422     1
    413    923     1
    413    924     1
    414    419     1
    414    420     1
    414    421     1
    414    422     1
    414    431     1
    415    432     1
    416    427     1
    416    428     1
    417    423     1
    417    424     1
    417    899     1
    418    425     1
    418    426     1
    418    925     1
    419    432     1
    419    423     1
    419    424     1
    420    432     1
    420    423     1
    420    424     1
    421    432     1
    421    425     1
    421    426     1
    422    432     1
    422    425     1
    422    426     1
    423    884     1
    424    884     1
    425    910     1
    426    910     1
    427    432     1
    427    429     1
    427    430     1
    428    432     1
    428    429     1
    428    430     1
    429    431     1
    430    431     1
    433    449     1
    433    450     1
    433    451     1
    433    452     1
    433    455     1
    433    456     1
    434    447     1
    434    448     1
    434    453     1
    434    454     1
    435    445     1
    435    446     1
    435    453     1
    435    454     1
    436    458     1
    436    951     1
    437    445     1
    437    446     1
    437    949     1
    437    950     1
    438    458     1
    438    977     1
    439    447     1
    439    448     1
    439    975     1
    439    976     1
    440    445     1
    440    446     1
    440    447     1
    440    448     1
    440    457     1
    441    458     1
    442    453     1
    442    454     1
    443    449     1
    443    450     1
    443    951     1
    444    451     1
    444    452     1
    444    977     1
    445    458     1
    445    449     1
    445    450     1
    446    458     1
    446    449     1
    446    450     1
    447    458     1
    447    451     1
    447    452     1
    448    458     1
    448    451     1
    448    452     1
    449    936     1
    450    936     1
    451    962     1
    452    962     1
    453    458     1
    453    455     1
    453    456     1
    454    458     1
    454    455     1
    454    456     1
    455    457     1
    456    457     1
    459    475     1
    459    476     1
    459    477     1
    459    478     1
    459    481     1
    459    482     1
    460    473     1
    460    474     1
    460    479     1
    460    480     1
    461    471     1
    461    472     1
    461    479     1
    461    480     1
    462    484     1
    462   1003     1
    463    471     1
    463    472     1
    463   1001     1
    463   1002     1
    464    484     1
    464   1029     1
    465    473     1
    465    474     1
    465   1027     1
    465   1028     1
    466    471     1
    466    472     1
    466    473     1
    466    474     1
    466    483     1
    467    484     1
    468    479     1
    468    480     1
    469    475     1
    469    476     1
    469   1003     1
    470    477     1
    470    478     1
    470   1029     1
    471    484     1
    471    475     1
    471    476     1
    472    484     1
    472    475     1
    472    476     1
    473    484     1
    473    477     1
    473    478     1
    474    484     1
    474    477     1
    474    478     1
    475    988     1
    476    988     1
    477   1014     1
    478   1014     1
    479    484     1
    479    481     1
    479    482     1
    480    484     1
    480    481     1
    480    482     1
    481    483     1
    482    483     1
    485    501     1
    485    502     1
    485    503     1
    485    504     1
    485    507     1
    485    508     1
    486    499     1
    486    500     1
    486    505     1
    486    506     1
    487    497     1
    487    498     1
    487    505     1
    487    506     1
    488    510     1
    488   1055     1
    489    497     1
    489    498     1
    489   1053     1
    489   1054     1
    490    510     1
    490   1081     1
    491    499     1
    491    500     1
    491   1079     1
    491   1080     1
    492    497     1
    492    498     1
    492    499     1
    492    500     1
    492    509     1
    493    510     1
    494    505     1
    494    506     1
    495    501     1
    495    502     1
    495   1055     1
    496    503     1
    496    504     1
    496   1081     1
    497    510     1
    497    501     1
    497    502     1
    498    510     1
    498    501     1
    498    502     1
    499    510     1
    499    503     1
    499    504     1
    500    510     1
    500    503     1
    500    504     1
    501   1040     1
    502   1040     1
    503   1066     1
    504   1066     1
    505    510     1
    505    507     1
    505    508     1
    506    510     1
    506    507     1
    506    508     1
    507    509     1
    508    509     1
    511    527     1
    511    528     1
    511    529     1
    511    530     1
    511    533     1
    511    534     1
    512    525     1
    512    526     1
    512    531     1
    512    532     1
    513    523     1
    513    524     1
    513    531     1
    513    532     1
    514    536     1
    514   1107     1
    515    523     1
    515    524     1
    515   1105     1
    515   1106     1
    516    536     1
    516   1133     1
    517    525     1
    517    526     1
    517   1131     1
    517   1132     1
    518    523     1
    518    524     1
    518    525     1
    518    526     1
    518    535     1
    519    536     1
    520    531     1
    520    532     1
    521    527     1
    521    528     1
    521   1107     1
    522    529     1
    522    530     1
    522   1133     1
    523    536     1
    523    527     1
    523    528     1
    524    536     1
    524    527     1
    524    528     1
    525    536     1
    525    529     1
    525    530     1
    526    536     1
    526    529     1
    526    530     1
    527   1092     1
    528   1092     1
    529   1118     1
    530   1118     1
    531    536     1
    531    533     1
    531    534     1
    532    536     1
    532    533     1
    532    534     1
    533    535     1
    534    535     1
    537    553     1
    537    554     1
    537    555     1
    537    556     1
    537    559     1
    537    560     1
    538    551     1
    538    552     1
    538    557     1
    538    558     1
    539    549     1
    539    550     1
    539    557     1
    539    558     1
    540    562     1
    540   1159     1
    541    549     1
    541    550     1
    541   1157     1
    541   1158     1
    542    562     1
    542   1185     1
    543    551     1
    543    552     1
    543   1183     1
    543   1184     1
    544    549     1
    544    550     1
    544    551     1
    544    552     1
    544    561     1
    545    562     1
    546    557     1
    546    558     1
    547    553     1
    547    554     1
    547   1159     1
    548    555     1
    548    556     1
    548   1185     1
    549    562     1
    549    553     1
    549    554     1
    550    562     1
    550    553     1
    550    554     1
    551    562     1
    551    555     1
    551    556     1
    552    562     1
    552    555     1
    552    556     1
    553   1144     1
    554   1144     1
    555   1170     1
    556   1170     1
    557    562     1
    557    559     1
    557    560     1
    558    562     1
    558    559     1
    558    560     1
    559    561     1
    560    561     1
    563    579     1
    563    580     1
    563    581     1
    563    582     1
    563    585     1
    563    586     1
    564    577     1
    564    578     1
    564    583     1
    564    584     1
    565    575     1
    565    576     1
    565    583     1
    565    584     1
    566    588     1
    566   1211     1
    567    575     1
    567    576     1
    567   1209     1
    567   1210     1
    568    588     1
    568   1237     1
    569    577     1
    569    578     1
    569   1235     1
    569   1236     1
    570    575     1
    570    576     1
    570    577     1
    570    578     1
    570    587     1
    571    588     1
    572    583     1
    572    584     1
    573    579     1
    573    580     1
    573   1211     1
    574    581     1
    574    582     1
    574   1237     1
    575    588     1
    575    579     1
    575    580     1
    576    588     1
    576    579     1
    576    580     1
    577    588     1
    577    581     1
    577    582     1
    578    588     1
    578    581     1
    578    582     1
    579   1196     1
    580   1196     1
    581   1222     1
    582   1222     1
    583    588     1
    583    585     1
    583    586     1
    584    588     1
    584    585     1
    584    586     1
    585    587     1
    586    587     1
    589    605     1
    589    606     1
    589    607     1
    589    608     1
    589    611     1
    589    612     1
    590    603     1
    590    604     1
    590    609     1
    590    610     1
    591    601     1
    591    602     1
    591    609     1
    591    610     1
    592    614     1
    592   1263     1
    593    601     1
    593    602     1
    593   1261     1
    593   1262     1
    594    614     1
    594   1289     1
    595    603     1
    595    604     1
    595   1287     1
    595   1288     1
    596    601     1
    596    602     1
    596    603     1
    596    604     1
    596    613     1
    597    614     1
    598    609     1
    598    610     1
    599    605     1
    599    606     1
    599   1263     1
    600    607     1
    600    608     1
    600   1289     1
    601    614     1
    601    605     1
    601    606     1
    602    614     1
    602    605     1
    602    606     1
    603    614     1
    603    607     1
    603    608     1
    604    614     1
    604    607     1
    604    608     1
    605   1248     1
    606   1248     1
    607   1274     1
    608   1274     1
    609    614     1
    609    611     1
    609    612     1
    610    614     1
    610    611     1
    610    612     1
    611    613     1
    612    613     1
    615    631     1
    615    632     1
    615    633     1
    615    634     1
    615    637     1
    615    638     1
    616    629     1
    616    630     1
    616    635     1
    616    636     1
    617    627     1
    617    628     1
    617    635     1
    617    636     1
    618    640     1
    618   1315     1
    619    627     1
    619    628     1
    619   1313     1
    619   1314     1
    620    640     1
    620   1341     1
    621    629     1
    621    630     1
    621   1339     1
    621   1340     1
    622    627     1
    622    628     1
    622    629     1
    622    630     1
    622    639     1
    623    640     1
    624    635     1
    624    636     1
    625    631     1
    625    632     1
    625   1315     1
    626    633     1
    626    634     1
    626   1341     1
    627    640     1
    627    631     1
    627    632     1
    628    640     1
    628    631     1
    628    632     1
    629    640     1
    629    633     1
    629    634     1
    630    640     1
    630    633     1
    630    634     1
    631   1300     1
    632   1300     1
    633   1326     1
    634   1326     1
    635    640     1
    635    637     1
    635    638     1
    636    640     1
    636    637     1
    636    638     1
    637    639     1
    638    639     1
    641    657     1
    641    658     1
    641    659     1
    641    660     1
    641    663     1
    641    664     1
    642    655     1
    642    656     1
    642    661     1
    642    662     1
    643    653     1
    643    654     1
    643    661     1
    643    662     1
    644    666     1
    644   1367     1
    645    653     1
    645    654     1
    645   1365     1
    645   1366     1
    646    666     1
    646   1393     1
    647    655     1
    647    656     1
    647   1391     1
    647   1392     1
    648    653     1
    648    654     1
    648    655     1
    648    656     1
    648    665     1
    649    666     1
    650    661     1
    650    662     1
    651    657     1
    651    658     1
    651   1367     1
    652    659     1
    652    660     1
    652   1393     1
    653    666     1
    653    657     1
    653    658     1
    654    666     1
    654    657     1
    654    658     1
    655    666     1
    655    659     1
    655    660     1
    656    666     1
    656    659     1
    656    660     1
    657   1352     1
    658   1352     1
    659   1378     1
    660   1378     1
    661    666     1
    661    663     1
    661    664     1
    662    666     1
    662    663     1
    662    664     1
    663    665     1
    664    665     1
    667    683     1
    667    684     1
    667    685     1
    667    686     1
    667    689     1
    667    690     1
    668    681     1
    668    682     1
    668    687     1
    668    688     1
    669    679     1
    669    680     1
    669    687     1
    669    688     1
    670    692     1
    670   1419     1
    671    679     1
    671    680     1
    671   1417     1
    671   1418     1
    672    692     1
    672   1445     1
    673    681     1
    673    682     1
    673   1443     1
    673   1444     1
    674    679     1
    674    680     1
    674    681     1
    674    682     1
    674    691     1
    675    692     1
    676    687     1
    676    688     1
    677    683     1
    677    684     1
    677   1419     1
    678    685     1
    678    686     1
    678   1445     1
    679    692     1
    679    683     1
    679    684     1
    680    692     1
    680    683     1
    680    684     1
    681    692     1
    681    685     1
    681    686     1
    682    692     1
    682    685     1
    682    686     1
    683   1404     1
    684   1404     1
    685   1430     1
    686   1430     1
    687    692     1
    687    689     1
    687    690     1
    688    692     1
    688    689     1
    688    690     1
    689    691     1
    690    691     1
    693    709     1
    693    710     1
    693    711     1
    693    712     1
    693    715     1
    693    716     1
    694    707     1
    694    708     1
    694    713     1
    694    714     1
    695    705     1
    695    706     1
    695    713     1
    695    714     1
    696    718     1
    696   1471     1
    697    705     1
    697    706     1
    697   1469     1
    697   1470     1
    698    718     1
    698   1497     1
    699    707     1
    699    708     1
    699   1495     1
    699   1496     1
    700    705     1
    700    706     1
    700    707     1
    700    708     1
    700    717     1
    701    718     1
    702    713     1
    702    714     1
    703    709     1
    703    710     1
    703   1471     1
    704    711     1
    704    712     1
    704   1497     1
    705    718     1
    705    709     1
    705    710     1
    706    718     1
    706    709     1
    706    710     1
    707    718     1
    707    711     1
    707    712     1
    708    718     1
    708    711     1
    708    712     1
    709   1456     1
    710   1456     1
    711   1482     1
    712   1482     1
    713    718     1
    713    715     1
    713    716     1
    714    718     1
    714    715     1
    714    716     1
    715    717     1
    716    717     1
    719    735     1
    719    736     1
    719    737     1
    719    738     1
    719    741     1
    719    742     1
    720    733     1
    720    734     1
    720    739     1
    720    740     1
    721    731     1
    721    732     1
    721    739     1
    721    740     1
    722    744     1
    722   1523     1
    723    731     1
    723    732     1
    723   1521     1
    723   1522     1
    724    744     1
    724   1549     1
    725    733     1
    725    734     1
    725   1547     1
    725   1548     1
    726    731     1
    726    732     1
    726    733     1
    726    734     1
    726    743     1
    727    744     1
    728    739     1
    728    740     1
    729    735     1
    729    736     1
    729   1523     1
    730    737     1
    730    738     1
    730   1549     1
    731    744     1
    731    735     1
    731    736     1
    732    744     1
    732    735     1
    732    736     1
    733    744     1
    733    737     1
    733    738     1
    734    744     1
    734    737     1
    734    738     1
    735   1508     1
    736   1508     1
    737   1534     1
    738   1534     1
    739    744     1
    739    741     1
    739    742     1
    740    744     1
    740    741     1
    740    742     1
    741    743     1
    742    743     1
    745    761     1
    745    762     1
    745    763     1
    745    764     1
    745    767     1
    745    768     1
    746    759     1
    746    760     1
    746    765     1
    746    766     1
    747    757     1
    747    758     1
    747    765     1
    747    766     1
    748    770     1
    748   1575     1
    749    757     1
    749    758     1
    749   1573     1
    749   1574     1
    750    770     1
    750   1601     1
    751    759     1
    751    760     1
    751   1599     1
    751   1600     1
    752    757     1
    752    758     1
    752    759     1
    752    760     1
    752    769     1
    753    770     1
    754    765     1
    754    766     1
    755    761     1
    755    762     1
    755   1575     1
    756    763     1
    756    764     1
    756   1601     1
    757    770     1
    757    761     1
    757    762     1
    758    770     1
    758    761     1
    758    762     1
    759    770     1
    759    763     1
    759    764     1
    760    770     1
    760    763     1
    760    764     1
    761   1560     1
    762   1560     1
    763   1586     1
    764   1586     1
    765    770     1
    765    767     1
    765    768     1
    766    770     1
    766    767     1
    766    768     1
    767    769     1
    768    769     1
    771    787     1
    771    788     1
    771    789     1
    771    790     1
    771    793     1
    771    794     1
    772    785     1
    772    786     1
    772    791     1
    772    792     1
    773    783     1
    773    784     1
    773    791     1
    773    792     1
    774    796     1
    774   1604     1
    775    783     1
    775    784     1
    775   1606     1
    775   1608     1
    776    796     1
    776   1634     1
    777    785     1
    777    786     1
    777   1636     1
    777   1638     1
    778    783     1
    778    784     1
    778    785     1
    778    786     1
    778    795     1
    779    796     1
    780    791     1
    780    792     1
    781    787     1
    781    788     1
    781   1604     1
    782    789     1
    782    790     1
    782   1634     1
    783    796     1
    783    787     1
    783    788     1
    784    796     1
    784    787     1
    784    788     1
    785    796     1
    785    789     1
    785    790     1
    786    796     1
    786    789     1
    786    790     1
    787   1603     1
    788   1603     1
    789   1633     1
    790   1633     1
    791    796     1
    791    793     1
    791    794     1
    792    796     1
    792    793     1
    792    794     1
    793    795     1
    794    795     1
    797    813     1
    797    814     1
    797    815     1
    797    816     1
    797    819     1
    797    820     1
    798    811     1
    798    812     1
    798    817     1
    798    818     1
    799    809     1
    799    810     1
    799    817     1
    799    818     1
    800    822     1
    800   1664     1
    801    809     1
    801    810     1
    801   1666     1
    801   1668     1
    802    822     1
    802   1694     1
    803    811     1
    803    812     1
    803   1696     1
    803   1698     1
    804    809     1
    804    810     1
    804    811     1
    804    812     1
    804    821     1
    805    822     1
    806    817     1
    806    818     1
    807    813     1
    807    814     1
    807   1664     1
    808    815     1
    808    816     1
    808   1694     1
    809    822     1
    809    813     1
    809    814     1
    810    822     1
    810    813     1
    810    814     1
    811    822     1
    811    815     1
    811    816     1
    812    822     1
    812    815     1
    812    816     1
    813   1663     1
    814   1663     1
    815   1693     1
    816   1693     1
    817    822     1
    817    819     1
    817    820     1
    818    822     1
    818    819     1
    818    820     1
    819    821     1
    820    821     1
    823    839     1
    823    840     1
    823    841     1
    823    842     1
    823    845     1
    823    846     1
    824    837     1
    824    838     1
    824    843     1
    824    844     1
    825    835     1
    825    836     1
    825    843     1
    825    844     1
    826    848     1
    826   1724     1
    827    835     1
    827    836     1
    827   1726     1
    827   1728     1
    828    848     1
    828   1754     1
    829    837     1
    829    838     1
    829   1756     1
    829   1758     1
    830    835     1
    830    836     1
    830    837     1
    830    838     1
    830    847     1
    831    848     1
    832    843     1
    832    844     1
    833    839     1
    833    840     1
    833   1724     1
    834    841     1
    834    842     1
    834   1754     1
    835    848     1
    835    839     1
    835    840     1
    836    848     1
    836    839     1
    836    840     1
    837    848     1
    837    841     1
    837    842     1
    838    848     1
    838    841     1
    838    842     1
    839   1723     1
    840   1723     1
    841   1753     1
    842   1753     1
    843    848     1
    843    845     1
    843    846     1
    844    848     1
    844    845     1
    844    846     1
    845    847     1
    846    847     1
    849    865     1
    849    866     1
    849    867     1
    849    868     1
    849    871     1
    849    872     1
    850    863     1
    850    864     1
    850    869     1
    850    870     1
    851    861     1
    851    862     1
    851    869     1
    851    870     1
    852    874     1
    852   1784     1
    853    861     1
    853    862     1
    853   1786     1
    853   1788     1
    854    874     1
    854   1814     1
    855    863     1
    855    864     1
    855   1816     1
    855   1818     1
    856    861     1
    856    862     1
    856    863     1
    856    864     1
    856    873     1
    857    874     1
    858    869     1
    858    870     1
    859    865     1
    859    866     1
    859   1784     1
    860    867     1
    860    868     1
    860   1814     1
    861    874     1
    861    865     1
    861    866     1
    862    874     1
    862    865     1
    862    866     1
    863    874     1
    863    867     1
    863    868     1
    864    874     1
    864    867     1
    864    868     1
    865   1783     1
    866   1783     1
    867   1813     1
    868   1813     1
    869    874     1
    869    871     1
    869    872     1
    870    874     1
    870    871     1
    870    872     1
    871    873     1
    872    873     1
    875    891     1
    875    892     1
    875    893     1
    875    894     1
    875    897     1
    875    898     1
    876    889     1
    876    890     1
    876    895     1
    876    896     1
    877    887     1
    877    888     1
    877    895     1
    877    896     1
    878    900     1
    878   1844     1
    879    887     1
    879    888     1
    879   1846     1
    879   1848     1
    880    900     1
    880   1874     1
    881    889     1
    881    890     1
    881   1876     1
    881   1878     1
    882    887     1
    882    888     1
    882    889     1
    882    890     1
    882    899     1
    883    900     1
    884    895     1
    884    896     1
    885    891     1
    885    892     1
    885   1844     1
    886    893     1
    886    894     1
    886   1874     1
    887    900     1
    887    891     1
    887    892     1
    888    900     1
    888    891     1
    888    892     1
    889    900     1
    889    893     1
    889    894     1
    890    900     1
    890    893     1
    890    894     1
    891   1843     1
    892   1843     1
    893   1873     1
    894   1873     1
    895    900     1
    895    897     1
    895    898     1
    896    900     1
    896    897     1
    896    898     1
    897    899     1
    898    899     1
    901    917     1
    901    918     1
    901    919     1
    901    920     1
    901    923     1
    901    924     1
    902    915     1
    902    916     1
    902    921     1
    902    922     1
    903    913     1
    903    914     1
    903    921     1
    903    922     1
    904    926     1
    904   1904     1
    905    913     1
    905    914     1
    905   1906     1
    905   1908     1
    906    926     1
    906   1934     1
    907    915     1
    907    916     1
    907   1936     1
    907   1938     1
    908    913     1
    908    914     1
    908    915     1
    908    916     1
    908    925     1
    909    926     1
    910    921     1
    910    922     1
    911    917     1
    911    918     1
    911   1904     1
    912    919     1
    912    920     1
    912   1934     1
    913    926     1
    913    917     1
    913    918     1
    914    926     1
    914    917     1
    914    918     1
    915    926     1
    915    919     1
    915    920     1
    916    926     1
    916    919     1
    916    920     1
    917   1903     1
    918   1903     1
    919   1933     1
    920   1933     1
    921    926     1
    921    923     1
    921    924     1
    922    926     1
    922    923     1
    922    924     1
    923    925     1
    924    925     1
    927    943     1
    927    944     1
    927    945     1
    927    946     1
    927    949     1
    927    950     1
    928    941     1
    928    942     1
    928    947     1
    928    948     1
    929    939     1
    929    940     1
    929    947     1
    929    948     1
    930    952     1
    930   1964     1
    931    939     1
    931    940     1
    931   1966     1
    931   1968     1
    932    952     1
    932   1994     1
    933    941     1
    933    942     1
    933   1996     1
    933   1998     1
    934    939     1
    934    940     1
    934    941     1
    934    942     1
    934    951     1
    935    952     1
    936    947     1
    936    948     1
    937    943     1
    937    944     1
    937   1964     1
    938    945     1
    938    946     1
    938   1994     1
    939    952     1
    939    943     1
    939    944     1
    940    952     1
    940    943     1
    940    944     1
    941    952     1
    941    945     1
    941    946     1
    942    952     1
    942    945     1
    942    946     1
    943   1963     1
    944   1963     1
    945   1993     1
    946   1993     1
    947    952     1
    947    949     1
    947    950     1
    948    952     1
    948    949     1
    948    950     1
    949    951     1
    950    951     1
    953    969     1
    953    970     1
    953    971     1
    953    972     1
    953    975     1
    953    976     1
    954    967     1
    954    968     1
    954    973     1
    954    974     1
    955    965     1
    955    966     1
    955    973     1
    955    974     1
    956    978     1
    956   2024     1
    957    965     1
    957    966     1
    957   2026     1
    957   2028     1
    958    978     1
    958   2054     1
    959    967     1
    959    968     1
    959   2056     1
    959   2058     1
    960    965     1
    960    966     1
    960    967     1
    960    968     1
    960    977     1
    961    978     1
    962    973     1
    962    974     1
    963    969     1
    963    970     1
    963   2024     1
    964    971     1
    964    972     1
    964   2054     1
    965    978     1
    965    969     1
    965    970     1
    966    978     1
    966    969     1
    966    970     1
    967    978     1
    967    971     1
    967    972     1
    968    978     1
    968    971     1
    968    972     1
    969   2023     1
    970   2023     1
    971   2053     1
    972   2053     1
    973    978     1
    973    975     1
    973    976     1
    974    978     1
    974    975     1
    974    976     1
    975    977     1
    976    977     1
    979    995     1
    979    996     1
    979    997     1
    979    998     1
    979   1001     1
    979   1002     1
    980    993     1
    980    994     1
    980    999     1
    980   1000     1
    981    991     1
    981    992     1
    981    999     1
    981   1000     1
    982   1004     1
    982   2084     1
    983    991     1
    983    992     1
    983   2086     1
    983   2088     1
    984   1004     1
    984   2114     1
    985    993     1
    985    994     1
    985   2116     1
    985   2118     1
    986    991     1
    986    992     1
    986    993     1
    986    994     1
    986   1003     1
    987   1004     1
    988    999     1
    988   1000     1
    989    995     1
    989    996     1
    989   2084     1
    990    997     1
    990    998     1
    990   2114     1
    991   1004     1
    991    995     1
    991    996     1
    992   1004     1
    992    995     1
    992    996     1
    993   1004     1
    993    997     1
    993    998     1
    994   1004     1
    994    997     1
    994    998     1
    995   2083     1
    996   2083     1
    997   2113     1
    998   2113     1
    999   1004     1
    999   1001     1
    999   1002     1
   1000   1004     1
   1000   1001     1
   1000   1002     1
   1001   1003     1
   1002   1003     1
   1005   1021     1
   1005   1022     1
   1005   1023     1
   1005   1024     1
   1005   1027     1
   1005   1028     1
   1006   1019     1
   1006   1020     1
   1006   1025     1
   1006   1026     1
   1007   1017     1
   1007   1018     1
   1007   1025     1
   1007   1026     1
   1008   1030     1
   1008   2144     1
   1009   1017     1
   1009   1018     1
   1009   2146     1
   1009   2148     1
   1010   1030     1
   1010   2174     1
   1011   1019     1
   1011   1020     1
   1011   2176     1
   1011   2178     1
   1012   1017     1
   1012   1018     1
   1012   1019     1
   1012   1020     1
   1012   1029     1
   1013   1030     1
   1014   1025     1
   1014   1026     1
   1015   1021     1
   1015   1022     1
   1015   2144     1
   1016   1023     1
   1016   1024     1
   1016   2174     1
   1017   1030     1
   1017   1021     1
   1017   1022     1
   1018   1030     1
   1018   1021     1
   1018   1022     1
   1019   1030     1
   1019   1023     1
   1019   1024     1
   1020   1030     1
   1020   1023     1
   1020   1024     1
   1021   2143     1
   1022   2143     1
   1023   2173     1
   1024   2173     1
   1025   1030     1
   1025   1027     1
   1025   1028     1
   1026   1030     1
   1026   1027     1
   1026   1028     1
   1027   1029     1
   1028   1029     1
   1031   1047     1
   1031   1048     1
   1031   1049     1
   1031   1050     1
   1031   1053     1
   1031   1054     1
   1032   1045     1
   1032   1046     1
   1032   1051     1
   1032   1052     1
   1033   1043     1
   1033   1044     1
   1033   1051     1
   1033   1052     1
   1034   1056     1
   1034   2204     1
   1035   1043     1
   1035   1044     1
   1035   2206     1
   1035   2208     1
   1036   1056     1
   1036   2234     1
   1037   1045     1
   1037   1046     1
   1037   2236     1
   1037   2238     1
   1038   1043     1
   1038   1044     1
   1038   1045     1
   1038   1046     1
   1038   1055     1
   1039   1056     1
   1040   1051     1
   1040   1052     1
   1041   1047     1
   1041   1048     1
   1041   2204     1
   1042   1049     1
   1042   1050     1
   1042   2234     1
   1043   1056     1
   1043   1047     1
   1043   1048     1
   1044   1056     1
   1044   1047     1
   1044   1048     1
   1045   1056     1
   1045   1049     1
   1045   1050     1
   1046   1056     1
   1046   1049     1
   1046   1050     1
   1047   2203     1
   1048   2203     1
   1049   2233     1
   1050   2233     1
   1051   1056     1
   1051   1053     1
   1051   1054     1
   1052   1056     1
   1052   1053     1
   1052   1054     1
   1053   1055     1
   1054   1055     1
   1057   1073     1
   1057   1074     1
   1057   1075     1
   1057   1076     1
   1057   1079     1
   1057   1080     1
   1058   1071     1
   1058   1072     1
   1058   1077     1
   1058   1078     1
   1059   1069     1
   1059   1070     1
   1059   1077     1
   1059   1078     1
   1060   1082     1
   1060   2264     1
   1061   1069     1
   1061   1070     1
   1061   2266     1
   1061   2268     1
   1062   1082     1
   1062   2294     1
   1063   1071     1
   1063   1072     1
   1063   2296     1
   1063   2298     1
   1064   1069     1
   1064   1070     1
   1064   1071     1
   1064   1072     1
   1064   1081     1
   1065   1082     1
   1066   1077     1
   1066   1078     1
   1067   1073     1
   1067   1074     1
   1067   2264     1
   1068   1075     1
   1068   1076     1
   1068   2294     1
   1069   1082     1
   1069   1073     1
   1069   1074     1
   1070   1082     1
   1070   1073     1
   1070   1074     1
   1071   1082     1
   1071   1075     1
   1071   1076     1
   1072   1082     1
   1072   1075     1
   1072   1076     1
   1073   2263     1
   1074   2263     1
   1075   2293     1
   1076   2293     1
   1077   1082     1
   1077   1079     1
   1077   1080     1
   1078   1082     1
   1078   1079     1
   1078   1080     1
   1079   1081     1
   1080   1081     1
   1083   1099     1
   1083   1100     1
   1083   1101     1
   1083   1102     1
   1083   1105     1
   1083   1106     1
   1084   1097     1
   1084   1098     1
   1084   1103     1
   1084   1104     1
   1085   1095     1
   1085   1096     1
   1085   1103     1
   1085   1104     1
   1086   1108     1
   1086   2324     1
   1087   1095     1
   1087   1096     1
   1087   2326     1
   1087   2328     1
   1088   1108     1
   1088   2354     1
   1089   1097     1
   1089   1098     1
   1089   2356     1
   1089   2358     1
   1090   1095     1
   1090   1096     1
   1090   1097     1
   1090   1098     1
   1090   1107     1
   1091   1108     1
   1092   1103     1
   1092   1104     1
   1093   1099     1
   1093   1100     1
   1093   2324     1
   1094   1101     1
   1094   1102     1
   1094   2354     1
   1095   1108     1
   1095   1099     1
   1095   1100     1
   1096   1108     1
   1096   1099     1
   1096   1100     1
   1097   1108     1
   1097   1101     1
   1097   1102     1
   1098   1108     1
   1098   1101     1
   1098   1102     1
   1099   2323     1
   1100   2323     1
   1101   2353     1
   1102   2353     1
   1103   1108     1
   1103   1105     1
   1103   1106     1
   1104   1108     1
   1104   1105     1
   1104   1106     1
   1105   1107     1
   1106   1107     1
   1109   1125     1
   1109   1126     1
   1109   1127     1
   1109   1128     1
   1109   1131     1
   1109   1132     1
   1110   1123     1
   1110   1124     1
   1110   1129     1
   1110   1130     1
   1111   1121     1
   1111   1122     1
   1111   1129     1
   1111   1130     1
   1112   1134     1
   1112   2384     1
   1113   1121     1
   1113   1122     1
   1113   2386     1
   1113   2388     1
   1114   1134     1
   1114   2414     1
   1115   1123     1
   1115   1124     1
   1115   2416     1
   1115   2418     1
   1116   1121     1
   1116   1122     1
   1116   1123     1
   1116   1124     1
   1116   1133     1
   1117   1134     1
   1118   1129     1
   1118   1130     1
   1119   1125     1
   1119   1126     1
   1119   2384     1
   1120   1127     1
   1120   1128     1
   1120   2414     1
   1121   1134     1
   1121   1125     1
   1121   1126     1
   1122   1134     1
   1122   1125     1
   1122   1126     1
   1123   1134     1
   1123   1127     1
   1123   1128     1
   1124   1134     1
   1124   1127     1
   1124   1128     1
   1125   2383     1
   1126   2383     1
   1127   2413     1
   1128   2413     1
   1129   1134     1
   1129   1131     1
   1129   1132     1
   1130   1134     1
   1130   1131     1
   1130   1132     1
   1131   1133     1
   1132   1133     1
   1135   1151     1
   1135   1152     1
   1135   1153     1
   1135   1154     1
   1135   1157     1
   1135   1158     1
   1136   1149     1
   1136   1150     1
   1136   1155     1
   1136   1156     1
   1137   1147     1
   1137   1148     1
   1137   1155     1
   1137   1156     1
   1138   1160     1
   1138   2444     1
   1139   1147     1
   1139   1148     1
   1139   2446     1
   1139   2448     1
   1140   1160     1
   1140   2474     1
   1141   1149     1
   1141   1150     1
   1141   2476     1
   1141   2478     1
   1142   1147     1
   1142   1148     1
   1142   1149     1
   1142   1150     1
   1142   1159     1
   1143   1160     1
   1144   1155     1
   1144   1156     1
   1145   1151     1
   1145   1152     1
   1145   2444     1
   1146   1153     1
   1146   1154     1
   1146   2474     1
   1147   1160     1
   1147   1151     1
   1147   1152     1
   1148   1160     1
   1148   1151     1
   1148   1152     1
   1149   1160     1
   1149   1153     1
   1149   1154     1
   1150   1160     1
   1150   1153     1
   1150   1154     1
   1151   2443     1
   1152   2443     1
   1153   2473     1
   1154   2473     1
   1155   1160     1
   1155   1157     1
   1155   1158     1
   1156   1160     1
   1156   1157     1
   1156   1158     1
   1157   1159     1
   1158   1159     1
   1161   1177     1
   1161   1178     1
   1161   1179     1
   1161   1180     1
   1161   1183     1
   1161   1184     1
   1162   1175     1
   1162   1176     1
   1162   1181     1
   1162   1182     1
   1163   1173     1
   1163   1174     1
   1163   1181     1
   1163   1182     1
   1164   1186     1
   1164   2504     1
   1165   1173     1
   1165   1174     1
   1165   2506     1
   1165   2508     1
   1166   1186     1
   1166   2534     1
   1167   1175     1
   1167   1176     1
   1167   2536     1
   1167   2538     1
   1168   1173     1
   1168   1174     1
   1168   1175     1
   1168   1176     1
   1168   1185     1
   1169   1186     1
   1170   1181     1
   1170   1182     1
   1171   1177     1
   1171   1178     1
   1171   2504     1
   1172   1179     1
   1172   1180     1
   1172   2534     1
   1173   1186     1
   1173   1177     1
   1173   1178     1
   1174   1186     1
   1174   1177     1
   1174   1178     1
   1175   1186     1
   1175   1179     1
   1175   1180     1
   1176   1186     1
   1176   1179     1
   1176   1180     1
   1177   2503     1
   1178   2503     1
   1179   2533     1
   1180   2533     1
   1181   1186     1
   1181   1183     1
   1181   1184     1
   1182   1186     1
   1182   1183     1
   1182   1184     1
   1183   1185     1
   1184   1185     1
   1187   1203     1
   1187   1204     1
   1187   1205     1
   1187   1206     1
   1187   1209     1
   1187   1210     1
   1188   1201     1
   1188   1202     1
   1188   1207     1
   1188   1208     1
   1189   1199     1
   1189   1200     1
   1189   1207     1
   1189   1208     1
   1190   1212     1
   1190   2564     1
   1191   1199     1
   1191   1200     1
   1191   2566     1
   1191   2568     1
   1192   1212     1
   1192   2594     1
   1193   1201     1
   1193   1202     1
   1193   2596     1
   1193   2598     1
   1194   1199     1
   1194   1200     1
   1194   1201     1
   1194   1202     1
   1194   1211     1
   1195   1212     1
   1196   1207     1
   1196   1208     1
   1197   1203     1
   1197   1204     1
   1197   2564     1
   1198   1205     1
   1198   1206     1
   1198   2594     1
   1199   1212     1
   1199   1203     1
   1199   1204     1
   1200   1212     1
   1200   1203     1
   1200   1204     1
   1201   1212     1
   1201   1205     1
   1201   1206     1
   1202   1212     1
   1202   1205     1
   1202   1206     1
   1203   2563     1
   1204   2563     1
   1205   2593     1
   1206   2593     1
   1207   1212     1
   1207   1209     1
   1207   1210     1
   1208   1212     1
   1208   1209     1
   1208   1210     1
   1209   1211     1
   1210   1211     1
   1213   1229     1
   1213   1230     1
   1213   1231     1
   1213   1232     1
   1213   1235     1
   1213   1236     1
   1214   1227     1
   1214   1228     1
   1214   1233     1
   1214   1234     1
   1215   1225     1
   1215   1226     1
   1215   1233     1
   1215   1234     1
   1216   1238     1
   1216   2624     1
   1217   1225     1
   1217   1226     1
   1217   2626     1
   1217   2628     1
   1218   1238     1
   1218   2654     1
   1219   1227     1
   1219   1228     1
   1219   2656     1
   1219   2658     1
   1220   1225     1
   1220   1226     1
   1220   1227     1
   1220   1228     1
   1220   1237     1
   1221   1238     1
   1222   1233     1
   1222   1234     1
   1223   1229     1
   1223   1230     1
   1223   2624     1
   1224   1231     1
   1224   1232     1
   1224   2654     1
   1225   1238     1
   1225   1229     1
   1225   1230     1
   1226   1238     1
   1226   1229     1
   1226   1230     1
   1227   1238     1
   1227   1231     1
   1227   1232     1
   1228   1238     1
   1228   1231     1
   1228   1232     1
   1229   2623     1
   1230   2623     1
   1231   2653     1
   1232   2653     1
   1233   1238     1
   1233   1235     1
   1233   1236     1
   1234   1238     1
   1234   1235     1
   1234   1236     1
   1235   1237     1
   1236   1237     1
   1239   1255     1
   1239   1256     1
   1239   1257     1
   1239   1258     1
   1239   1261     1
   1239   1262     1
   1240   1253     1
   1240   1254     1
   1240   1259     1
   1240   1260     1
   1241   1251     1
   1241   1252     1
   1241   1259     1
   1241   1260     1
   1242   1264     1
   1242   2684     1
   1243   1251     1
   1243   1252     1
   1243   2686     1
   1243   2688     1
   1244   1264     1
   1244   2714     1
   1245   1253     1
   1245   1254     1
   1245   2716     1
   1245   2718     1
   1246   1251     1
   1246   1252     1
   1246   1253     1
   1246   1254     1
   1246   1263     1
   1247   1264     1
   1248   1259     1
   1248   1260     1
   1249   1255     1
   1249   1256     1
   1249   2684     1
   1250   1257     1
   1250   1258     1
   1250   2714     1
   1251   1264     1
   1251   1255     1
   1251   1256     1
   1252   1264     1
   1252   1255     1
   1252   1256     1
   1253   1264     1
   1253   1257     1
   1253   1258     1
   1254   1264     1
   1254   1257     1
   1254   1258     1
   1255   2683     1
   1256   2683     1
   1257   2713     1
   1258   2713     1
   1259   1264     1
   1259   1261     1
   1259   1262     1
   1260   1264     1
   1260   1261     1
   1260   1262     1
   1261   1263     1
   1262   1263     1
   1265   1281     1
   1265   1282     1
   1265   1283     1
   1265   1284     1
   1265   1287     1
   1265   1288     1
   1266   1279     1
   1266   1280     1
   1266   1285     1
   1266   1286     1
   1267   1277     1
   1267   1278     1
   1267   1285     1
   1267   1286     1
   1268   1290     1
   1268   2744     1
   1269   1277     1
   1269   1278     1
   1269   2746     1
   1269   2748     1
   1270   1290     1
   1270   2774     1
   1271   1279     1
   1271   1280     1
   1271   2776     1
   1271   2778     1
   1272   1277     1
   1272   1278     1
   1272   1279     1
   1272   1280     1
   1272   1289     1
   1273   1290     1
   1274   1285     1
   1274   1286     1
   1275   1281     1
   1275   1282     1
   1275   2744     1
   1276   1283     1
   1276   1284     1
   1276   2774     1
   1277   1290     1
   1277   1281     1
   1277   1282     1
   1278   1290     1
   1278   1281     1
   1278   1282     1
   1279   1290     1
   1279   1283     1
   1279   1284     1
   1280   1290     1
   1280   1283     1
   1280   1284     1
   1281   2743     1
   1282   2743     1
   1283   2773     1
   1284   2773     1
   1285   1290     1
   1285   1287     1
   1285   1288     1
   1286   1290     1
   1286   1287     1
   1286   1288     1
   1287   1289     1
   1288   1289     1
   1291   1307     1
   1291   1308     1
   1291   1309     1
   1291   1310     1
   1291   1313     1
   1291   1314     1
   1292   1305     1
   1292   1306     1
   1292   1311     1
   1292   1312     1
   1293   1303     1
   1293   1304     1
   1293   1311     1
   1293   1312     1
   1294   1316     1
   1294   2804     1
   1295   1303     1
   1295   1304     1
   1295   2806     1
   1295   2808     1
   1296   1316     1
   1296   2834     1
   1297   1305     1
   1297   1306     1
   1297   2836     1
   1297   2838     1
   1298   1303     1
   1298   1304     1
   1298   1305     1
   1298   1306     1
   1298   1315     1
   1299   1316     1
   1300   1311     1
   1300   1312     1
   1301   1307     1
   1301   1308     1
   1301   2804     1
   1302   1309     1
   1302   1310     1
   1302   2834     1
   1303   1316     1
   1303   1307     1
   1303   1308     1
   1304   1316     1
   1304   1307     1
   1304   1308     1
   1305   1316     1
   1305   1309     1
   1305   1310     1
   1306   1316     1
   1306   1309     1
   1306   1310     1
   1307   2803     1
   1308   2803     1
   1309   2833     1
   1310   2833     1
   1311   1316     1
   1311   1313     1
   1311   1314     1
   1312   1316     1
   1312   1313     1
   1312   1314     1
   1313   1315     1
   1314   1315     1
   1317   1333     1
   1317   1334     1
   1317   1335     1
   1317   1336     1
   1317   1339     1
   1317   1340     1
   1318   1331     1
   1318   1332     1
   1318   1337     1
   1318   1338     1
   1319   1329     1
   1319   1330     1
   1319   1337     1
   1319   1338     1
   1320   1342     1
   1320   2864     1
   1321   1329     1
   1321   1330     1
   1321   2866     1
   1321   2868     1
   1322   1342     1
   1322   2894     1
   1323   1331     1
   1323   1332     1
   1323   2896     1
   1323   2898     1
   1324   1329     1
   1324   1330     1
   1324   1331     1
   1324   1332     1
   1324   1341     1
   1325   1342     1
   1326   1337     1
   1326   1338     1
   1327   1333     1
   1327   1334     1
   1327   2864     1
   1328   1335     1
   1328   1336     1
   1328   2894     1
   1329   1342     1
   1329   1333     1
   1329   1334     1
   1330   1342     1
   1330   1333     1
   1330   1334     1
   1331   1342     1
   1331   1335     1
   1331   1336     1
   1332   1342     1
   1332   1335     1
   1332   1336     1
   1333   2863     1
   1334   2863     1
   1335   2893     1
   1336   2893     1
   1337   1342     1
   1337   1339     1
   1337   1340     1
   1338   1342     1
   1338   1339     1
   1338   1340     1
   1339   1341     1
   1340   1341     1
   1343   1359     1
   1343   1360     1
   1343   1361     1
   1343   1362     1
   1343   1365     1
   1343   1366     1
   1344   1357     1
   1344   1358     1
   1344   1363     1
   1344   1364     1
   1345   1355     1
   1345   1356     1
   1345   1363     1
   1345   1364     1
   1346   1368     1
   1346   2924     1
   1347   1355     1
   1347   1356     1
   1347   2926     1
   1347   2928     1
   1348   1368     1
   1348   2954     1
   1349   1357     1
   1349   1358     1
   1349   2956     1
   1349   2958     1
   1350   1355     1
   1350   1356     1
   1350   1357     1
   1350   1358     1
   1350   1367     1
   1351   1368     1
   1352   1363     1
   1352   1364     1
   1353   1359     1
   1353   1360     1
   1353   2924     1
   1354   1361     1
   1354   1362     1
   1354   2954     1
   1355   1368     1
   1355   1359     1
   1355   1360     1
   1356   1368     1
   1356   1359     1
   1356   1360     1
   1357   1368     1
   1357   1361     1
   1357   1362     1
   1358   1368     1
   1358   1361     1
   1358   1362     1
   1359   2923     1
   1360   2923     1
   1361   2953     1
   1362   2953     1
   1363   1368     1
   1363   1365     1
   1363   1366     1
   1364   1368     1
   1364   1365     1
   1364   1366     1
   1365   1367     1
   1366   1367     1
   1369   1385     1
   1369   1386     1
   1369   1387     1
   1369   1388     1
   1369   1391     1
   1369   1392     1
   1370   1383     1
   1370   1384     1
   1370   1389     1
   1370   1390     1
   1371   1381     1
   1371   1382     1
   1371   1389     1
   1371   1390     1
   1372   1394     1
   1372   2984     1
   1373   1381     1
   1373   1382     1
   1373   2986     1
   1373   2988     1
   1374   1394     1
   1374   3014     1
   1375   1383     1
   1375   1384     1
   1375   3016     1
   1375   3018     1
   1376   1381     1
   1376   1382     1
   1376   1383     1
   1376   1384     1
   1376   1393     1
   1377   1394     1
   1378   1389     1
   1378   1390     1
   1379   1385     1
   1379   1386     1
   1379   2984     1
   1380   1387     1
   1380   1388     1
   1380   3014     1
   1381   1394     1
   1381   1385     1
   1381   1386     1
   1382   1394     1
   1382   1385     1
   1382   1386     1
   1383   1394     1
   1383   1387     1
   1383   1388     1
   1384   1394     1
   1384   1387     1
   1384   1388     1
   1385   2983     1
   1386   2983     1
   1387   3013     1
   1388   3013     1
   1389   1394     1
   1389   1391     1
   1389   1392     1
   1390   1394     1
   1390   1391     1
   1390   1392     1
   1391   1393     1
   1392   1393     1
   1395   1411     1
   1395   1412     1
   1395   1413     1
   1395   1414     1
   1395   1417     1
   1395   1418     1
   1396   1409     1
   1396   1410     1
   1396   1415     1
   1396   1416     1
   1397   1407     1
   1397   1408     1
   1397   1415     1
   1397   1416     1
   1398   1420     1
   1398   3044     1
   1399   1407     1
   1399   1408     1
   1399   3046     1
   1399   3048     1
   1400   1420     1
   1400   3074     1
   1401   1409     1
   1401   1410     1
   1401   3076     1
   1401   3078     1
   1402   1407     1
   1402   1408     1
   1402   1409     1
   1402   1410     1
   1402   1419     1
   1403   1420     1
   1404   1415     1
   1404   1416     1
   1405   1411     1
   1405   1412     1
   1405   3044     1
   1406   1413     1
   1406   1414     1
   1406   3074     1
   1407   1420     1
   1407   1411     1
   1407   1412     1
   1408   1420     1
   1408   1411     1
   1408   1412     1
   1409   1420     1
   1409   1413     1
   1409   1414     1
   1410   1420     1
   1410   1413     1
   1410   1414     1
   1411   3043     1
   1412   3043     1
   1413   3073     1
   1414   3073     1
   1415   1420     1
   1415   1417     1
   1415   1418     1
   1416   1420     1
   1416   1417     1
   1416   1418     1
   1417   1419     1
   1418   1419     1
   1421   1437     1
   1421   1438     1
   1421   1439     1
   1421   1440     1
   1421   1443     1
   1421   1444     1
   1422   1435     1
   1422   1436     1
   1422   1441     1
   1422   1442     1
   1423   1433     1
   1423   1434     1
   1423   1441     1
   1423   1442     1
   1424   1446     1
   1424   3104     1
   1425   1433     1
   1425   1434     1
   1425   3106     1
   1425   3108     1
   1426   1446     1
   1426   3134     1
   1427   1435     1
   1427   1436     1
   1427   3136     1
   1427   3138     1
   1428   1433     1
   1428   1434     1
   1428   1435     1
   1428   1436     1
   1428   1445     1
   1429   1446     1
   1430   1441     1
   1430   1442     1
   1431   1437     1
   1431   1438     1
   1431   3104     1
   1432   1439     1
   1432   1440     1
   1432   3134     1
   1433   1446     1
   1433   1437     1
   1433   1438     1
   1434   1446     1
   1434   1437     1
   1434   1438     1
   1435   1446     1
   1435   1439     1
   1435   1440     1
   1436   1446     1
   1436   1439     1
   1436   1440     1
   1437   3103     1
   1438   3103     1
   1439   3133     1
   1440   3133     1
   1441   1446     1
   1441   1443     1
   1441   1444     1
   1442   1446     1
   1442   1443     1
   1442   1444     1
   1443   1445     1
   1444   1445     1
   1447   1463     1
   1447   1464     1
   1447   1465     1
   1447   1466     1
   1447   1469     1
   1447   1470     1
   1448   1461     1
   1448   1462     1
   1448   1467     1
   1448   1468     1
   1449   1459     1
   1449   1460     1
   1449   1467     1
   1449   1468     1
   1450   1472     1
   1450   3164     1
   1451   1459     1
   1451   1460     1
   1451   3166     1
   1451   3168     1
   1452   1472     1
   1452   3194     1
   1453   1461     1
   1453   1462     1
   1453   3196     1
   1453   3198     1
   1454   1459     1
   1454   1460     1
   1454   1461     1
   1454   1462     1
   1454   1471     1
   1455   1472     1
   1456   1467     1
   1456   1468     1
   1457   1463     1
   1457   1464     1
   1457   3164     1
   1458   1465     1
   1458   1466     1
   1458   3194     1
   1459   1472     1
   1459   1463     1
   1459   1464     1
   1460   1472     1
   1460   1463     1
   1460   1464     1
   1461   1472     1
   1461   1465     1
   1461   1466     1
   1462   1472     1
   1462   1465     1
   1462   1466     1
   1463   3163     1
   1464   3163     1
   1465   3193     1
   1466   3193     1
   1467   1472     1
   1467   1469     1
   1467   1470     1
   1468   1472     1
   1468   1469     1
   1468   1470     1
   1469   1471     1
   1470   1471     1
   1473   1489     1
   1473   1490     1
   1473   1491     1
   1473   1492     1
   1473   1495     1
   1473   1496     1
   1474   1487     1
   1474   1488     1
   1474   1493     1
   1474   1494     1
   1475   1485     1
   1475   1486     1
   1475   1493     1
   1475   1494     1
   1476   1498     1
   1476   3224     1
   1477   1485     1
   1477   1486     1
   1477   3226     1
   1477   3228     1
   1478   1498     1
   1478   3254     1
   1479   1487     1
   1479   1488     1
   1479   3256     1
   1479   3258     1
   1480   1485     1
   1480   1486     1
   1480   1487     1
   1480   1488     1
   1480   1497     1
   1481   1498     1
   1482   1493     1
   1482   1494     1
   1483   1489     1
   1483   1490     1
   1483   3224     1
   1484   1491     1
   1484   1492     1
   1484   3254     1
   1485   1498     1
   1485   1489     1
   1485   1490     1
   1486   1498     1
   1486   1489     1
   1486   1490     1
   1487   1498     1
   1487   1491     1
   1487   1492     1
   1488   1498     1
   1488   1491     1
   1488   1492     1
   1489   3223     1
   1490   3223     1
   1491   3253     1
   1492   3253     1
   1493   1498     1
   1493   1495     1
   1493   1496     1
   1494   1498     1
   1494   1495     1
   1494   1496     1
   1495   1497     1
   1496   1497     1
   1499   1515     1
   1499   1516     1
   1499   1517     1
   1499   1518     1
   1499   1521     1
   1499   1522     1
   1500   1513     1
   1500   1514     1
   1500   1519     1
   1500   1520     1
   1501   1511     1
   1501   1512     1
   1501   1519     1
   1501   1520     1
   1502   1524     1
   1502   3284     1
   1503   1511     1
   1503   1512     1
   1503   3286     1
   1503   3288     1
   1504   1524     1
   1504   3314     1
   1505   1513     1
   1505   1514     1
   1505   3316     1
   1505   3318     1
   1506   1511     1
   1506   1512     1
   1506   1513     1
   1506   1514     1
   1506   1523     1
   1507   1524     1
   1508   1519     1
   1508   1520     1
   1509   1515     1
   1509   1516     1
   1509   3284     1
   1510   1517     1
   1510   1518     1
   1510   3314     1
   1511   1524     1
   1511   1515     1
   1511   1516     1
   1512   1524     1
   1512   1515     1
   1512   1516     1
   1513   1524     1
   1513   1517     1
   1513   1518     1
   1514   1524     1
   1514   1517     1
   1514   1518     1
   1515   3283     1
   1516   3283     1
   1517   3313     1
   1518   3313     1
   1519   1524     1
   1519   1521     1
   1519   1522     1
   1520   1524     1
   1520   1521     1
   1520   1522     1
   1521   1523     1
   1522   1523     1
   1525   1541     1
   1525   1542     1
   1525   1543     1
   1525   1544     1
   1525   1547     1
   1525   1548     1
   1526   1539     1
   1526   1540     1
   1526   1545     1
   1526   1546     1
   1527   1537     1
   1527   1538     1
   1527   1545     1
   1527   1546     1
   1528   1550     1
   1528   3344     1
   1529   1537     1
   1529   1538     1
   1529   3346     1
   1529   3348     1
   1530   1550     1
   1530   3374     1
   1531   1539     1
   1531   1540     1
   1531   3376     1
   1531   3378     1
   1532   1537     1
   1532   1538     1
   1532   1539     1
   1532   1540     1
   1532   1549     1
   1533   1550     1
   1534   1545     1
   1534   1546     1
   1535   1541     1
   1535   1542     1
   1535   3344     1
   1536   1543     1
   1536   1544     1
   1536   3374     1
   1537   1550     1
   1537   1541     1
   1537   1542     1
   1538   1550     1
   1538   1541     1
   1538   1542     1
   1539   1550     1
   1539   1543     1
   1539   1544     1
   1540   1550     1
   1540   1543     1
   1540   1544     1
   1541   3343     1
   1542   3343     1
   1543   3373     1
   1544   3373     1
   1545   1550     1
   1545   1547     1
   1545   1548     1
   1546   1550     1
   1546   1547     1
   1546   1548     1
   1547   1549     1
   1548   1549     1
   1551   1567     1
   1551   1568     1
   1551   1569     1
   1551   1570     1
   1551   1573     1
   1551   1574     1
   1552   1565     1
   1552   1566     1
   1552   1571     1
   1552   1572     1
   1553   1563     1
   1553   1564     1
   1553   1571     1
   1553   1572     1
   1554   1576     1
   1554   3404     1
   1555   1563     1
   1555   1564     1
   1555   3406     1
   1555   3408     1
   1556   1576     1
   1556   3434     1
   1557   1565     1
   1557   1566     1
   1557   3436     1
   1557   3438     1
   1558   1563     1
   1558   1564     1
   1558   1565     1
   1558   1566     1
   1558   1575     1
   1559   1576     1
   1560   1571     1
   1560   1572     1
   1561   1567     1
   1561   1568     1
   1561   3404     1
   1562   1569     1
   1562   1570     1
   1562   3434     1
   1563   1576     1
   1563   1567     1
   1563   1568     1
   1564   1576     1
   1564   1567     1
   1564   1568     1
   1565   1576     1
   1565   1569     1
   1565   1570     1
   1566   1576     1
   1566   1569     1
   1566   1570     1
   1567   3403     1
   1568   3403     1
   1569   3433     1
   1570   3433     1
   1571   1576     1
   1571   1573     1
   1571   1574     1
   1572   1576     1
   1572   1573     1
   1572   1574     1
   1573   1575     1
   1574   1575     1
   1577   1593     1
   1577   1594     1
   1577   1595     1
   1577   1596     1
   1577   1599     1
   1577   1600     1
   1578   1591     1
   1578   1592     1
   1578   1597     1
   1578   1598     1
   1579   1589     1
   1579   1590     1
   1579   1597     1
   1579   1598     1
   1580   1602     1
   1580   3464     1
   1581   1589     1
   1581   1590     1
   1581   3466     1
   1581   3468     1
   1582   1602     1
   1582   3494     1
   1583   1591     1
   1583   1592     1
   1583   3496     1
   1583   3498     1
   1584   1589     1
   1584   1590     1
   1584   1591     1
   1584   1592     1
   1584   1601     1
   1585   1602     1
   1586   1597     1
   1586   1598     1
   1587   1593     1
   1587   1594     1
   1587   3464     1
   1588   1595     1
   1588   1596     1
   1588   3494     1
   1589   1602     1
   1589   1593     1
   1589   1594     1
   1590   1602     1
   1590   1593     1
   1590   1594     1
   1591   1602     1
   1591   1595     1
   1591   1596     1
   1592   1602     1
   1592   1595     1
   1592   1596     1
   1593   3463     1
   1594   3463     1
   1595   3493     1
   1596   3493     1
   1597   1602     1
   1597   1599     1
   1597   1600     1
   1598   1602     1
   1598   1599     1
   1598   1600     1
   1599   1601     1
   1600   1601     1
   1603   1609     1
   1603   1610     1
   1604   1607     1
   1604   1606     1
   1604   1608     1
   1605   1632     1
   1606   1611     1
   1606   1609     1
   1606   1610     1
   1607   1622     1
   1607   1623     1
   1607   1614     1
   1607   1616     1
   1608   1611     1
   1608   1609     1
   1608   1610     1
   1609   1612     1
   1609   1613     1
   1609   1632     1
   1610   1612     1
   1610   1613     1
   1610   1632     1
   1611   1625     1
   1611   1626     1
   1611   1617     1
   1611   1618     1
   1612   1614     1
   1612   1616     1
   1613   1622     1
   1613   1623     1
   1614   1632     1
   1614   1619     1
   1614   1617     1
   1614   1618     1
   1615   1632     1
   1615   1630     1
   1616   1632     1
   1616   1619     1
   1616   1617     1
   1616   1618     1
   1617   1620     1
   1617   1621     1
   1618   1620     1
   1618   1621     1
   1621   1630     1
   1622   1632     1
   1622   1627     1
   1622   1625     1
   1622   1626     1
   1623   1632     1
   1623   1627     1
   1623   1625     1
   1623   1626     1
   1624   1632     1
   1624   1631     1
   1625   1628     1
   1625   1629     1
   1626   1628     1
   1626   1629     1
   1628   1631     1
   1633   1639     1
   1633   1640     1
   1634   1637     1
   1634   1636     1
   1634   1638     1
   1635   1662     1
   1636   1641     1
   1636   1639     1
   1636   1640     1
   1637   1652     1
   1637   1653     1
   1637   1644     1
   1637   1646     1
   1638   1641     1
   1638   1639     1
   1638   1640     1
   1639   1642     1
   1639   1643     1
   1639   1662     1
   1640   1642     1
   1640   1643     1
   1640   1662     1
   1641   1655     1
   1641   1656     1
   1641   1647     1
   1641   1648     1
   1642   1644     1
   1642   1646     1
   1643   1652     1
   1643   1653     1
   1644   1649     1
   1644   1647     1
   1644   1648     1
   1644   1662     1
   1645   1660     1
   1645   1662     1
   1646   1649     1
   1646   1647     1
   1646   1648     1
   1646   1662     1
   1647   1650     1
   1647   1651     1
   1648   1650     1
   1648   1651     1
   1651   1660     1
   1652   1657     1
   1652   1655     1
   1652   1656     1
   1652   1662     1
   1653   1657     1
   1653   1655     1
   1653   1656     1
   1653   1662     1
   1654   1661     1
   1654   1662     1
   1655   1658     1
   1655   1659     1
   1656   1658     1
   1656   1659     1
   1658   1661     1
   1663   1669     1
   1663   1670     1
   1664   1667     1
   1664   1666     1
   1664   1668     1
   1665   1692     1
   1666   1671     1
   1666   1669     1
   1666   1670     1
   1667   1682     1
   1667   1683     1
   1667   1674     1
   1667   1676     1
   1668   1671     1
   1668   1669     1
   1668   1670     1
   1669   1672     1
   1669   1673     1
   1669   1692     1
   1670   1672     1
   1670   1673     1
   1670   1692     1
   1671   1685     1
   1671   1686     1
   1671   1677     1
   1671   1678     1
   1672   1674     1
   1672   1676     1
   1673   1682     1
   1673   1683     1
   1674   1692     1
   1674   1679     1
   1674   1677     1
   1674   1678     1
   1675   1692     1
   1675   1690     1
   1676   1692     1
   1676   1679     1
   1676   1677     1
   1676   1678     1
   1677   1680     1
   1677   1681     1
   1678   1680     1
   1678   1681     1
   1681   1690     1
   1682   1692     1
   1682   1687     1
   1682   1685     1
   1682   1686     1
   1683   1692     1
   1683   1687     1
   1683   1685     1
   1683   1686     1
   1684   1692     1
   1684   1691     1
   1685   1688     1
   1685   1689     1
   1686   1688     1
   1686   1689     1
   1688   1691     1
   1693   1699     1
   1693   1700     1
   1694   1697     1
   1694   1696     1
   1694   1698     1
   1695   1722     1
   1696   1701     1
   1696   1699     1
   1696   1700     1
   1697   1712     1
   1697   1713     1
   1697   1704     1
   1697   1706     1
   1698   1701     1
   1698   1699     1
   1698   1700     1
   1699   1702     1
   1699   1703     1
   1699   1722     1
   1700   1702     1
   1700   1703     1
   1700   1722     1
   1701   1715     1
   1701   1716     1
   1701   1707     1
   1701   1708     1
   1702   1704     1
   1702   1706     1
   1703   1712     1
   1703   1713     1
   1704   1709     1
   1704   1707     1
   1704   1708     1
   1704   1722     1
   1705   1720     1
   1705   1722     1
   1706   1709     1
   1706   1707     1
   1706   1708     1
   1706   1722     1
   1707   1710     1
   1707   1711     1
   1708   1710     1
   1708   1711     1
   1711   1720     1
   1712   1717     1
   1712   1715     1
   1712   1716     1
   1712   1722     1
   1713   1717     1
   1713   1715     1
   1713   1716     1
   1713   1722     1
   1714   1721     1
   1714   1722     1
   1715   1718     1
   1715   1719     1
   1716   1718     1
   1716   1719     1
   1718   1721     1
   1723   1729     1
   1723   1730     1
   1724   1727     1
   1724   1726     1
   1724   1728     1
   1725   1752     1
   1726   1731     1
   1726   1729     1
   1726   1730     1
   1727   1742     1
   1727   1743     1
   1727   1734     1
   1727   1736     1
   1728   1731     1
   1728   1729     1
   1728   1730     1
   1729   1732     1
   1729   1733     1
   1729   1752     1
   1730   1732     1
   1730   1733     1
   1730   1752     1
   1731   1745     1
   1731   1746     1
   1731   1737     1
   1731   1738     1
   1732   1734     1
   1732   1736     1
   1733   1742     1
   1733   1743     1
   1734   1752     1
   1734   1739     1
   1734   1737     1
   1734   1738     1
   1735   1752     1
   1735   1750     1
   1736   1752     1
   1736   1739     1
   1736   1737     1
   1736   1738     1
   1737   1740     1
   1737   1741     1
   1738   1740     1
   1738   1741     1
   1741   1750     1
   1742   1752     1
   1742   1747     1
   1742   1745     1
   1742   1746     1
   1743   1752     1
   1743   1747     1
   1743   1745     1
   1743   1746     1
   1744   1752     1
   1744   1751     1
   1745   1748     1
   1745   1749     1
   1746   1748     1
   1746   1749     1
   1748   1751     1
   1753   1759     1
   1753   1760     1
   1754   1757     1
   1754   1756     1
   1754   1758     1
   1755   1782     1
   1756   1761     1
   1756   1759     1
   1756   1760     1
   1757   1772     1
   1757   1773     1
   1757   1764     1
   1757   1766     1
   1758   1761     1
   1758   1759     1
   1758   1760     1
   1759   1762     1
   1759   1763     1
   1759   1782     1
   1760   1762     1
   1760   1763     1
   1760   1782     1
   1761   1775     1
   1761   1776     1
   1761   1767     1
   1761   1768     1
   1762   1764     1
   1762   1766     1
   1763   1772     1
   1763   1773     1
   1764   1769     1
   1764   1767     1
   1764   1768     1
   1764   1782     1
   1765   1780     1
   1765   1782     1
   1766   1769     1
   1766   1767     1
   1766   1768     1
   1766   1782     1
   1767   1770     1
   1767   1771     1
   1768   1770     1
   1768   1771     1
   1771   1780     1
   1772   1777     1
   1772   1775     1
   1772   1776     1
   1772   1782     1
   1773   1777     1
   1773   1775     1
   1773   1776     1
   1773   1782     1
   1774   1781     1
   1774   1782     1
   1775   1778     1
   1775   1779     1
   1776   1778     1
   1776   1779     1
   1778   1781     1
   1783   1789     1
   1783   1790     1
   1784   1787     1
   1784   1786     1
   1784   1788     1
   1785   1812     1
   1786   1791     1
   1786   1789     1
   1786   1790     1
   1787   1802     1
   1787   1803     1
   1787   1794     1
   1787   1796     1
   1788   1791     1
   1788   1789     1
   1788   1790     1
   1789   1792     1
   1789   1793     1
   1789   1812     1
   1790   1792     1
   1790   1793     1
   1790   1812     1
   1791   1805     1
   1791   1806     1
   1791   1797     1
   1791   1798     1
   1792   1794     1
   1792   1796     1
   1793   1802     1
   1793   1803     1
   1794   1812     1
   1794   1799     1
   1794   1797     1
   1794   1798     1
   1795   1812     1
   1795   1810     1
   1796   1812     1
   1796   1799     1
   1796   1797     1
   1796   1798     1
   1797   1800     1
   1797   1801     1
   1798   1800     1
   1798   1801     1
   1801   1810     1
   1802   1812     1
   1802   1807     1
   1802   1805     1
   1802   1806     1
   1803   1812     1
   1803   1807     1
   1803   1805     1
   1803   1806     1
   1804   1812     1
   1804   1811     1
   1805   1808     1
   1805   1809     1
   1806   1808     1
   1806   1809     1
   1808   1811     1
   1813   1819     1
   1813   1820     1
   1814   1817     1
   1814   1816     1
   1814   1818     1
   1815   1842     1
   1816   1821     1
   1816   1819     1
   1816   1820     1
   1817   1832     1
   1817   1833     1
   1817   1824     1
   1817   1826     1
   1818   1821     1
   1818   1819     1
   1818   1820     1
   1819   1822     1
   1819   1823     1
   1819   1842     1
   1820   1822     1
   1820   1823     1
   1820   1842     1
   1821   1835     1
   1821   1836     1
   1821   1827     1
   1821   1828     1
   1822   1824     1
   1822   1826     1
   1823   1832     1
   1823   1833     1
   1824   1829     1
   1824   1827     1
   1824   1828     1
   1824   1842     1
   1825   1840     1
   1825   1842     1
   1826   1829     1
   1826   1827     1
   1826   1828     1
   1826   1842     1
   1827   1830     1
   1827   1831     1
   1828   1830     1
   1828   1831     1
   1831   1840     1
   1832   1837     1
   1832   1835     1
   1832   1836     1
   1832   1842     1
   1833   1837     1
   1833   1835     1
   1833   1836     1
   1833   1842     1
   1834   1841     1
   1834   1842     1
   1835   1838     1
   1835   1839     1
   1836   1838     1
   1836   1839     1
   1838   1841     1
   1843   1849     1
   1843   1850     1
   1844   1847     1
   1844   1846     1
   1844   1848     1
   1845   1872     1
   1846   1851     1
   1846   1849     1
   1846   1850     1
   1847   1862     1
   1847   1863     1
   1847   1854     1
   1847   1856     1
   1848   1851     1
   1848   1849     1
   1848   1850     1
   1849   1852     1
   1849   1853     1
   1849   1872     1
   1850   1852     1
   1850   1853     1
   1850   1872     1
   1851   1865     1
   1851   1866     1
   1851   1857     1
   1851   1858     1
   1852   1854     1
   1852   1856     1
   1853   1862     1
   1853   1863     1
   1854   1872     1
   1854   1859     1
   1854   1857     1
   1854   1858     1
   1855   1872     1
   1855   1870     1
   1856   1872     1
   1856   1859     1
   1856   1857     1
   1856   1858     1
   1857   1860     1
   1857   1861     1
   1858   1860     1
   1858   1861     1
   1861   1870     1
   1862   1872     1
   1862   1867     1
   1862   1865     1
   1862   1866     1
   1863   1872     1
   1863   1867     1
   1863   1865     1
   1863   1866     1
   1864   1872     1
   1864   1871     1
   1865   1868     1
   1865   1869     1
   1866   1868     1
   1866   1869     1
   1868   1871     1
   1873   1879     1
   1873   1880     1
   1874   1877     1
   1874   1876     1
   1874   1878     1
   1875   1902     1
   1876   1881     1
   1876   1879     1
   1876   1880     1
   1877   1892     1
   1877   1893     1
   1877   1884     1
   1877   1886     1
   1878   1881     1
   1878   1879     1
   1878   1880     1
   1879   1882     1
   1879   1883     1
   1879   1902     1
   1880   1882     1
   1880   1883     1
   1880   1902     1
   1881   1895     1
   1881   1896     1
   1881   1887     1
   1881   1888     1
   1882   1884     1
   1882   1886     1
   1883   1892     1
   1883   1893     1
   1884   1889     1
   1884   1887     1
   1884   1888     1
   1884   1902     1
   1885   1900     1
   1885   1902     1
   1886   1889     1
   1886   1887     1
   1886   1888     1
   1886   1902     1
   1887   1890     1
   1887   1891     1
   1888   1890     1
   1888   1891     1
   1891   1900     1
   1892   1897     1
   1892   1895     1
   1892   1896     1
   1892   1902     1
   1893   1897     1
   1893   1895     1
   1893   1896     1
   1893   1902     1
   1894   1901     1
   1894   1902     1
   1895   1898     1
   1895   1899     1
   1896   1898     1
   1896   1899     1
   1898   1901     1
   1903   1909     1
   1903   1910     1
   1904   1907     1
   1904   1906     1
   1904   1908     1
   1905   1932     1
   1906   1911     1
   1906   1909     1
   1906   1910     1
   1907   1922     1
   1907   1923     1
   1907   1914     1
   1907   1916     1
   1908   1911     1
   1908   1909     1
   1908   1910     1
   1909   1912     1
   1909   1913     1
   1909   1932     1
   1910   1912     1
   1910   1913     1
   1910   1932     1
   1911   1925     1
   1911   1926     1
   1911   1917     1
   1911   1918     1
   1912   1914     1
   1912   1916     1
   1913   1922     1
   1913   1923     1
   1914   1932     1
   1914   1919     1
   1914   1917     1
   1914   1918     1
   1915   1932     1
   1915   1930     1
   1916   1932     1
   1916   1919     1
   1916   1917     1
   1916   1918     1
   1917   1920     1
   1917   1921     1
   1918   1920     1
   1918   1921     1
   1921   1930     1
   1922   1932     1
   1922   1927     1
   1922   1925     1
   1922   1926     1
   1923   1932     1
   1923   1927     1
   1923   1925     1
   1923   1926     1
   1924   1932     1
   1924   1931     1
   1925   1928     1
   1925   1929     1
   1926   1928     1
   1926   1929     1
   1928   1931     1
   1933   1939     1
   1933   1940     1
   1934   1937     1
   1934   1936     1
   1934   1938     1
   1935   1962     1
   1936   1941     1
   1936   1939     1
   1936   1940     1
   1937   1952     1
   1937   1953     1
   1937   1944     1
   1937   1946     1
   1938   1941     1
   1938   1939     1
   1938   1940     1
   1939   1942     1
   1939   1943     1
   1939   1962     1
   1940   1942     1
   1940   1943     1
   1940   1962     1
   1941   1955     1
   1941   1956     1
   1941   1947     1
   1941   1948     1
   1942   1944     1
   1942   1946     1
   1943   1952     1
   1943   1953     1
   1944   1949     1
   1944   1947     1
   1944   1948     1
   1944   1962     1
   1945   1960     1
   1945   1962     1
   1946   1949     1
   1946   1947     1
   1946   1948     1
   1946   1962     1
   1947   1950     1
   1947   1951     1
   1948   1950     1
   1948   1951     1
   1951   1960     1
   1952   1957     1
   1952   1955     1
   1952   1956     1
   1952   1962     1
   1953   1957     1
   1953   1955     1
   1953   1956     1
   1953   1962     1
   1954   1961     1
   1954   1962     1
   1955   1958     1
   1955   1959     1
   1956   1958     1
   1956   1959     1
   1958   1961     1
   1963   1969     1
   1963   1970     1
   1964   1967     1
   1964   1966     1
   1964   1968     1
   1965   1992     1
   1966   1971     1
   1966   1969     1
   1966   1970     1
   1967   1982     1
   1967   1983     1
   1967   1974     1
   1967   1976     1
   1968   1971     1
   1968   1969     1
   1968   1970     1
   1969   1972     1
   1969   1973     1
   1969   1992     1
   1970   1972     1
   1970   1973     1
   1970   1992     1
   1971   1985     1
   1971   1986     1
   1971   1977     1
   1971   1978     1
   1972   1974     1
   1972   1976     1
   1973   1982     1
   1973   1983     1
   1974   1992     1
   1974   1979     1
   1974   1977     1
   1974   1978     1
   1975   1992     1
   1975   1990     1
   1976   1992     1
   1976   1979     1
   1976   1977     1
   1976   1978     1
   1977   1980     1
   1977   1981     1
   1978   1980     1
   1978   1981     1
   1981   1990     1
   1982   1992     1
   1982   1987     1
   1982   1985     1
   1982   1986     1
   1983   1992     1
   1983   1987     1
   1983   1985     1
   1983   1986     1
   1984   1992     1
   1984   1991     1
   1985   1988     1
   1985   1989     1
   1986   1988     1
   1986   1989     1
   1988   1991     1
   1993   1999     1
   1993   2000     1
   1994   1997     1
   1994   1996     1
   1994   1998     1
   1995   2022     1
   1996   2001     1
   1996   1999     1
   1996   2000     1
   1997   2012     1
   1997   2013     1
   1997   2004     1
   1997   2006     1
   1998   2001     1
   1998   1999     1
   1998   2000     1
   1999   2002     1
   1999   2003     1
   1999   2022     1
   2000   2002     1
   2000   2003     1
   2000   2022     1
   2001   2015     1
   2001   2016     1
   2001   2007     1
   2001   2008     1
   2002   2004     1
   2002   2006     1
   2003   2012     1
   2003   2013     1
   2004   2009     1
   2004   2007     1
   2004   2008     1
   2004   2022     1
   2005   2020     1
   2005   2022     1
   2006   2009     1
   2006   2007     1
   2006   2008     1
   2006   2022     1
   2007   2010     1
   2007   2011     1
   2008   2010     1
   2008   2011     1
   2011   2020     1
   2012   2017     1
   2012   2015     1
   2012   2016     1
   2012   2022     1
   2013   2017     1
   2013   2015     1
   2013   2016     1
   2013   2022     1
   2014   2021     1
   2014   2022     1
   2015   2018     1
   2015   2019     1
   2016   2018     1
   2016   2019     1
   2018   2021     1
   2023   2029     1
   2023   2030     1
   2024   2027     1
   2024   2026     1
   2024   2028     1
   2025   2052     1
   2026   2031     1
   2026   2029     1
   2026   2030     1
   2027   2042     1
   2027   2043     1
   2027   2034     1
   2027   2036     1
   2028   2031     1
   2028   2029     1
   2028   2030     1
   2029   2032     1
   2029   2033     1
   2029   2052     1
   2030   2032     1
   2030   2033     1
   2030   2052     1
   2031   2045     1
   2031   2046     1
   2031   2037     1
   2031   2038     1
   2032   2034     1
   2032   2036     1
   2033   2042     1
   2033   2043     1
   2034   2052     1
   2034   2039     1
   2034   2037     1
   2034   2038     1
   2035   2052     1
   2035   2050     1
   2036   2052     1
   2036   2039     1
   2036   2037     1
   2036   2038     1
   2037   2040     1
   2037   2041     1
   2038   2040     1
   2038   2041     1
   2041   2050     1
   2042   2052     1
   2042   2047     1
   2042   2045     1
   2042   2046     1
   2043   2052     1
   2043   2047     1
   2043   2045     1
   2043   2046     1
   2044   2052     1
   2044   2051     1
   2045   2048     1
   2045   2049     1
   2046   2048     1
   2046   2049     1
   2048   2051     1
   2053   2059     1
   2053   2060     1
   2054   2057     1
   2054   2056     1
   2054   2058     1
   2055   2082     1
   2056   2061     1
   2056   2059     1
   2056   2060     1
   2057   2072     1
   2057   2073     1
   2057   2064     1
   2057   2066     1
   2058   2061     1
   2058   2059     1
   2058   2060     1
   2059   2062     1
   2059   2063     1
   2059   2082     1
   2060   2062     1
   2060   2063     1
   2060   2082     1
   2061   2075     1
   2061   2076     1
   2061   2067     1
   2061   2068     1
   2062   2064     1
   2062   2066     1
   2063   2072     1
   2063   2073     1
   2064   2069     1
   2064   2067     1
   2064   2068     1
   2064   2082     1
   2065   2080     1
   2065   2082     1
   2066   2069     1
   2066   2067     1
   2066   2068     1
   2066   2082     1
   2067   2070     1
   2067   2071     1
   2068   2070     1
   2068   2071     1
   2071   2080     1
   2072   2077     1
   2072   2075     1
   2072   2076     1
   2072   2082     1
   2073   2077     1
   2073   2075     1
   2073   2076     1
   2073   2082     1
   2074   2081     1
   2074   2082     1
   2075   2078     1
   2075   2079     1
   2076   2078     1
   2076   2079     1
   2078   2081     1
   2083   2089     1
   2083   2090     1
   2084   2087     1
   2084   2086     1
   2084   2088     1
   2085   2112     1
   2086   2091     1
   2086   2089     1
   2086   2090     1
   2087   2102     1
   2087   2103     1
   2087   2094     1
   2087   2096     1
   2088   2091     1
   2088   2089     1
   2088   2090     1
   2089   2092     1
   2089   2093     1
   2089   2112     1
   2090   2092     1
   2090   2093     1
   2090   2112     1
   2091   2105     1
   2091   2106     1
   2091   2097     1
   2091   2098     1
   2092   2094     1
   2092   2096     1
   2093   2102     1
   2093   2103     1
   2094   2112     1
   2094   2099     1
   2094   2097     1
   2094   2098     1
   2095   2112     1
   2095   2110     1
   2096   2112     1
   2096   2099     1
   2096   2097     1
   2096   2098     1
   2097   2100     1
   2097   2101     1
   2098   2100     1
   2098   2101     1
   2101   2110     1
   2102   2112     1
   2102   2107     1
   2102   2105     1
   2102   2106     1
   2103   2112     1
   2103   2107     1
   2103   2105     1
   2103   2106     1
   2104   2112     1
   2104   2111     1
   2105   2108     1
   2105   2109     1
   2106   2108     1
   2106   2109     1
   2108   2111     1
   2113   2119     1
   2113   2120     1
   2114   2117     1
   2114   2116     1
   2114   2118     1
   2115   2142     1
   2116   2121     1
   2116   2119     1
   2116   2120     1
   2117   2132     1
   2117   2133     1
   2117   2124     1
   2117   2126     1
   2118   2121     1
   2118   2119     1
   2118   2120     1
   2119   2122     1
   2119   2123     1
   2119   2142     1
   2120   2122     1
   2120   2123     1
   2120   2142     1
   2121   2135     1
   2121   2136     1
   2121   2127     1
   2121   2128     1
   2122   2124     1
   2122   2126     1
   2123   2132     1
   2123   2133     1
   2124   2129     1
   2124   2127     1
   2124   2128     1
   2124   2142     1
   2125   2140     1
   2125   2142     1
   2126   2129     1
   2126   2127     1
   2126   2128     1
   2126   2142     1
   2127   2130     1
   2127   2131     1
   2128   2130     1
   2128   2131     1
   2131   2140     1
   2132   2137     1
   2132   2135     1
   2132   2136     1
   2132   2142     1
   2133   2137     1
   2133   2135     1
   2133   2136     1
   2133   2142     1
   2134   2141     1
   2134   2142     1
   2135   2138     1
   2135   2139     1
   2136   2138     1
   2136   2139     1
   2138   2141     1
   2143   2149     1
   2143   2150     1
   2144   2147     1
   2144   2146     1
   2144   2148     1
   2145   2172     1
   2146   2151     1
   2146   2149     1
   2146   2150     1
   2147   2162     1
   2147   2163     1
   2147   2154     1
   2147   2156     1
   2148   2151     1
   2148   2149     1
   2148   2150     1
   2149   2152     1
   2149   2153     1
   2149   2172     1
   2150   2152     1
   2150   2153     1
   2150   2172     1
   2151   2165     1
   2151   2166     1
   2151   2157     1
   2151   2158     1
   2152   2154     1
   2152   2156     1
   2153   2162     1
   2153   2163     1
   2154   2172     1
   2154   2159     1
   2154   2157     1
   2154   2158     1
   2155   2172     1
   2155   2170     1
   2156   2172     1
   2156   2159     1
   2156   2157     1
   2156   2158     1
   2157   2160     1
   2157   2161     1
   2158   2160     1
   2158   2161     1
   2161   2170     1
   2162   2172     1
   2162   2167     1
   2162   2165     1
   2162   2166     1
   2163   2172     1
   2163   2167     1
   2163   2165     1
   2163   2166     1
   2164   2172     1
   2164   2171     1
   2165   2168     1
   2165   2169     1
   2166   2168     1
   2166   2169     1
   2168   2171     1
   2173   2179     1
   2173   2180     1
   2174   2177     1
   2174   2176     1
   2174   2178     1
   2175   2202     1
   2176   2181     1
   2176   2179     1
   2176   2180     1
   2177   2192     1
   2177   2193     1
   2177   2184     1
   2177   2186     1
   2178   2181     1
   2178   2179     1
   2178   2180     1
   2179   2182     1
   2179   2183     1
   2179   2202     1
   2180   2182     1
   2180   2183     1
   2180   2202     1
   2181   2195     1
   2181   2196     1
   2181   2187     1
   2181   2188     1
   2182   2184     1
   2182   2186     1
   2183   2192     1
   2183   2193     1
   2184   2189     1
   2184   2187     1
   2184   2188     1
   2184   2202     1
   2185   2200     1
   2185   2202     1
   2186   2189     1
   2186   2187     1
   2186   2188     1
   2186   2202     1
   2187   2190     1
   2187   2191     1
   2188   2190     1
   2188   2191     1
   2191   2200     1
   2192   2197     1
   2192   2195     1
   2192   2196     1
   2192   2202     1
   2193   2197     1
   2193   2195     1
   2193   2196     1
   2193   2202     1
   2194   2201     1
   2194   2202     1
   2195   2198     1
   2195   2199     1
   2196   2198     1
   2196   2199     1
   2198   2201     1
   2203   2209     1
   2203   2210     1
   2204   2207     1
   2204   2206     1
   2204   2208     1
   2205   2232     1
   2206   2211     1
   2206   2209     1
   2206   2210     1
   2207   2222     1
   2207   2223     1
   2207   2214     1
   2207   2216     1
   2208   2211     1
   2208   2209     1
   2208   2210     1
   2209   2212     1
   2209   2213     1
   2209   2232     1
   2210   2212     1
   2210   2213     1
   2210   2232     1
   2211   2225     1
   2211   2226     1
   2211   2217     1
   2211   2218     1
   2212   2214     1
   2212   2216     1
   2213   2222     1
   2213   2223     1
   2214   2232     1
   2214   2219     1
   2214   2217     1
   2214   2218     1
   2215   2232     1
   2215   2230     1
   2216   2232     1
   2216   2219     1
   2216   2217     1
   2216   2218     1
   2217   2220     1
   2217   2221     1
   2218   2220     1
   2218   2221     1
   2221   2230     1
   2222   2232     1
   2222   2227     1
   2222   2225     1
   2222   2226     1
   2223   2232     1
   2223   2227     1
   2223   2225     1
   2223   2226     1
   2224   2232     1
   2224   2231     1
   2225   2228     1
   2225   2229     1
   2226   2228     1
   2226   2229     1
   2228   2231     1
   2233   2239     1
   2233   2240     1
   2234   2237     1
   2234   2236     1
   2234   2238     1
   2235   2262     1
   2236   2241     1
   2236   2239     1
   2236   2240     1
   2237   2252     1
   2237   2253     1
   2237   2244     1
   2237   2246     1
   2238   2241     1
   2238   2239     1
   2238   2240     1
   2239   2242     1
   2239   2243     1
   2239   2262     1
   2240   2242     1
   2240   2243     1
   2240   2262     1
   2241   2255     1
   2241   2256     1
   2241   2247     1
   2241   2248     1
   2242   2244     1
   2242   2246     1
   2243   2252     1
   2243   2253     1
   2244   2249     1
   2244   2247     1
   2244   2248     1
   2244   2262     1
   2245   2260     1
   2245   2262     1
   2246   2249     1
   2246   2247     1
   2246   2248     1
   2246   2262     1
   2247   2250     1
   2247   2251     1
   2248   2250     1
   2248   2251     1
   2251   2260     1
   2252   2257     1
   2252   2255     1
   2252   2256     1
   2252   2262     1
   2253   2257     1
   2253   2255     1
   2253   2256     1
   2253   2262     1
   2254   2261     1
   2254   2262     1
   2255   2258     1
   2255   2259     1
   2256   2258     1
   2256   2259     1
   2258   2261     1
   2263   2269     1
   2263   2270     1
   2264   2267     1
   2264   2266     1
   2264   2268     1
   2265   2292     1
   2266   2271     1
   2266   2269     1
   2266   2270     1
   2267   2282     1
   2267   2283     1
   2267   2274     1
   2267   2276     1
   2268   2271     1
   2268   2269     1
   2268   2270     1
   2269   2272     1
   2269   2273     1
   2269   2292     1
   2270   2272     1
   2270   2273     1
   2270   2292     1
   2271   2285     1
   2271   2286     1
   2271   2277     1
   2271   2278     1
   2272   2274     1
   2272   2276     1
   2273   2282     1
   2273   2283     1
   2274   2292     1
   2274   2279     1
   2274   2277     1
   2274   2278     1
   2275   2292     1
   2275   2290     1
   2276   2292     1
   2276   2279     1
   2276   2277     1
   2276   2278     1
   2277   2280     1
   2277   2281     1
   2278   2280     1
   2278   2281     1
   2281   2290     1
   2282   2292     1
   2282   2287     1
   2282   2285     1
   2282   2286     1
   2283   2292     1
   2283   2287     1
   2283   2285     1
   2283   2286     1
   2284   2292     1
   2284   2291     1
   2285   2288     1
   2285   2289     1
   2286   2288     1
   2286   2289     1
   2288   2291     1
   2293   2299     1
   2293   2300     1
   2294   2297     1
   2294   2296     1
   2294   2298     1
   2295   2322     1
   2296   2301     1
   2296   2299     1
   2296   2300     1
   2297   2312     1
   2297   2313     1
   2297   2304     1
   2297   2306     1
   2298   2301     1
   2298   2299     1
   2298   2300     1
   2299   2302     1
   2299   2303     1
   2299   2322     1
   2300   2302     1
   2300   2303     1
   2300   2322     1
   2301   2315     1
   2301   2316     1
   2301   2307     1
   2301   2308     1
   2302   2304     1
   2302   2306     1
   2303   2312     1
   2303   2313     1
   2304   2309     1
   2304   2307     1
   2304   2308     1
   2304   2322     1
   2305   2320     1
   2305   2322     1
   2306   2309     1
   2306   2307     1
   2306   2308     1
   2306   2322     1
   2307   2310     1
   2307   2311     1
   2308   2310     1
   2308   2311     1
   2311   2320     1
   2312   2317     1
   2312   2315     1
   2312   2316     1
   2312   2322     1
   2313   2317     1
   2313   2315     1
   2313   2316     1
   2313   2322     1
   2314   2321     1
   2314   2322     1
   2315   2318     1
   2315   2319     1
   2316   2318     1
   2316   2319     1
   2318   2321     1
   2323   2329     1
   2323   2330     1
   2324   2327     1
   2324   2326     1
   2324   2328     1
   2325   2352     1
   2326   2331     1
   2326   2329     1
   2326   2330     1
   2327   2342     1
   2327   2343     1
   2327   2334     1
   2327   2336     1
   2328   2331     1
   2328   2329     1
   2328   2330     1
   2329   2332     1
   2329   2333     1
   2329   2352     1
   2330   2332     1
   2330   2333     1
   2330   2352     1
   2331   2345     1
   2331   2346     1
   2331   2337     1
   2331   2338     1
   2332   2334     1
   2332   2336     1
   2333   2342     1
   2333   2343     1
   2334   2352     1
   2334   2339     1
   2334   2337     1
   2334   2338     1
   2335   2352     1
   2335   2350     1
   2336   2352     1
   2336   2339     1
   2336   2337     1
   2336   2338     1
   2337   2340     1
   2337   2341     1
   2338   2340     1
   2338   2341     1
   2341   2350     1
   2342   2352     1
   2342   2347     1
   2342   2345     1
   2342   2346     1
   2343   2352     1
   2343   2347     1
   2343   2345     1
   2343   2346     1
   2344   2352     1
   2344   2351     1
   2345   2348     1
   2345   2349     1
   2346   2348     1
   2346   2349     1
   2348   2351     1
   2353   2359     1
   2353   2360     1
   2354   2357     1
   2354   2356     1
   2354   2358     1
   2355   2382     1
   2356   2361     1
   2356   2359     1
   2356   2360     1
   2357   2372     1
   2357   2373     1
   2357   2364     1
   2357   2366     1
   2358   2361     1
   2358   2359     1
   2358   2360     1
   2359   2362     1
   2359   2363     1
   2359   2382     1
   2360   2362     1
   2360   2363     1
   2360   2382     1
   2361   2375     1
   2361   2376     1
   2361   2367     1
   2361   2368     1
   2362   2364     1
   2362   2366     1
   2363   2372     1
   2363   2373     1
   2364   2369     1
   2364   2367     1
   2364   2368     1
   2364   2382     1
   2365   2380     1
   2365   2382     1
   2366   2369     1
   2366   2367     1
   2366   2368     1
   2366   2382     1
   2367   2370     1
   2367   2371     1
   2368   2370     1
   2368   2371     1
   2371   2380     1
   2372   2377     1
   2372   2375     1
   2372   2376     1
   2372   2382     1
   2373   2377     1
   2373   2375     1
   2373   2376     1
   2373   2382     1
   2374   2381     1
   2374   2382     1
   2375   2378     1
   2375   2379     1
   2376   2378     1
   2376   2379     1
   2378   2381     1
   2383   2389     1
   2383   2390     1
   2384   2387     1
   2384   2386     1
   2384   2388     1
   2385   2412     1
   2386   2391     1
   2386   2389     1
   2386   2390     1
   2387   2402     1
   2387   2403     1
   2387   2394     1
   2387   2396     1
   2388   2391     1
   2388   2389     1
   2388   2390     1
   2389   2392     1
   2389   2393     1
   2389   2412     1
   2390   2392     1
   2390   2393     1
   2390   2412     1
   2391   2405     1
   2391   2406     1
   2391   2397     1
   2391   2398     1
   2392   2394     1
   2392   2396     1
   2393   2402     1
   2393   2403     1
   2394   2412     1
   2394   2399     1
   2394   2397     1
   2394   2398     1
   2395   2412     1
   2395   2410     1
   2396   2412     1
   2396   2399     1
   2396   2397     1
   2396   2398     1
   2397   2400     1
   2397   2401     1
   2398   2400     1
   2398   2401     1
   2401   2410     1
   2402   2412     1
   2402   2407     1
   2402   2405     1
   2402   2406     1
   2403   2412     1
   2403   2407     1
   2403   2405     1
   2403   2406     1
   2404   2412     1
   2404   2411     1
   2405   2408     1
   2405   2409     1
   2406   2408     1
   2406   2409     1
   2408   2411     1
   2413   2419     1
   2413   2420     1
   2414   2417     1
   2414   2416     1
   2414   2418     1
   2415   2442     1
   2416   2421     1
   2416   2419     1
   2416   2420     1
   2417   2432     1
   2417   2433     1
   2417   2424     1
   2417   2426     1
   2418   2421     1
   2418   2419     1
   2418   2420     1
   2419   2422     1
   2419   2423     1
   2419   2442     1
   2420   2422     1
   2420   2423     1
   2420   2442     1
   2421   2435     1
   2421   2436     1
   2421   2427     1
   2421   2428     1
   2422   2424     1
   2422   2426     1
   2423   2432     1
   2423   2433     1
   2424   2429     1
   2424   2427     1
   2424   2428     1
   2424   2442     1
   2425   2440     1
   2425   2442     1
   2426   2429     1
   2426   2427     1
   2426   2428     1
   2426   2442     1
   2427   2430     1
   2427   2431     1
   2428   2430     1
   2428   2431     1
   2431   2440     1
   2432   2437     1
   2432   2435     1
   2432   2436     1
   2432   2442     1
   2433   2437     1
   2433   2435     1
   2433   2436     1
   2433   2442     1
   2434   2441     1
   2434   2442     1
   2435   2438     1
   2435   2439     1
   2436   2438     1
   2436   2439     1
   2438   2441     1
   2443   2449     1
   2443   2450     1
   2444   2447     1
   2444   2446     1
   2444   2448     1
   2445   2472     1
   2446   2451     1
   2446   2449     1
   2446   2450     1
   2447   2462     1
   2447   2463     1
   2447   2454     1
   2447   2456     1
   2448   2451     1
   2448   2449     1
   2448   2450     1
   2449   2452     1
   2449   2453     1
   2449   2472     1
   2450   2452     1
   2450   2453     1
   2450   2472     1
   2451   2465     1
   2451   2466     1
   2451   2457     1
   2451   2458     1
   2452   2454     1
   2452   2456     1
   2453   2462     1
   2453   2463     1
   2454   2472     1
   2454   2459     1
   2454   2457     1
   2454   2458     1
   2455   2472     1
   2455   2470     1
   2456   2472     1
   2456   2459     1
   2456   2457     1
   2456   2458     1
   2457   2460     1
   2457   2461     1
   2458   2460     1
   2458   2461     1
   2461   2470     1
   2462   2472     1
   2462   2467     1
   2462   2465     1
   2462   2466     1
   2463   2472     1
   2463   2467     1
   2463   2465     1
   2463   2466     1
   2464   2472     1
   2464   2471     1
   2465   2468     1
   2465   2469     1
   2466   2468     1
   2466   2469     1
   2468   2471     1
   2473   2479     1
   2473   2480     1
   2474   2477     1
   2474   2476     1
   2474   2478     1
   2475   2502     1
   2476   2481     1
   2476   2479     1
   2476   2480     1
   2477   2492     1
   2477   2493     1
   2477   2484     1
   2477   2486     1
   2478   2481     1
   2478   2479     1
   2478   2480     1
   2479   2482     1
   2479   2483     1
   2479   2502     1
   2480   2482     1
   2480   2483     1
   2480   2502     1
   2481   2495     1
   2481   2496     1
   2481   2487     1
   2481   2488     1
   2482   2484     1
   2482   2486     1
   2483   2492     1
   2483   2493     1
   2484   2489     1
   2484   2487     1
   2484   2488     1
   2484   2502     1
   2485   2500     1
   2485   2502     1
   2486   2489     1
   2486   2487     1
   2486   2488     1
   2486   2502     1
   2487   2490     1
   2487   2491     1
   2488   2490     1
   2488   2491     1
   2491   2500     1
   2492   2497     1
   2492   2495     1
   2492   2496     1
   2492   2502     1
   2493   2497     1
   2493   2495     1
   2493   2496     1
   2493   2502     1
   2494   2501     1
   2494   2502     1
   2495   2498     1
   2495   2499     1
   2496   2498     1
   2496   2499     1
   2498   2501     1
   2503   2509     1
   2503   2510     1
   2504   2507     1
   2504   2506     1
   2504   2508     1
   2505   2532     1
   2506   2511     1
   2506   2509     1
   2506   2510     1
   2507   2522     1
   2507   2523     1
   2507   2514     1
   2507   2516     1
   2508   2511     1
   2508   2509     1
   2508   2510     1
   2509   2512     1
   2509   2513     1
   2509   2532     1
   2510   2512     1
   2510   2513     1
   2510   2532     1
   2511   2525     1
   2511   2526     1
   2511   2517     1
   2511   2518     1
   2512   2514     1
   2512   2516     1
   2513   2522     1
   2513   2523     1
   2514   2532     1
   2514   2519     1
   2514   2517     1
   2514   2518     1
   2515   2532     1
   2515   2530     1
   2516   2532     1
   2516   2519     1
   2516   2517     1
   2516   2518     1
   2517   2520     1
   2517   2521     1
   2518   2520     1
   2518   2521     1
   2521   2530     1
   2522   2532     1
   2522   2527     1
   2522   2525     1
   2522   2526     1
   2523   2532     1
   2523   2527     1
   2523   2525     1
   2523   2526     1
   2524   2532     1
   2524   2531     1
   2525   2528     1
   2525   2529     1
   2526   2528     1
   2526   2529     1
   2528   2531     1
   2533   2539     1
   2533   2540     1
   2534   2537     1
   2534   2536     1
   2534   2538     1
   2535   2562     1
   2536   2541     1
   2536   2539     1
   2536   2540     1
   2537   2552     1
   2537   2553     1
   2537   2544     1
   2537   2546     1
   2538   2541     1
   2538   2539     1
   2538   2540     1
   2539   2542     1
   2539   2543     1
   2539   2562     1
   2540   2542     1
   2540   2543     1
   2540   2562     1
   2541   2555     1
   2541   2556     1
   2541   2547     1
   2541   2548     1
   2542   2544     1
   2542   2546     1
   2543   2552     1
   2543   2553     1
   2544   2549     1
   2544   2547     1
   2544   2548     1
   2544   2562     1
   2545   2560     1
   2545   2562     1
   2546   2549     1
   2546   2547     1
   2546   2548     1
   2546   2562     1
   2547   2550     1
   2547   2551     1
   2548   2550     1
   2548   2551     1
   2551   2560     1
   2552   2557     1
   2552   2555     1
   2552   2556     1
   2552   2562     1
   2553   2557     1
   2553   2555     1
   2553   2556     1
   2553   2562     1
   2554   2561     1
   2554   2562     1
   2555   2558     1
   2555   2559     1
   2556   2558     1
   2556   2559     1
   2558   2561     1
   2563   2569     1
   2563   2570     1
   2564   2567     1
   2564   2566     1
   2564   2568     1
   2565   2592     1
   2566   2571     1
   2566   2569     1
   2566   2570     1
   2567   2582     1
   2567   2583     1
   2567   2574     1
   2567   2576     1
   2568   2571     1
   2568   2569     1
   2568   2570     1
   2569   2572     1
   2569   2573     1
   2569   2592     1
   2570   2572     1
   2570   2573     1
   2570   2592     1
   2571   2585     1
   2571   2586     1
   2571   2577     1
   2571   2578     1
   2572   2574     1
   2572   2576     1
   2573   2582     1
   2573   2583     1
   2574   2592     1
   2574   2579     1
   2574   2577     1
   2574   2578     1
   2575   2592     1
   2575   2590     1
   2576   2592     1
   2576   2579     1
   2576   2577     1
   2576   2578     1
   2577   2580     1
   2577   2581     1
   2578   2580     1
   2578   2581     1
   2581   2590     1
   2582   2592     1
   2582   2587     1
   2582   2585     1
   2582   2586     1
   2583   2592     1
   2583   2587     1
   2583   2585     1
   2583   2586     1
   2584   2592     1
   2584   2591     1
   2585   2588     1
   2585   2589     1
   2586   2588     1
   2586   2589     1
   2588   2591     1
   2593   2599     1
   2593   2600     1
   2594   2597     1
   2594   2596     1
   2594   2598     1
   2595   2622     1
   2596   2601     1
   2596   2599     1
   2596   2600     1
   2597   2612     1
   2597   2613     1
   2597   2604     1
   2597   2606     1
   2598   2601     1
   2598   2599     1
   2598   2600     1
   2599   2602     1
   2599   2603     1
   2599   2622     1
   2600   2602     1
   2600   2603     1
   2600   2622     1
   2601   2615     1
   2601   2616     1
   2601   2607     1
   2601   2608     1
   2602   2604     1
   2602   2606     1
   2603   2612     1
   2603   2613     1
   2604   2609     1
   2604   2607     1
   2604   2608     1
   2604   2622     1
   2605   2620     1
   2605   2622     1
   2606   2609     1
   2606   2607     1
   2606   2608     1
   2606   2622     1
   2607   2610     1
   2607   2611     1
   2608   2610     1
   2608   2611     1
   2611   2620     1
   2612   2617     1
   2612   2615     1
   2612   2616     1
   2612   2622     1
   2613   2617     1
   2613   2615     1
   2613   2616     1
   2613   2622     1
   2614   2621     1
   2614   2622     1
   2615   2618     1
   2615   2619     1
   2616   2618     1
   2616   2619     1
   2618   2621     1
   2623   2629     1
   2623   2630     1
   2624   2627     1
   2624   2626     1
   2624   2628     1
   2625   2652     1
   2626   2631     1
   2626   2629     1
   2626   2630     1
   2627   2642     1
   2627   2643     1
   2627   2634     1
   2627   2636     1
   2628   2631     1
   2628   2629     1
   2628   2630     1
   2629   2632     1
   2629   2633     1
   2629   2652     1
   2630   2632     1
   2630   2633     1
   2630   2652     1
   2631   2645     1
   2631   2646     1
   2631   2637     1
   2631   2638     1
   2632   2634     1
   2632   2636     1
   2633   2642     1
   2633   2643     1
   2634   2652     1
   2634   2639     1
   2634   2637     1
   2634   2638     1
   2635   2652     1
   2635   2650     1
   2636   2652     1
   2636   2639     1
   2636   2637     1
   2636   2638     1
   2637   2640     1
   2637   2641     1
   2638   2640     1
   2638   2641     1
   2641   2650     1
   2642   2652     1
   2642   2647     1
   2642   2645     1
   2642   2646     1
   2643   2652     1
   2643   2647     1
   2643   2645     1
   2643   2646     1
   2644   2652     1
   2644   2651     1
   2645   2648     1
   2645   2649     1
   2646   2648     1
   2646   2649     1
   2648   2651     1
   2653   2659     1
   2653   2660     1
   2654   2657     1
   2654   2656     1
   2654   2658     1
   2655   2682     1
   2656   2661     1
   2656   2659     1
   2656   2660     1
   2657   2672     1
   2657   2673     1
   2657   2664     1
   2657   2666     1
   2658   2661     1
   2658   2659     1
   2658   2660     1
   2659   2662     1
   2659   2663     1
   2659   2682     1
   2660   2662     1
   2660   2663     1
   2660   2682     1
   2661   2675     1
   2661   2676     1
   2661   2667     1
   2661   2668     1
   2662   2664     1
   2662   2666     1
   2663   2672     1
   2663   2673     1
   2664   2669     1
   2664   2667     1
   2664   2668     1
   2664   2682     1
   2665   2680     1
   2665   2682     1
   2666   2669     1
   2666   2667     1
   2666   2668     1
   2666   2682     1
   2667   2670     1
   2667   2671     1
   2668   2670     1
   2668   2671     1
   2671   2680     1
   2672   2677     1
   2672   2675     1
   2672   2676     1
   2672   2682     1
   2673   2677     1
   2673   2675     1
   2673   2676     1
   2673   2682     1
   2674   2681     1
   2674   2682     1
   2675   2678     1
   2675   2679     1
   2676   2678     1
   2676   2679     1
   2678   2681     1
   2683   2689     1
   2683   2690     1
   2684   2687     1
   2684   2686     1
   2684   2688     1
   2685   2712     1
   2686   2691     1
   2686   2689     1
   2686   2690     1
   2687   2702     1
   2687   2703     1
   2687   2694     1
   2687   2696     1
   2688   2691     1
   2688   2689     1
   2688   2690     1
   2689   2692     1
   2689   2693     1
   2689   2712     1
   2690   2692     1
   2690   2693     1
   2690   2712     1
   2691   2705     1
   2691   2706     1
   2691   2697     1
   2691   2698     1
   2692   2694     1
   2692   2696     1
   2693   2702     1
   2693   2703     1
   2694   2712     1
   2694   2699     1
   2694   2697     1
   2694   2698     1
   2695   2712     1
   2695   2710     1
   2696   2712     1
   2696   2699     1
   2696   2697     1
   2696   2698     1
   2697   2700     1
   2697   2701     1
   2698   2700     1
   2698   2701     1
   2701   2710     1
   2702   2712     1
   2702   2707     1
   2702   2705     1
   2702   2706     1
   2703   2712     1
   2703   2707     1
   2703   2705     1
   2703   2706     1
   2704   2712     1
   2704   2711     1
   2705   2708     1
   2705   2709     1
   2706   2708     1
   2706   2709     1
   2708   2711     1
   2713   2719     1
   2713   2720     1
   2714   2717     1
   2714   2716     1
   2714   2718     1
   2715   2742     1
   2716   2721     1
   2716   2719     1
   2716   2720     1
   2717   2732     1
   2717   2733     1
   2717   2724     1
   2717   2726     1
   2718   2721     1
   2718   2719     1
   2718   2720     1
   2719   2722     1
   2719   2723     1
   2719   2742     1
   2720   2722     1
   2720   2723     1
   2720   2742     1
   2721   2735     1
   2721   2736     1
   2721   2727     1
   2721   2728     1
   2722   2724     1
   2722   2726     1
   2723   2732     1
   2723   2733     1
   2724   2729     1
   2724   2727     1
   2724   2728     1
   2724   2742     1
   2725   2740     1
   2725   2742     1
   2726   2729     1
   2726   2727     1
   2726   2728     1
   2726   2742     1
   2727   2730     1
   2727   2731     1
   2728   2730     1
   2728   2731     1
   2731   2740     1
   2732   2737     1
   2732   2735     1
   2732   2736     1
   2732   2742     1
   2733   2737     1
   2733   2735     1
   2733   2736     1
   2733   2742     1
   2734   2741     1
   2734   2742     1
   2735   2738     1
   2735   2739     1
   2736   2738     1
   2736   2739     1
   2738   2741     1
   2743   2749     1
   2743   2750     1
   2744   2747     1
   2744   2746     1
   2744   2748     1
   2745   2772     1
   2746   2751     1
   2746   2749     1
   2746   2750     1
   2747   2762     1
   2747   2763     1
   2747   2754     1
   2747   2756     1
   2748   2751     1
   2748   2749     1
   2748   2750     1
   2749   2752     1
   2749   2753     1
   2749   2772     1
   2750   2752     1
   2750   2753     1
   2750   2772     1
   2751   2765     1
   2751   2766     1
   2751   2757     1
   2751   2758     1
   2752   2754     1
   2752   2756     1
   2753   2762     1
   2753   2763     1
   2754   2772     1
   2754   2759     1
   2754   2757     1
   2754   2758     1
   2755   2772     1
   2755   2770     1
   2756   2772     1
   2756   2759     1
   2756   2757     1
   2756   2758     1
   2757   2760     1
   2757   2761     1
   2758   2760     1
   2758   2761     1
   2761   2770     1
   2762   2772     1
   2762   2767     1
   2762   2765     1
   2762   2766     1
   2763   2772     1
   2763   2767     1
   2763   2765     1
   2763   2766     1
   2764   2772     1
   2764   2771     1
   2765   2768     1
   2765   2769     1
   2766   2768     1
   2766   2769     1
   2768   2771     1
   2773   2779     1
   2773   2780     1
   2774   2777     1
   2774   2776     1
   2774   2778     1
   2775   2802     1
   2776   2781     1
   2776   2779     1
   2776   2780     1
   2777   2792     1
   2777   2793     1
   2777   2784     1
   2777   2786     1
   2778   2781     1
   2778   2779     1
   2778   2780     1
   2779   2782     1
   2779   2783     1
   2779   2802     1
   2780   2782     1
   2780   2783     1
   2780   2802     1
   2781   2795     1
   2781   2796     1
   2781   2787     1
   2781   2788     1
   2782   2784     1
   2782   2786     1
   2783   2792     1
   2783   2793     1
   2784   2789     1
   2784   2787     1
   2784   2788     1
   2784   2802     1
   2785   2800     1
   2785   2802     1
   2786   2789     1
   2786   2787     1
   2786   2788     1
   2786   2802     1
   2787   2790     1
   2787   2791     1
   2788   2790     1
   2788   2791     1
   2791   2800     1
   2792   2797     1
   2792   2795     1
   2792   2796     1
   2792   2802     1
   2793   2797     1
   2793   2795     1
   2793   2796     1
   2793   2802     1
   2794   2801     1
   2794   2802     1
   2795   2798     1
   2795   2799     1
   2796   2798     1
   2796   2799     1
   2798   2801     1
   2803   2809     1
   2803   2810     1
   2804   2807     1
   2804   2806     1
   2804   2808     1
   2805   2832     1
   2806   2811     1
   2806   2809     1
   2806   2810     1
   2807   2822     1
   2807   2823     1
   2807   2814     1
   2807   2816     1
   2808   2811     1
   2808   2809     1
   2808   2810     1
   2809   2812     1
   2809   2813     1
   2809   2832     1
   2810   2812     1
   2810   2813     1
   2810   2832     1
   2811   2825     1
   2811   2826     1
   2811   2817     1
   2811   2818     1
   2812   2814     1
   2812   2816     1
   2813   2822     1
   2813   2823     1
   2814   2832     1
   2814   2819     1
   2814   2817     1
   2814   2818     1
   2815   2832     1
   2815   2830     1
   2816   2832     1
   2816   2819     1
   2816   2817     1
   2816   2818     1
   2817   2820     1
   2817   2821     1
   2818   2820     1
   2818   2821     1
   2821   2830     1
   2822   2832     1
   2822   2827     1
   2822   2825     1
   2822   2826     1
   2823   2832     1
   2823   2827     1
   2823   2825     1
   2823   2826     1
   2824   2832     1
   2824   2831     1
   2825   2828     1
   2825   2829     1
   2826   2828     1
   2826   2829     1
   2828   2831     1
   2833   2839     1
   2833   2840     1
   2834   2837     1
   2834   2836     1
   2834   2838     1
   2835   2862     1
   2836   2841     1
   2836   2839     1
   2836   2840     1
   2837   2852     1
   2837   2853     1
   2837   2844     1
   2837   2846     1
   2838   2841     1
   2838   2839     1
   2838   2840     1
   2839   2842     1
   2839   2843     1
   2839   2862     1
   2840   2842     1
   2840   2843     1
   2840   2862     1
   2841   2855     1
   2841   2856     1
   2841   2847     1
   2841   2848     1
   2842   2844     1
   2842   2846     1
   2843   2852     1
   2843   2853     1
   2844   2849     1
   2844   2847     1
   2844   2848     1
   2844   2862     1
   2845   2860     1
   2845   2862     1
   2846   2849     1
   2846   2847     1
   2846   2848     1
   2846   2862     1
   2847   2850     1
   2847   2851     1
   2848   2850     1
   2848   2851     1
   2851   2860     1
   2852   2857     1
   2852   2855     1
   2852   2856     1
   2852   2862     1
   2853   2857     1
   2853   2855     1
   2853   2856     1
   2853   2862     1
   2854   2861     1
   2854   2862     1
   2855   2858     1
   2855   2859     1
   2856   2858     1
   2856   2859     1
   2858   2861     1
   2863   2869     1
   2863   2870     1
   2864   2867     1
   2864   2866     1
   2864   2868     1
   2865   2892     1
   2866   2871     1
   2866   2869     1
   2866   2870     1
   2867   2882     1
   2867   2883     1
   2867   2874     1
   2867   2876     1
   2868   2871     1
   2868   2869     1
   2868   2870     1
   2869   2872     1
   2869   2873     1
   2869   2892     1
   2870   2872     1
   2870   2873     1
   2870   2892     1
   2871   2885     1
   2871   2886     1
   2871   2877     1
   2871   2878     1
   2872   2874     1
   2872   2876     1
   2873   2882     1
   2873   2883     1
   2874   2892     1
   2874   2879     1
   2874   2877     1
   2874   2878     1
   2875   2892     1
   2875   2890     1
   2876   2892     1
   2876   2879     1
   2876   2877     1
   2876   2878     1
   2877   2880     1
   2877   2881     1
   2878   2880     1
   2878   2881     1
   2881   2890     1
   2882   2892     1
   2882   2887     1
   2882   2885     1
   2882   2886     1
   2883   2892     1
   2883   2887     1
   2883   2885     1
   2883   2886     1
   2884   2892     1
   2884   2891     1
   2885   2888     1
   2885   2889     1
   2886   2888     1
   2886   2889     1
   2888   2891     1
   2893   2899     1
   2893   2900     1
   2894   2897     1
   2894   2896     1
   2894   2898     1
   2895   2922     1
   2896   2901     1
   2896   2899     1
   2896   2900     1
   2897   2912     1
   2897   2913     1
   2897   2904     1
   2897   2906     1
   2898   2901     1
   2898   2899     1
   2898   2900     1
   2899   2902     1
   2899   2903     1
   2899   2922     1
   2900   2902     1
   2900   2903     1
   2900   2922     1
   2901   2915     1
   2901   2916     1
   2901   2907     1
   2901   2908     1
   2902   2904     1
   2902   2906     1
   2903   2912     1
   2903   2913     1
   2904   2909     1
   2904   2907     1
   2904   2908     1
   2904   2922     1
   2905   2920     1
   2905   2922     1
   2906   2909     1
   2906   2907     1
   2906   2908     1
   2906   2922     1
   2907   2910     1
   2907   2911     1
   2908   2910     1
   2908   2911     1
   2911   2920     1
   2912   2917     1
   2912   2915     1
   2912   2916     1
   2912   2922     1
   2913   2917     1
   2913   2915     1
   2913   2916     1
   2913   2922     1
   2914   2921     1
   2914   2922     1
   2915   2918     1
   2915   2919     1
   2916   2918     1
   2916   2919     1
   2918   2921     1
   2923   2929     1
   2923   2930     1
   2924   2927     1
   2924   2926     1
   2924   2928     1
   2925   2952     1
   2926   2931     1
   2926   2929     1
   2926   2930     1
   2927   2942     1
   2927   2943     1
   2927   2934     1
   2927   2936     1
   2928   2931     1
   2928   2929     1
   2928   2930     1
   2929   2932     1
   2929   2933     1
   2929   2952     1
   2930   2932     1
   2930   2933     1
   2930   2952     1
   2931   2945     1
   2931   2946     1
   2931   2937     1
   2931   2938     1
   2932   2934     1
   2932   2936     1
   2933   2942     1
   2933   2943     1
   2934   2952     1
   2934   2939     1
   2934   2937     1
   2934   2938     1
   2935   2952     1
   2935   2950     1
   2936   2952     1
   2936   2939     1
   2936   2937     1
   2936   2938     1
   2937   2940     1
   2937   2941     1
   2938   2940     1
   2938   2941     1
   2941   2950     1
   2942   2952     1
   2942   2947     1
   2942   2945     1
   2942   2946     1
   2943   2952     1
   2943   2947     1
   2943   2945     1
   2943   2946     1
   2944   2952     1
   2944   2951     1
   2945   2948     1
   2945   2949     1
   2946   2948     1
   2946   2949     1
   2948   2951     1
   2953   2959     1
   2953   2960     1
   2954   2957     1
   2954   2956     1
   2954   2958     1
   2955   2982     1
   2956   2961     1
   2956   2959     1
   2956   2960     1
   2957   2972     1
   2957   2973     1
   2957   2964     1
   2957   2966     1
   2958   2961     1
   2958   2959     1
   2958   2960     1
   2959   2962     1
   2959   2963     1
   2959   2982     1
   2960   2962     1
   2960   2963     1
   2960   2982     1
   2961   2975     1
   2961   2976     1
   2961   2967     1
   2961   2968     1
   2962   2964     1
   2962   2966     1
   2963   2972     1
   2963   2973     1
   2964   2969     1
   2964   2967     1
   2964   2968     1
   2964   2982     1
   2965   2980     1
   2965   2982     1
   2966   2969     1
   2966   2967     1
   2966   2968     1
   2966   2982     1
   2967   2970     1
   2967   2971     1
   2968   2970     1
   2968   2971     1
   2971   2980     1
   2972   2977     1
   2972   2975     1
   2972   2976     1
   2972   2982     1
   2973   2977     1
   2973   2975     1
   2973   2976     1
   2973   2982     1
   2974   2981     1
   2974   2982     1
   2975   2978     1
   2975   2979     1
   2976   2978     1
   2976   2979     1
   2978   2981     1
   2983   2989     1
   2983   2990     1
   2984   2987     1
   2984   2986     1
   2984   2988     1
   2985   3012     1
   2986   2991     1
   2986   2989     1
   2986   2990     1
   2987   3002     1
   2987   3003     1
   2987   2994     1
   2987   2996     1
   2988   2991     1
   2988   2989     1
   2988   2990     1
   2989   2992     1
   2989   2993     1
   2989   3012     1
   2990   2992     1
   2990   2993     1
   2990   3012     1
   2991   3005     1
   2991   3006     1
   2991   2997     1
   2991   2998     1
   2992   2994     1
   2992   2996     1
   2993   3002     1
   2993   3003     1
   2994   3012     1
   2994   2999     1
   2994   2997     1
   2994   2998     1
   2995   3012     1
   2995   3010     1
   2996   3012     1
   2996   2999     1
   2996   2997     1
   2996   2998     1
   2997   3000     1
   2997   3001     1
   2998   3000     1
   2998   3001     1
   3001   3010     1
   3002   3012     1
   3002   3007     1
   3002   3005     1
   3002   3006     1
   3003   3012     1
   3003   3007     1
   3003   3005     1
   3003   3006     1
   3004   3012     1
   3004   3011     1
   3005   3008     1
   3005   3009     1
   3006   3008     1
   3006   3009     1
   3008   3011     1
   3013   3019     1
   3013   3020     1
   3014   3017     1
   3014   3016     1
   3014   3018     1
   3015   3042     1
   3016   3021     1
   3016   3019     1
   3016   3020     1
   3017   3032     1
   3017   3033     1
   3017   3024     1
   3017   3026     1
   3018   3021     1
   3018   3019     1
   3018   3020     1
   3019   3022     1
   3019   3023     1
   3019   3042     1
   3020   3022     1
   3020   3023     1
   3020   3042     1
   3021   3035     1
   3021   3036     1
   3021   3027     1
   3021   3028     1
   3022   3024     1
   3022   3026     1
   3023   3032     1
   3023   3033     1
   3024   3029     1
   3024   3027     1
   3024   3028     1
   3024   3042     1
   3025   3040     1
   3025   3042     1
   3026   3029     1
   3026   3027     1
   3026   3028     1
   3026   3042     1
   3027   3030     1
   3027   3031     1
   3028   3030     1
   3028   3031     1
   3031   3040     1
   3032   3037     1
   3032   3035     1
   3032   3036     1
   3032   3042     1
   3033   3037     1
   3033   3035     1
   3033   3036     1
   3033   3042     1
   3034   3041     1
   3034   3042     1
   3035   3038     1
   3035   3039     1
   3036   3038     1
   3036   3039     1
   3038   3041     1
   3043   3049     1
   3043   3050     1
   3044   3047     1
   3044   3046     1
   3044   3048     1
   3045   3072     1
   3046   3051     1
   3046   3049     1
   3046   3050     1
   3047   3062     1
   3047   3063     1
   3047   3054     1
   3047   3056     1
   3048   3051     1
   3048   3049     1
   3048   3050     1
   3049   3052     1
   3049   3053     1
   3049   3072     1
   3050   3052     1
   3050   3053     1
   3050   3072     1
   3051   3065     1
   3051   3066     1
   3051   3057     1
   3051   3058     1
   3052   3054     1
   3052   3056     1
   3053   3062     1
   3053   3063     1
   3054   3072     1
   3054   3059     1
   3054   3057     1
   3054   3058     1
   3055   3072     1
   3055   3070     1
   3056   3072     1
   3056   3059     1
   3056   3057     1
   3056   3058     1
   3057   3060     1
   3057   3061     1
   3058   3060     1
   3058   3061     1
   3061   3070     1
   3062   3072     1
   3062   3067     1
   3062   3065     1
   3062   3066     1
   3063   3072     1
   3063   3067     1
   3063   3065     1
   3063   3066     1
   3064   3072     1
   3064   3071     1
   3065   3068     1
   3065   3069     1
   3066   3068     1
   3066   3069     1
   3068   3071     1
   3073   3079     1
   3073   3080     1
   3074   3077     1
   3074   3076     1
   3074   3078     1
   3075   3102     1
   3076   3081     1
   3076   3079     1
   3076   3080     1
   3077   3092     1
   3077   3093     1
   3077   3084     1
   3077   3086     1
   3078   3081     1
   3078   3079     1
   3078   3080     1
   3079   3082     1
   3079   3083     1
   3079   3102     1
   3080   3082     1
   3080   3083     1
   3080   3102     1
   3081   3095     1
   3081   3096     1
   3081   3087     1
   3081   3088     1
   3082   3084     1
   3082   3086     1
   3083   3092     1
   3083   3093     1
   3084   3089     1
   3084   3087     1
   3084   3088     1
   3084   3102     1
   3085   3100     1
   3085   3102     1
   3086   3089     1
   3086   3087     1
   3086   3088     1
   3086   3102     1
   3087   3090     1
   3087   3091     1
   3088   3090     1
   3088   3091     1
   3091   3100     1
   3092   3097     1
   3092   3095     1
   3092   3096     1
   3092   3102     1
   3093   3097     1
   3093   3095     1
   3093   3096     1
   3093   3102     1
   3094   3101     1
   3094   3102     1
   3095   3098     1
   3095   3099     1
   3096   3098     1
   3096   3099     1
   3098   3101     1
   3103   3109     1
   3103   3110     1
   3104   3107     1
   3104   3106     1
   3104   3108     1
   3105   3132     1
   3106   3111     1
   3106   3109     1
   3106   3110     1
   3107   3122     1
   3107   3123     1
   3107   3114     1
   3107   3116     1
   3108   3111     1
   3108   3109     1
   3108   3110     1
   3109   3112     1
   3109   3113     1
   3109   3132     1
   3110   3112     1
   3110   3113     1
   3110   3132     1
   3111   3125     1
   3111   3126     1
   3111   3117     1
   3111   3118     1
   3112   3114     1
   3112   3116     1
   3113   3122     1
   3113   3123     1
   3114   3132     1
   3114   3119     1
   3114   3117     1
   3114   3118     1
   3115   3132     1
   3115   3130     1
   3116   3132     1
   3116   3119     1
   3116   3117     1
   3116   3118     1
   3117   3120     1
   3117   3121     1
   3118   3120     1
   3118   3121     1
   3121   3130     1
   3122   3132     1
   3122   3127     1
   3122   3125     1
   3122   3126     1
   3123   3132     1
   3123   3127     1
   3123   3125     1
   3123   3126     1
   3124   3132     1
   3124   3131     1
   3125   3128     1
   3125   3129     1
   3126   3128     1
   3126   3129     1
   3128   3131     1
   3133   3139     1
   3133   3140     1
   3134   3137     1
   3134   3136     1
   3134   3138     1
   3135   3162     1
   3136   3141     1
   3136   3139     1
   3136   3140     1
   3137   3152     1
   3137   3153     1
   3137   3144     1
   3137   3146     1
   3138   3141     1
   3138   3139     1
   3138   3140     1
   3139   3142     1
   3139   3143     1
   3139   3162     1
   3140   3142     1
   3140   3143     1
   3140   3162     1
   3141   3155     1
   3141   3156     1
   3141   3147     1
   3141   3148     1
   3142   3144     1
   3142   3146     1
   3143   3152     1
   3143   3153     1
   3144   3149     1
   3144   3147     1
   3144   3148     1
   3144   3162     1
   3145   3160     1
   3145   3162     1
   3146   3149     1
   3146   3147     1
   3146   3148     1
   3146   3162     1
   3147   3150     1
   3147   3151     1
   3148   3150     1
   3148   3151     1
   3151   3160     1
   3152   3157     1
   3152   3155     1
   3152   3156     1
   3152   3162     1
   3153   3157     1
   3153   3155     1
   3153   3156     1
   3153   3162     1
   3154   3161     1
   3154   3162     1
   3155   3158     1
   3155   3159     1
   3156   3158     1
   3156   3159     1
   3158   3161     1
   3163   3169     1
   3163   3170     1
   3164   3167     1
   3164   3166     1
   3164   3168     1
   3165   3192     1
   3166   3171     1
   3166   3169     1
   3166   3170     1
   3167   3182     1
   3167   3183     1
   3167   3174     1
   3167   3176     1
   3168   3171     1
   3168   3169     1
   3168   3170     1
   3169   3172     1
   3169   3173     1
   3169   3192     1
   3170   3172     1
   3170   3173     1
   3170   3192     1
   3171   3185     1
   3171   3186     1
   3171   3177     1
   3171   3178     1
   3172   3174     1
   3172   3176     1
   3173   3182     1
   3173   3183     1
   3174   3192     1
   3174   3179     1
   3174   3177     1
   3174   3178     1
   3175   3192     1
   3175   3190     1
   3176   3192     1
   3176   3179     1
   3176   3177     1
   3176   3178     1
   3177   3180     1
   3177   3181     1
   3178   3180     1
   3178   3181     1
   3181   3190     1
   3182   3192     1
   3182   3187     1
   3182   3185     1
   3182   3186     1
   3183   3192     1
   3183   3187     1
   3183   3185     1
   3183   3186     1
   3184   3192     1
   3184   3191     1
   3185   3188     1
   3185   3189     1
   3186   3188     1
   3186   3189     1
   3188   3191     1
   3193   3199     1
   3193   3200     1
   3194   3197     1
   3194   3196     1
   3194   3198     1
   3195   3222     1
   3196   3201     1
   3196   3199     1
   3196   3200     1
   3197   3212     1
   3197   3213     1
   3197   3204     1
   3197   3206     1
   3198   3201     1
   3198   3199     1
   3198   3200     1
   3199   3202     1
   3199   3203     1
   3199   3222     1
   3200   3202     1
   3200   3203     1
   3200   3222     1
   3201   3215     1
   3201   3216     1
   3201   3207     1
   3201   3208     1
   3202   3204     1
   3202   3206     1
   3203   3212     1
   3203   3213     1
   3204   3209     1
   3204   3207     1
   3204   3208     1
   3204   3222     1
   3205   3220     1
   3205   3222     1
   3206   3209     1
   3206   3207     1
   3206   3208     1
   3206   3222     1
   3207   3210     1
   3207   3211     1
   3208   3210     1
   3208   3211     1
   3211   3220     1
   3212   3217     1
   3212   3215     1
   3212   3216     1
   3212   3222     1
   3213   3217     1
   3213   3215     1
   3213   3216     1
   3213   3222     1
   3214   3221     1
   3214   3222     1
   3215   3218     1
   3215   3219     1
   3216   3218     1
   3216   3219     1
   3218   3221     1
   3223   3229     1
   3223   3230     1
   3224   3227     1
   3224   3226     1
   3224   3228     1
   3225   3252     1
   3226   3231     1
   3226   3229     1
   3226   3230     1
   3227   3242     1
   3227   3243     1
   3227   3234     1
   3227   3236     1
   3228   3231     1
   3228   3229     1
   3228   3230     1
   3229   3232     1
   3229   3233     1
   3229   3252     1
   3230   3232     1
   3230   3233     1
   3230   3252     1
   3231   3245     1
   3231   3246     1
   3231   3237     1
   3231   3238     1
   3232   3234     1
   3232   3236     1
   3233   3242     1
   3233   3243     1
   3234   3252     1
   3234   3239     1
   3234   3237     1
   3234   3238     1
   3235   3252     1
   3235   3250     1
   3236   3252     1
   3236   3239     1
   3236   3237     1
   3236   3238     1
   3237   3240     1
   3237   3241     1
   3238   3240     1
   3238   3241     1
   3241   3250     1
   3242   3252     1
   3242   3247     1
   3242   3245     1
   3242   3246     1
   3243   3252     1
   3243   3247     1
   3243   3245     1
   3243   3246     1
   3244   3252     1
   3244   3251     1
   3245   3248     1
   3245   3249     1
   3246   3248     1
   3246   3249     1
   3248   3251     1
   3253   3259     1
   3253   3260     1
   3254   3257     1
   3254   3256     1
   3254   3258     1
   3255   3282     1
   3256   3261     1
   3256   3259     1
   3256   3260     1
   3257   3272     1
   3257   3273     1
   3257   3264     1
   3257   3266     1
   3258   3261     1
   3258   3259     1
   3258   3260     1
   3259   3262     1
   3259   3263     1
   3259   3282     1
   3260   3262     1
   3260   3263     1
   3260   3282     1
   3261   3275     1
   3261   3276     1
   3261   3267     1
   3261   3268     1
   3262   3264     1
   3262   3266     1
   3263   3272     1
   3263   3273     1
   3264   3269     1
   3264   3267     1
   3264   3268     1
   3264   3282     1
   3265   3280     1
   3265   3282     1
   3266   3269     1
   3266   3267     1
   3266   3268     1
   3266   3282     1
   3267   3270     1
   3267   3271     1
   3268   3270     1
   3268   3271     1
   3271   3280     1
   3272   3277     1
   3272   3275     1
   3272   3276     1
   3272   3282     1
   3273   3277     1
   3273   3275     1
   3273   3276     1
   3273   3282     1
   3274   3281     1
   3274   3282     1
   3275   3278     1
   3275   3279     1
   3276   3278     1
   3276   3279     1
   3278   3281     1
   3283   3289     1
   3283   3290     1
   3284   3287     1
   3284   3286     1
   3284   3288     1
   3285   3312     1
   3286   3291     1
   3286   3289     1
   3286   3290     1
   3287   3302     1
   3287   3303     1
   3287   3294     1
   3287   3296     1
   3288   3291     1
   3288   3289     1
   3288   3290     1
   3289   3292     1
   3289   3293     1
   3289   3312     1
   3290   3292     1
   3290   3293     1
   3290   3312     1
   3291   3305     1
   3291   3306     1
   3291   3297     1
   3291   3298     1
   3292   3294     1
   3292   3296     1
   3293   3302     1
   3293   3303     1
   3294   3312     1
   3294   3299     1
   3294   3297     1
   3294   3298     1
   3295   3312     1
   3295   3310     1
   3296   3312     1
   3296   3299     1
   3296   3297     1
   3296   3298     1
   3297   3300     1
   3297   3301     1
   3298   3300     1
   3298   3301     1
   3301   3310     1
   3302   3312     1
   3302   3307     1
   3302   3305     1
   3302   3306     1
   3303   3312     1
   3303   3307     1
   3303   3305     1
   3303   3306     1
   3304   3312     1
   3304   3311     1
   3305   3308     1
   3305   3309     1
   3306   3308     1
   3306   3309     1
   3308   3311     1
   3313   3319     1
   3313   3320     1
   3314   3317     1
   3314   3316     1
   3314   3318     1
   3315   3342     1
   3316   3321     1
   3316   3319     1
   3316   3320     1
   3317   3332     1
   3317   3333     1
   3317   3324     1
   3317   3326     1
   3318   3321     1
   3318   3319     1
   3318   3320     1
   3319   3322     1
   3319   3323     1
   3319   3342     1
   3320   3322     1
   3320   3323     1
   3320   3342     1
   3321   3335     1
   3321   3336     1
   3321   3327     1
   3321   3328     1
   3322   3324     1
   3322   3326     1
   3323   3332     1
   3323   3333     1
   3324   3329     1
   3324   3327     1
   3324   3328     1
   3324   3342     1
   3325   3340     1
   3325   3342     1
   3326   3329     1
   3326   3327     1
   3326   3328     1
   3326   3342     1
   3327   3330     1
   3327   3331     1
   3328   3330     1
   3328   3331     1
   3331   3340     1
   3332   3337     1
   3332   3335     1
   3332   3336     1
   3332   3342     1
   3333   3337     1
   3333   3335     1
   3333   3336     1
   3333   3342     1
   3334   3341     1
   3334   3342     1
   3335   3338     1
   3335   3339     1
   3336   3338     1
   3336   3339     1
   3338   3341     1
   3343   3349     1
   3343   3350     1
   3344   3347     1
   3344   3346     1
   3344   3348     1
   3345   3372     1
   3346   3351     1
   3346   3349     1
   3346   3350     1
   3347   3362     1
   3347   3363     1
   3347   3354     1
   3347   3356     1
   3348   3351     1
   3348   3349     1
   3348   3350     1
   3349   3352     1
   3349   3353     1
   3349   3372     1
   3350   3352     1
   3350   3353     1
   3350   3372     1
   3351   3365     1
   3351   3366     1
   3351   3357     1
   3351   3358     1
   3352   3354     1
   3352   3356     1
   3353   3362     1
   3353   3363     1
   3354   3372     1
   3354   3359     1
   3354   3357     1
   3354   3358     1
   3355   3372     1
   3355   3370     1
   3356   3372     1
   3356   3359     1
   3356   3357     1
   3356   3358     1
   3357   3360     1
   3357   3361     1
   3358   3360     1
   3358   3361     1
   3361   3370     1
   3362   3372     1
   3362   3367     1
   3362   3365     1
   3362   3366     1
   3363   3372     1
   3363   3367     1
   3363   3365     1
   3363   3366     1
   3364   3372     1
   3364   3371     1
   3365   3368     1
   3365   3369     1
   3366   3368     1
   3366   3369     1
   3368   3371     1
   3373   3379     1
   3373   3380     1
   3374   3377     1
   3374   3376     1
   3374   3378     1
   3375   3402     1
   3376   3381     1
   3376   3379     1
   3376   3380     1
   3377   3392     1
   3377   3393     1
   3377   3384     1
   3377   3386     1
   3378   3381     1
   3378   3379     1
   3378   3380     1
   3379   3382     1
   3379   3383     1
   3379   3402     1
   3380   3382     1
   3380   3383     1
   3380   3402     1
   3381   3395     1
   3381   3396     1
   3381   3387     1
   3381   3388     1
   3382   3384     1
   3382   3386     1
   3383   3392     1
   3383   3393     1
   3384   3389     1
   3384   3387     1
   3384   3388     1
   3384   3402     1
   3385   3400     1
   3385   3402     1
   3386   3389     1
   3386   3387     1
   3386   3388     1
   3386   3402     1
   3387   3390     1
   3387   3391     1
   3388   3390     1
   3388   3391     1
   3391   3400     1
   3392   3397     1
   3392   3395     1
   3392   3396     1
   3392   3402     1
   3393   3397     1
   3393   3395     1
   3393   3396     1
   3393   3402     1
   3394   3401     1
   3394   3402     1
   3395   3398     1
   3395   3399     1
   3396   3398     1
   3396   3399     1
   3398   3401     1
   3403   3409     1
   3403   3410     1
   3404   3407     1
   3404   3406     1
   3404   3408     1
   3405   3432     1
   3406   3411     1
   3406   3409     1
   3406   3410     1
   3407   3422     1
   3407   3423     1
   3407   3414     1
   3407   3416     1
   3408   3411     1
   3408   3409     1
   3408   3410     1
   3409   3412     1
   3409   3413     1
   3409   3432     1
   3410   3412     1
   3410   3413     1
   3410   3432     1
   3411   3425     1
   3411   3426     1
   3411   3417     1
   3411   3418     1
   3412   3414     1
   3412   3416     1
   3413   3422     1
   3413   3423     1
   3414   3432     1
   3414   3419     1
   3414   3417     1
   3414   3418     1
   3415   3432     1
   3415   3430     1
   3416   3432     1
   3416   3419     1
   3416   3417     1
   3416   3418     1
   3417   3420     1
   3417   3421     1
   3418   3420     1
   3418   3421     1
   3421   3430     1
   3422   3432     1
   3422   3427     1
   3422   3425     1
   3422   3426     1
   3423   3432     1
   3423   3427     1
   3423   3425     1
   3423   3426     1
   3424   3432     1
   3424   3431     1
   3425   3428     1
   3425   3429     1
   3426   3428     1
   3426   3429     1
   3428   3431     1
   3433   3439     1
   3433   3440     1
   3434   3437     1
   3434   3436     1
   3434   3438     1
   3435   3462     1
   3436   3441     1
   3436   3439     1
   3436   3440     1
   3437   3452     1
   3437   3453     1
   3437   3444     1
   3437   3446     1
   3438   3441     1
   3438   3439     1
   3438   3440     1
   3439   3442     1
   3439   3443     1
   3439   3462     1
   3440   3442     1
   3440   3443     1
   3440   3462     1
   3441   3455     1
   3441   3456     1
   3441   3447     1
   3441   3448     1
   3442   3444     1
   3442   3446     1
   3443   3452     1
   3443   3453     1
   3444   3449     1
   3444   3447     1
   3444   3448     1
   3444   3462     1
   3445   3460     1
   3445   3462     1
   3446   3449     1
   3446   3447     1
   3446   3448     1
   3446   3462     1
   3447   3450     1
   3447   3451     1
   3448   3450     1
   3448   3451     1
   3451   3460     1
   3452   3457     1
   3452   3455     1
   3452   3456     1
   3452   3462     1
   3453   3457     1
   3453   3455     1
   3453   3456     1
   3453   3462     1
   3454   3461     1
   3454   3462     1
   3455   3458     1
   3455   3459     1
   3456   3458     1
   3456   3459     1
   3458   3461     1
   3463   3469     1
   3463   3470     1
   3464   3467     1
   3464   3466     1
   3464   3468     1
   3465   3492     1
   3466   3471     1
   3466   3469     1
   3466   3470     1
   3467   3482     1
   3467   3483     1
   3467   3474     1
   3467   3476     1
   3468   3471     1
   3468   3469     1
   3468   3470     1
   3469   3472     1
   3469   3473     1
   3469   3492     1
   3470   3472     1
   3470   3473     1
   3470   3492     1
   3471   3485     1
   3471   3486     1
   3471   3477     1
   3471   3478     1
   3472   3474     1
   3472   3476     1
   3473   3482     1
   3473   3483     1
   3474   3492     1
   3474   3479     1
   3474   3477     1
   3474   3478     1
   3475   3492     1
   3475   3490     1
   3476   3492     1
   3476   3479     1
   3476   3477     1
   3476   3478     1
   3477   3480     1
   3477   3481     1
   3478   3480     1
   3478   3481     1
   3481   3490     1
   3482   3492     1
   3482   3487     1
   3482   3485     1
   3482   3486     1
   3483   3492     1
   3483   3487     1
   3483   3485     1
   3483   3486     1
   3484   3492     1
   3484   3491     1
   3485   3488     1
   3485   3489     1
   3486   3488     1
   3486   3489     1
   3488   3491     1
   3493   3499     1
   3493   3500     1
   3494   3497     1
   3494   3496     1
   3494   3498     1
   3495   3522     1
   3496   3501     1
   3496   3499     1
   3496   3500     1
   3497   3512     1
   3497   3513     1
   3497   3504     1
   3497   3506     1
   3498   3501     1
   3498   3499     1
   3498   3500     1
   3499   3502     1
   3499   3503     1
   3499   3522     1
   3500   3502     1
   3500   3503     1
   3500   3522     1
   3501   3515     1
   3501   3516     1
   3501   3507     1
   3501   3508     1
   3502   3504     1
   3502   3506     1
   3503   3512     1
   3503   3513     1
   3504   3509     1
   3504   3507     1
   3504   3508     1
   3504   3522     1
   3505   3520     1
   3505   3522     1
   3506   3509     1
   3506   3507     1
   3506   3508     1
   3506   3522     1
   3507   3510     1
   3507   3511     1
   3508   3510     1
   3508   3511     1
   3511   3520     1
   3512   3517     1
   3512   3515     1
   3512   3516     1
   3512   3522     1
   3513   3517     1
   3513   3515     1
   3513   3516     1
   3513   3522     1
   3514   3521     1
   3514   3522     1
   3515   3518     1
   3515   3519     1
   3516   3518     1
   3516   3519     1
   3518   3521     1

[ angles ]
;    ai     aj     ak funct         c0         c1         c2         c3
      1      2      3     1   114.2100488 537.225600
      1      7     13     1   114.2100488 537.225600
      1      8     15     1   114.2100488 537.225600
      2      1      7     1   109.6600471 523.836800
      2      1      8     1   109.6600471 523.836800
      2      3      4     1   114.2100488 537.225600
      3      4      5     1   109.6600471 523.836800
      3      4      6     1   109.6600471 523.836800
      4      5     11     1   114.2100488 537.225600
      4      6      9     1   114.2100488 537.225600
      5      4      6     1   109.6600471 523.836800
      5     11     12     1   111.0400475 529.694400
      6      9     10     1   111.0400475 529.694400
      7      1      8     1   109.6600471 523.836800
      7     13     14     1   111.0400475 529.694400
      8     15     16     1   111.0400475 529.694400
      9     10     18     1   123.2000528 564.003200
      9     10     52     1   115.1800491 558.982400
     10     52     51     1   120.6900519 530.531200
     11     12     17     1   123.2000528 564.003200
     11     12     78     1   115.1800491 558.982400
     12     78     77     1   120.6900519 530.531200
     13     14     20     1   123.2000528 564.003200
     13     14    104     1   115.1800491 558.982400
     14    104    103     1   120.6900519 530.531200
     15     16     19     1   123.2000528 564.003200
     15     16    130     1   115.1800491 558.982400
     16    130    129     1   120.6900519 530.531200
     17     12     78     1   123.0500530 620.905600
     18     10     52     1   123.0500530 620.905600
     19     16    130     1   123.0500530 620.905600
     20     14    104     1   123.0500530 620.905600
     43     44     46     1   114.2100488 537.225600
     43     45     48     1   114.2100488 537.225600
     43     50     51     1   114.2100488 537.225600
     44     43     45     1   109.6600471 523.836800
     44     43     50     1   109.6600471 523.836800
     44     46     47     1   111.0400475 529.694400
     45     43     50     1   109.6600471 523.836800
     45     48     49     1   111.0400475 529.694400
     46     47     53     1   123.2000528 564.003200
     46     47    156     1   115.1800491 558.982400
     47    156    155     1   120.6900519 530.531200
     48     49     54     1   123.2000528 564.003200
     48     49    182     1   115.1800491 558.982400
     49    182    181     1   120.6900519 530.531200
     50     51     52     1   111.6100477 551.451200
     53     47    156     1   123.0500530 620.905600
     54     49    182     1   123.0500530 620.905600
     69     70     72     1   114.2100488 537.225600
     69     71     74     1   114.2100488 537.225600
     69     76     77     1   114.2100488 537.225600
     70     69     71     1   109.6600471 523.836800
     70     69     76     1   109.6600471 523.836800
     70     72     73     1   111.0400475 529.694400
     71     69     76     1   109.6600471 523.836800
     71     74     75     1   111.0400475 529.694400
     72     73     79     1   123.2000528 564.003200
     72     73    208     1   115.1800491 558.982400
     73    208    207     1   120.6900519 530.531200
     74     75     80     1   123.2000528 564.003200
     74     75    234     1   115.1800491 558.982400
     75    234    233     1   120.6900519 530.531200
     76     77     78     1   111.6100477 551.451200
     79     73    208     1   123.0500530 620.905600
     80     75    234     1   123.0500530 620.905600
     95     96     98     1   114.2100488 537.225600
     95     97    100     1   114.2100488 537.225600
     95    102    103     1   114.2100488 537.225600
     96     95     97     1   109.6600471 523.836800
     96     95    102     1   109.6600471 523.836800
     96     98     99     1   111.0400475 529.694400
     97     95    102     1   109.6600471 523.836800
     97    100    101     1   111.0400475 529.694400
     98     99    105     1   123.2000528 564.003200
     98     99    260     1   115.1800491 558.982400
     99    260    259     1   120.6900519 530.531200
    100    101    106     1   123.2000528 564.003200
    100    101    286     1   115.1800491 558.982400
    101    286    285     1   120.6900519 530.531200
    102    103    104     1   111.6100477 551.451200
    105     99    260     1   123.0500530 620.905600
    106    101    286     1   123.0500530 620.905600
    121    122    124     1   114.2100488 537.225600
    121    123    126     1   114.2100488 537.225600
    121    128    129     1   114.2100488 537.225600
    122    121    123     1   109.6600471 523.836800
    122    121    128     1   109.6600471 523.836800
    122    124    125     1   111.0400475 529.694400
    123    121    128     1   109.6600471 523.836800
    123    126    127     1   111.0400475 529.694400
    124    125    131     1   123.2000528 564.003200
    124    125    312     1   115.1800491 558.982400
    125    312    311     1   120.6900519 530.531200
    126    127    132     1   123.2000528 564.003200
    126    127    338     1   115.1800491 558.982400
    127    338    337     1   120.6900519 530.531200
    128    129    130     1   111.6100477 551.451200
    131    125    312     1   123.0500530 620.905600
    132    127    338     1   123.0500530 620.905600
    147    148    150     1   114.2100488 537.225600
    147    149    152     1   114.2100488 537.225600
    147    154    155     1   114.2100488 537.225600
    148    147    149     1   109.6600471 523.836800
    148    147    154     1   109.6600471 523.836800
    148    150    151     1   111.0400475 529.694400
    149    147    154     1   109.6600471 523.836800
    149    152    153     1   111.0400475 529.694400
    150    151    157     1   123.2000528 564.003200
    150    151    364     1   115.1800491 558.982400
    151    364    363     1   120.6900519 530.531200
    152    153    158     1   123.2000528 564.003200
    152    153    390     1   115.1800491 558.982400
    153    390    389     1   120.6900519 530.531200
    154    155    156     1   111.6100477 551.451200
    157    151    364     1   123.0500530 620.905600
    158    153    390     1   123.0500530 620.905600
    173    174    176     1   114.2100488 537.225600
    173    175    178     1   114.2100488 537.225600
    173    180    181     1   114.2100488 537.225600
    174    173    175     1   109.6600471 523.836800
    174    173    180     1   109.6600471 523.836800
    174    176    177     1   111.0400475 529.694400
    175    173    180     1   109.6600471 523.836800
    175    178    179     1   111.0400475 529.694400
    176    177    183     1   123.2000528 564.003200
    176    177    416     1   115.1800491 558.982400
    177    416    415     1   120.6900519 530.531200
    178    179    184     1   123.2000528 564.003200
    178    179    442     1   115.1800491 558.982400
    179    442    441     1   120.6900519 530.531200
    180    181    182     1   111.6100477 551.451200
    183    177    416     1   123.0500530 620.905600
    184    179    442     1   123.0500530 620.905600
    199    200    202     1   114.2100488 537.225600
    199    201    204     1   114.2100488 537.225600
    199    206    207     1   114.2100488 537.225600
    200    199    201     1   109.6600471 523.836800
    200    199    206     1   109.6600471 523.836800
    200    202    203     1   111.0400475 529.694400
    201    199    206     1   109.6600471 523.836800
    201    204    205     1   111.0400475 529.694400
    202    203    209     1   123.2000528 564.003200
    202    203    468     1   115.1800491 558.982400
    203    468    467     1   120.6900519 530.531200
    204    205    210     1   123.2000528 564.003200
    204    205    494     1   115.1800491 558.982400
    205    494    493     1   120.6900519 530.531200
    206    207    208     1   111.6100477 551.451200
    209    203    468     1   123.0500530 620.905600
    210    205    494     1   123.0500530 620.905600
    225    226    228     1   114.2100488 537.225600
    225    227    230     1   114.2100488 537.225600
    225    232    233     1   114.2100488 537.225600
    226    225    227     1   109.6600471 523.836800
    226    225    232     1   109.6600471 523.836800
    226    228    229     1   111.0400475 529.694400
    227    225    232     1   109.6600471 523.836800
    227    230    231     1   111.0400475 529.694400
    228    229    235     1   123.2000528 564.003200
    228    229    520     1   115.1800491 558.982400
    229    520    519     1   120.6900519 530.531200
    230    231    236     1   123.2000528 564.003200
    230    231    546     1   115.1800491 558.982400
    231    546    545     1   120.6900519 530.531200
    232    233    234     1   111.6100477 551.451200
    235    229    520     1   123.0500530 620.905600
    236    231    546     1   123.0500530 620.905600
    251    252    254     1   114.2100488 537.225600
    251    253    256     1   114.2100488 537.225600
    251    258    259     1   114.2100488 537.225600
    252    251    253     1   109.6600471 523.836800
    252    251    258     1   109.6600471 523.836800
    252    254    255     1   111.0400475 529.694400
    253    251    258     1   109.6600471 523.836800
    253    256    257     1   111.0400475 529.694400
    254    255    261     1   123.2000528 564.003200
    254    255    572     1   115.1800491 558.982400
    255    572    571     1   120.6900519 530.531200
    256    257    262     1   123.2000528 564.003200
    256    257    598     1   115.1800491 558.982400
    257    598    597     1   120.6900519 530.531200
    258    259    260     1   111.6100477 551.451200
    261    255    572     1   123.0500530 620.905600
    262    257    598     1   123.0500530 620.905600
    277    278    280     1   114.2100488 537.225600
    277    279    282     1   114.2100488 537.225600
    277    284    285     1   114.2100488 537.225600
    278    277    279     1   109.6600471 523.836800
    278    277    284     1   109.6600471 523.836800
    278    280    281     1   111.0400475 529.694400
    279    277    284     1   109.6600471 523.836800
    279    282    283     1   111.0400475 529.694400
    280    281    287     1   123.2000528 564.003200
    280    281    624     1   115.1800491 558.982400
    281    624    623     1   120.6900519 530.531200
    282    283    288     1   123.2000528 564.003200
    282    283    650     1   115.1800491 558.982400
    283    650    649     1   120.6900519 530.531200
    284    285    286     1   111.6100477 551.451200
    287    281    624     1   123.0500530 620.905600
    288    283    650     1   123.0500530 620.905600
    303    304    306     1   114.2100488 537.225600
    303    305    308     1   114.2100488 537.225600
    303    310    311     1   114.2100488 537.225600
    304    303    305     1   109.6600471 523.836800
    304    303    310     1   109.6600471 523.836800
    304    306    307     1   111.0400475 529.694400
    305    303    310     1   109.6600471 523.836800
    305    308    309     1   111.0400475 529.694400
    306    307    313     1   123.2000528 564.003200
    306    307    676     1   115.1800491 558.982400
    307    676    675     1   120.6900519 530.531200
    308    309    314     1   123.2000528 564.003200
    308    309    702     1   115.1800491 558.982400
    309    702    701     1   120.6900519 530.531200
    310    311    312     1   111.6100477 551.451200
    313    307    676     1   123.0500530 620.905600
    314    309    702     1   123.0500530 620.905600
    329    330    332     1   114.2100488 537.225600
    329    331    334     1   114.2100488 537.225600
    329    336    337     1   114.2100488 537.225600
    330    329    331     1   109.6600471 523.836800
    330    329    336     1   109.6600471 523.836800
    330    332    333     1   111.0400475 529.694400
    331    329    336     1   109.6600471 523.836800
    331    334    335     1   111.0400475 529.694400
    332    333    339     1   123.2000528 564.003200
    332    333    728     1   115.1800491 558.982400
    333    728    727     1   120.6900519 530.531200
    334    335    340     1   123.2000528 564.003200
    334    335    754     1   115.1800491 558.982400
    335    754    753     1   120.6900519 530.531200
    336    337    338     1   111.6100477 551.451200
    339    333    728     1   123.0500530 620.905600
    340    335    754     1   123.0500530 620.905600
    355    356    358     1   114.2100488 537.225600
    355    357    360     1   114.2100488 537.225600
    355    362    363     1   114.2100488 537.225600
    356    355    357     1   109.6600471 523.836800
    356    355    362     1   109.6600471 523.836800
    356    358    359     1   111.0400475 529.694400
    357    355    362     1   109.6600471 523.836800
    357    360    361     1   111.0400475 529.694400
    358    359    365     1   123.2000528 564.003200
    358    359    780     1   115.1800491 558.982400
    359    780    779     1   120.6900519 530.531200
    360    361    366     1   123.2000528 564.003200
    360    361    806     1   115.1800491 558.982400
    361    806    805     1   120.6900519 530.531200
    362    363    364     1   111.6100477 551.451200
    365    359    780     1   123.0500530 620.905600
    366    361    806     1   123.0500530 620.905600
    381    382    384     1   114.2100488 537.225600
    381    383    386     1   114.2100488 537.225600
    381    388    389     1   114.2100488 537.225600
    382    381    383     1   109.6600471 523.836800
    382    381    388     1   109.6600471 523.836800
    382    384    385     1   111.0400475 529.694400
    383    381    388     1   109.6600471 523.836800
    383    386    387     1   111.0400475 529.694400
    384    385    391     1   123.2000528 564.003200
    384    385    832     1   115.1800491 558.982400
    385    832    831     1   120.6900519 530.531200
    386    387    392     1   123.2000528 564.003200
    386    387    858     1   115.1800491 558.982400
    387    858    857     1   120.6900519 530.531200
    388    389    390     1   111.6100477 551.451200
    391    385    832     1   123.0500530 620.905600
    392    387    858     1   123.0500530 620.905600
    407    408    410     1   114.2100488 537.225600
    407    409    412     1   114.2100488 537.225600
    407    414    415     1   114.2100488 537.225600
    408    407    409     1   109.6600471 523.836800
    408    407    414     1   109.6600471 523.836800
    408    410    411     1   111.0400475 529.694400
    409    407    414     1   109.6600471 523.836800
    409    412    413     1   111.0400475 529.694400
    410    411    417     1   123.2000528 564.003200
    410    411    884     1   115.1800491 558.982400
    411    884    883     1   120.6900519 530.531200
    412    413    418     1   123.2000528 564.003200
    412    413    910     1   115.1800491 558.982400
    413    910    909     1   120.6900519 530.531200
    414    415    416     1   111.6100477 551.451200
    417    411    884     1   123.0500530 620.905600
    418    413    910     1   123.0500530 620.905600
    433    434    436     1   114.2100488 537.225600
    433    435    438     1   114.2100488 537.225600
    433    440    441     1   114.2100488 537.225600
    434    433    435     1   109.6600471 523.836800
    434    433    440     1   109.6600471 523.836800
    434    436    437     1   111.0400475 529.694400
    435    433    440     1   109.6600471 523.836800
    435    438    439     1   111.0400475 529.694400
    436    437    443     1   123.2000528 564.003200
    436    437    936     1   115.1800491 558.982400
    437    936    935     1   120.6900519 530.531200
    438    439    444     1   123.2000528 564.003200
    438    439    962     1   115.1800491 558.982400
    439    962    961     1   120.6900519 530.531200
    440    441    442     1   111.6100477 551.451200
    443    437    936     1   123.0500530 620.905600
    444    439    962     1   123.0500530 620.905600
    459    460    462     1   114.2100488 537.225600
    459    461    464     1   114.2100488 537.225600
    459    466    467     1   114.2100488 537.225600
    460    459    461     1   109.6600471 523.836800
    460    459    466     1   109.6600471 523.836800
    460    462    463     1   111.0400475 529.694400
    461    459    466     1   109.6600471 523.836800
    461    464    465     1   111.0400475 529.694400
    462    463    469     1   123.2000528 564.003200
    462    463    988     1   115.1800491 558.982400
    463    988    987     1   120.6900519 530.531200
    464    465    470     1   123.2000528 564.003200
    464    465   1014     1   115.1800491 558.982400
    465   1014   1013     1   120.6900519 530.531200
    466    467    468     1   111.6100477 551.451200
    469    463    988     1   123.0500530 620.905600
    470    465   1014     1   123.0500530 620.905600
    485    486    488     1   114.2100488 537.225600
    485    487    490     1   114.2100488 537.225600
    485    492    493     1   114.2100488 537.225600
    486    485    487     1   109.6600471 523.836800
    486    485    492     1   109.6600471 523.836800
    486    488    489     1   111.0400475 529.694400
    487    485    492     1   109.6600471 523.836800
    487    490    491     1   111.0400475 529.694400
    488    489    495     1   123.2000528 564.003200
    488    489   1040     1   115.1800491 558.982400
    489   1040   1039     1   120.6900519 530.531200
    490    491    496     1   123.2000528 564.003200
    490    491   1066     1   115.1800491 558.982400
    491   1066   1065     1   120.6900519 530.531200
    492    493    494     1   111.6100477 551.451200
    495    489   1040     1   123.0500530 620.905600
    496    491   1066     1   123.0500530 620.905600
    511    512    514     1   114.2100488 537.225600
    511    513    516     1   114.2100488 537.225600
    511    518    519     1   114.2100488 537.225600
    512    511    513     1   109.6600471 523.836800
    512    511    518     1   109.6600471 523.836800
    512    514    515     1   111.0400475 529.694400
    513    511    518     1   109.6600471 523.836800
    513    516    517     1   111.0400475 529.694400
    514    515    521     1   123.2000528 564.003200
    514    515   1092     1   115.1800491 558.982400
    515   1092   1091     1   120.6900519 530.531200
    516    517    522     1   123.2000528 564.003200
    516    517   1118     1   115.1800491 558.982400
    517   1118   1117     1   120.6900519 530.531200
    518    519    520     1   111.6100477 551.451200
    521    515   1092     1   123.0500530 620.905600
    522    517   1118     1   123.0500530 620.905600
    537    538    540     1   114.2100488 537.225600
    537    539    542     1   114.2100488 537.225600
    537    544    545     1   114.2100488 537.225600
    538    537    539     1   109.6600471 523.836800
    538    537    544     1   109.6600471 523.836800
    538    540    541     1   111.0400475 529.694400
    539    537    544     1   109.6600471 523.836800
    539    542    543     1   111.0400475 529.694400
    540    541    547     1   123.2000528 564.003200
    540    541   1144     1   115.1800491 558.982400
    541   1144   1143     1   120.6900519 530.531200
    542    543    548     1   123.2000528 564.003200
    542    543   1170     1   115.1800491 558.982400
    543   1170   1169     1   120.6900519 530.531200
    544    545    546     1   111.6100477 551.451200
    547    541   1144     1   123.0500530 620.905600
    548    543   1170     1   123.0500530 620.905600
    563    564    566     1   114.2100488 537.225600
    563    565    568     1   114.2100488 537.225600
    563    570    571     1   114.2100488 537.225600
    564    563    565     1   109.6600471 523.836800
    564    563    570     1   109.6600471 523.836800
    564    566    567     1   111.0400475 529.694400
    565    563    570     1   109.6600471 523.836800
    565    568    569     1   111.0400475 529.694400
    566    567    573     1   123.2000528 564.003200
    566    567   1196     1   115.1800491 558.982400
    567   1196   1195     1   120.6900519 530.531200
    568    569    574     1   123.2000528 564.003200
    568    569   1222     1   115.1800491 558.982400
    569   1222   1221     1   120.6900519 530.531200
    570    571    572     1   111.6100477 551.451200
    573    567   1196     1   123.0500530 620.905600
    574    569   1222     1   123.0500530 620.905600
    589    590    592     1   114.2100488 537.225600
    589    591    594     1   114.2100488 537.225600
    589    596    597     1   114.2100488 537.225600
    590    589    591     1   109.6600471 523.836800
    590    589    596     1   109.6600471 523.836800
    590    592    593     1   111.0400475 529.694400
    591    589    596     1   109.6600471 523.836800
    591    594    595     1   111.0400475 529.694400
    592    593    599     1   123.2000528 564.003200
    592    593   1248     1   115.1800491 558.982400
    593   1248   1247     1   120.6900519 530.531200
    594    595    600     1   123.2000528 564.003200
    594    595   1274     1   115.1800491 558.982400
    595   1274   1273     1   120.6900519 530.531200
    596    597    598     1   111.6100477 551.451200
    599    593   1248     1   123.0500530 620.905600
    600    595   1274     1   123.0500530 620.905600
    615    616    618     1   114.2100488 537.225600
    615    617    620     1   114.2100488 537.225600
    615    622    623     1   114.2100488 537.225600
    616    615    617     1   109.6600471 523.836800
    616    615    622     1   109.6600471 523.836800
    616    618    619     1   111.0400475 529.694400
    617    615    622     1   109.6600471 523.836800
    617    620    621     1   111.0400475 529.694400
    618    619    625     1   123.2000528 564.003200
    618    619   1300     1   115.1800491 558.982400
    619   1300   1299     1   120.6900519 530.531200
    620    621    626     1   123.2000528 564.003200
    620    621   1326     1   115.1800491 558.982400
    621   1326   1325     1   120.6900519 530.531200
    622    623    624     1   111.6100477 551.451200
    625    619   1300     1   123.0500530 620.905600
    626    621   1326     1   123.0500530 620.905600
    641    642    644     1   114.2100488 537.225600
    641    643    646     1   114.2100488 537.225600
    641    648    649     1   114.2100488 537.225600
    642    641    643     1   109.6600471 523.836800
    642    641    648     1   109.6600471 523.836800
    642    644    645     1   111.0400475 529.694400
    643    641    648     1   109.6600471 523.836800
    643    646    647     1   111.0400475 529.694400
    644    645    651     1   123.2000528 564.003200
    644    645   1352     1   115.1800491 558.982400
    645   1352   1351     1   120.6900519 530.531200
    646    647    652     1   123.2000528 564.003200
    646    647   1378     1   115.1800491 558.982400
    647   1378   1377     1   120.6900519 530.531200
    648    649    650     1   111.6100477 551.451200
    651    645   1352     1   123.0500530 620.905600
    652    647   1378     1   123.0500530 620.905600
    667    668    670     1   114.2100488 537.225600
    667    669    672     1   114.2100488 537.225600
    667    674    675     1   114.2100488 537.225600
    668    667    669     1   109.6600471 523.836800
    668    667    674     1   109.6600471 523.836800
    668    670    671     1   111.0400475 529.694400
    669    667    674     1   109.6600471 523.836800
    669    672    673     1   111.0400475 529.694400
    670    671    677     1   123.2000528 564.003200
    670    671   1404     1   115.1800491 558.982400
    671   1404   1403     1   120.6900519 530.531200
    672    673    678     1   123.2000528 564.003200
    672    673   1430     1   115.1800491 558.982400
    673   1430   1429     1   120.6900519 530.531200
    674    675    676     1   111.6100477 551.451200
    677    671   1404     1   123.0500530 620.905600
    678    673   1430     1   123.0500530 620.905600
    693    694    696     1   114.2100488 537.225600
    693    695    698     1   114.2100488 537.225600
    693    700    701     1   114.2100488 537.225600
    694    693    695     1   109.6600471 523.836800
    694    693    700     1   109.6600471 523.836800
    694    696    697     1   111.0400475 529.694400
    695    693    700     1   109.6600471 523.836800
    695    698    699     1   111.0400475 529.694400
    696    697    703     1   123.2000528 564.003200
    696    697   1456     1   115.1800491 558.982400
    697   1456   1455     1   120.6900519 530.531200
    698    699    704     1   123.2000528 564.003200
    698    699   1482     1   115.1800491 558.982400
    699   1482   1481     1   120.6900519 530.531200
    700    701    702     1   111.6100477 551.451200
    703    697   1456     1   123.0500530 620.905600
    704    699   1482     1   123.0500530 620.905600
    719    720    722     1   114.2100488 537.225600
    719    721    724     1   114.2100488 537.225600
    719    726    727     1   114.2100488 537.225600
    720    719    721     1   109.6600471 523.836800
    720    719    726     1   109.6600471 523.836800
    720    722    723     1   111.0400475 529.694400
    721    719    726     1   109.6600471 523.836800
    721    724    725     1   111.0400475 529.694400
    722    723    729     1   123.2000528 564.003200
    722    723   1508     1   115.1800491 558.982400
    723   1508   1507     1   120.6900519 530.531200
    724    725    730     1   123.2000528 564.003200
    724    725   1534     1   115.1800491 558.982400
    725   1534   1533     1   120.6900519 530.531200
    726    727    728     1   111.6100477 551.451200
    729    723   1508     1   123.0500530 620.905600
    730    725   1534     1   123.0500530 620.905600
    745    746    748     1   114.2100488 537.225600
    745    747    750     1   114.2100488 537.225600
    745    752    753     1   114.2100488 537.225600
    746    745    747     1   109.6600471 523.836800
    746    745    752     1   109.6600471 523.836800
    746    748    749     1   111.0400475 529.694400
    747    745    752     1   109.6600471 523.836800
    747    750    751     1   111.0400475 529.694400
    748    749    755     1   123.2000528 564.003200
    748    749   1560     1   115.1800491 558.982400
    749   1560   1559     1   120.6900519 530.531200
    750    751    756     1   123.2000528 564.003200
    750    751   1586     1   115.1800491 558.982400
    751   1586   1585     1   120.6900519 530.531200
    752    753    754     1   111.6100477 551.451200
    755    749   1560     1   123.0500530 620.905600
    756    751   1586     1   123.0500530 620.905600
    771    772    774     1   114.2100488 537.225600
    771    773    776     1   114.2100488 537.225600
    771    778    779     1   114.2100488 537.225600
    772    771    773     1   109.6600471 523.836800
    772    771    778     1   109.6600471 523.836800
    772    774    775     1   111.0400475 529.694400
    773    771    778     1   109.6600471 523.836800
    773    776    777     1   111.0400475 529.694400
    774    775   1603     1   115.1800491 558.982400
    774    775    781     1   123.2000528 564.003200
    775   1603   1605     1   120.6900519 530.531200
    776    777    782     1   123.2000528 564.003200
    776    777   1633     1   115.1800491 558.982400
    777   1633   1635     1   120.6900519 530.531200
    778    779    780     1   111.6100477 551.451200
    781    775   1603     1   123.0500530 620.905600
    782    777   1633     1   123.0500530 620.905600
    797    798    800     1   114.2100488 537.225600
    797    799    802     1   114.2100488 537.225600
    797    804    805     1   114.2100488 537.225600
    798    797    799     1   109.6600471 523.836800
    798    797    804     1   109.6600471 523.836800
    798    800    801     1   111.0400475 529.694400
    799    797    804     1   109.6600471 523.836800
    799    802    803     1   111.0400475 529.694400
    800    801   1663     1   115.1800491 558.982400
    800    801    807     1   123.2000528 564.003200
    801   1663   1665     1   120.6900519 530.531200
    802    803    808     1   123.2000528 564.003200
    802    803   1693     1   115.1800491 558.982400
    803   1693   1695     1   120.6900519 530.531200
    804    805    806     1   111.6100477 551.451200
    807    801   1663     1   123.0500530 620.905600
    808    803   1693     1   123.0500530 620.905600
    823    824    826     1   114.2100488 537.225600
    823    825    828     1   114.2100488 537.225600
    823    830    831     1   114.2100488 537.225600
    824    823    825     1   109.6600471 523.836800
    824    823    830     1   109.6600471 523.836800
    824    826    827     1   111.0400475 529.694400
    825    823    830     1   109.6600471 523.836800
    825    828    829     1   111.0400475 529.694400
    826    827   1723     1   115.1800491 558.982400
    826    827    833     1   123.2000528 564.003200
    827   1723   1725     1   120.6900519 530.531200
    828    829    834     1   123.2000528 564.003200
    828    829   1753     1   115.1800491 558.982400
    829   1753   1755     1   120.6900519 530.531200
    830    831    832     1   111.6100477 551.451200
    833    827   1723     1   123.0500530 620.905600
    834    829   1753     1   123.0500530 620.905600
    849    850    852     1   114.2100488 537.225600
    849    851    854     1   114.2100488 537.225600
    849    856    857     1   114.2100488 537.225600
    850    849    851     1   109.6600471 523.836800
    850    849    856     1   109.6600471 523.836800
    850    852    853     1   111.0400475 529.694400
    851    849    856     1   109.6600471 523.836800
    851    854    855     1   111.0400475 529.694400
    852    853   1783     1   115.1800491 558.982400
    852    853    859     1   123.2000528 564.003200
    853   1783   1785     1   120.6900519 530.531200
    854    855    860     1   123.2000528 564.003200
    854    855   1813     1   115.1800491 558.982400
    855   1813   1815     1   120.6900519 530.531200
    856    857    858     1   111.6100477 551.451200
    859    853   1783     1   123.0500530 620.905600
    860    855   1813     1   123.0500530 620.905600
    875    876    878     1   114.2100488 537.225600
    875    877    880     1   114.2100488 537.225600
    875    882    883     1   114.2100488 537.225600
    876    875    877     1   109.6600471 523.836800
    876    875    882     1   109.6600471 523.836800
    876    878    879     1   111.0400475 529.694400
    877    875    882     1   109.6600471 523.836800
    877    880    881     1   111.0400475 529.694400
    878    879   1843     1   115.1800491 558.982400
    878    879    885     1   123.2000528 564.003200
    879   1843   1845     1   120.6900519 530.531200
    880    881    886     1   123.2000528 564.003200
    880    881   1873     1   115.1800491 558.982400
    881   1873   1875     1   120.6900519 530.531200
    882    883    884     1   111.6100477 551.451200
    885    879   1843     1   123.0500530 620.905600
    886    881   1873     1   123.0500530 620.905600
    901    902    904     1   114.2100488 537.225600
    901    903    906     1   114.2100488 537.225600
    901    908    909     1   114.2100488 537.225600
    902    901    903     1   109.6600471 523.836800
    902    901    908     1   109.6600471 523.836800
    902    904    905     1   111.0400475 529.694400
    903    901    908     1   109.6600471 523.836800
    903    906    907     1   111.0400475 529.694400
    904    905   1903     1   115.1800491 558.982400
    904    905    911     1   123.2000528 564.003200
    905   1903   1905     1   120.6900519 530.531200
    906    907    912     1   123.2000528 564.003200
    906    907   1933     1   115.1800491 558.982400
    907   1933   1935     1   120.6900519 530.531200
    908    909    910     1   111.6100477 551.451200
    911    905   1903     1   123.0500530 620.905600
    912    907   1933     1   123.0500530 620.905600
    927    928    930     1   114.2100488 537.225600
    927    929    932     1   114.2100488 537.225600
    927    934    935     1   114.2100488 537.225600
    928    927    929     1   109.6600471 523.836800
    928    927    934     1   109.6600471 523.836800
    928    930    931     1   111.0400475 529.694400
    929    927    934     1   109.6600471 523.836800
    929    932    933     1   111.0400475 529.694400
    930    931   1963     1   115.1800491 558.982400
    930    931    937     1   123.2000528 564.003200
    931   1963   1965     1   120.6900519 530.531200
    932    933    938     1   123.2000528 564.003200
    932    933   1993     1   115.1800491 558.982400
    933   1993   1995     1   120.6900519 530.531200
    934    935    936     1   111.6100477 551.451200
    937    931   1963     1   123.0500530 620.905600
    938    933   1993     1   123.0500530 620.905600
    953    954    956     1   114.2100488 537.225600
    953    955    958     1   114.2100488 537.225600
    953    960    961     1   114.2100488 537.225600
    954    953    955     1   109.6600471 523.836800
    954    953    960     1   109.6600471 523.836800
    954    956    957     1   111.0400475 529.694400
    955    953    960     1   109.6600471 523.836800
    955    958    959     1   111.0400475 529.694400
    956    957   2023     1   115.1800491 558.982400
    956    957    963     1   123.2000528 564.003200
    957   2023   2025     1   120.6900519 530.531200
    958    959    964     1   123.2000528 564.003200
    958    959   2053     1   115.1800491 558.982400
    959   2053   2055     1   120.6900519 530.531200
    960    961    962     1   111.6100477 551.451200
    963    957   2023     1   123.0500530 620.905600
    964    959   2053     1   123.0500530 620.905600
    979    980    982     1   114.2100488 537.225600
    979    981    984     1   114.2100488 537.225600
    979    986    987     1   114.2100488 537.225600
    980    979    981     1   109.6600471 523.836800
    980    979    986     1   109.6600471 523.836800
    980    982    983     1   111.0400475 529.694400
    981    979    986     1   109.6600471 523.836800
    981    984    985     1   111.0400475 529.694400
    982    983   2083     1   115.1800491 558.982400
    982    983    989     1   123.2000528 564.003200
    983   2083   2085     1   120.6900519 530.531200
    984    985    990     1   123.2000528 564.003200
    984    985   2113     1   115.1800491 558.982400
    985   2113   2115     1   120.6900519 530.531200
    986    987    988     1   111.6100477 551.451200
    989    983   2083     1   123.0500530 620.905600
    990    985   2113     1   123.0500530 620.905600
   1005   1006   1008     1   114.2100488 537.225600
   1005   1007   1010     1   114.2100488 537.225600
   1005   1012   1013     1   114.2100488 537.225600
   1006   1005   1007     1   109.6600471 523.836800
   1006   1005   1012     1   109.6600471 523.836800
   1006   1008   1009     1   111.0400475 529.694400
   1007   1005   1012     1   109.6600471 523.836800
   1007   1010   1011     1   111.0400475 529.694400
   1008   1009   2143     1   115.1800491 558.982400
   1008   1009   1015     1   123.2000528 564.003200
   1009   2143   2145     1   120.6900519 530.531200
   1010   1011   1016     1   123.2000528 564.003200
   1010   1011   2173     1   115.1800491 558.982400
   1011   2173   2175     1   120.6900519 530.531200
   1012   1013   1014     1   111.6100477 551.451200
   1015   1009   2143     1   123.0500530 620.905600
   1016   1011   2173     1   123.0500530 620.905600
   1031   1032   1034     1   114.2100488 537.225600
   1031   1033   1036     1   114.2100488 537.225600
   1031   1038   1039     1   114.2100488 537.225600
   1032   1031   1033     1   109.6600471 523.836800
   1032   1031   1038     1   109.6600471 523.836800
   1032   1034   1035     1   111.0400475 529.694400
   1033   1031   1038     1   109.6600471 523.836800
   1033   1036   1037     1   111.0400475 529.694400
   1034   1035   2203     1   115.1800491 558.982400
   1034   1035   1041     1   123.2000528 564.003200
   1035   2203   2205     1   120.6900519 530.531200
   1036   1037   1042     1   123.2000528 564.003200
   1036   1037   2233     1   115.1800491 558.982400
   1037   2233   2235     1   120.6900519 530.531200
   1038   1039   1040     1   111.6100477 551.451200
   1041   1035   2203     1   123.0500530 620.905600
   1042   1037   2233     1   123.0500530 620.905600
   1057   1058   1060     1   114.2100488 537.225600
   1057   1059   1062     1   114.2100488 537.225600
   1057   1064   1065     1   114.2100488 537.225600
   1058   1057   1059     1   109.6600471 523.836800
   1058   1057   1064     1   109.6600471 523.836800
   1058   1060   1061     1   111.0400475 529.694400
   1059   1057   1064     1   109.6600471 523.836800
   1059   1062   1063     1   111.0400475 529.694400
   1060   1061   2263     1   115.1800491 558.982400
   1060   1061   1067     1   123.2000528 564.003200
   1061   2263   2265     1   120.6900519 530.531200
   1062   1063   1068     1   123.2000528 564.003200
   1062   1063   2293     1   115.1800491 558.982400
   1063   2293   2295     1   120.6900519 530.531200
   1064   1065   1066     1   111.6100477 551.451200
   1067   1061   2263     1   123.0500530 620.905600
   1068   1063   2293     1   123.0500530 620.905600
   1083   1084   1086     1   114.2100488 537.225600
   1083   1085   1088     1   114.2100488 537.225600
   1083   1090   1091     1   114.2100488 537.225600
   1084   1083   1085     1   109.6600471 523.836800
   1084   1083   1090     1   109.6600471 523.836800
   1084   1086   1087     1   111.0400475 529.694400
   1085   1083   1090     1   109.6600471 523.836800
   1085   1088   1089     1   111.0400475 529.694400
   1086   1087   2323     1   115.1800491 558.982400
   1086   1087   1093     1   123.2000528 564.003200
   1087   2323   2325     1   120.6900519 530.531200
   1088   1089   1094     1   123.2000528 564.003200
   1088   1089   2353     1   115.1800491 558.982400
   1089   2353   2355     1   120.6900519 530.531200
   1090   1091   1092     1   111.6100477 551.451200
   1093   1087   2323     1   123.0500530 620.905600
   1094   1089   2353     1   123.0500530 620.905600
   1109   1110   1112     1   114.2100488 537.225600
   1109   1111   1114     1   114.2100488 537.225600
   1109   1116   1117     1   114.2100488 537.225600
   1110   1109   1111     1   109.6600471 523.836800
   1110   1109   1116     1   109.6600471 523.836800
   1110   1112   1113     1   111.0400475 529.694400
   1111   1109   1116     1   109.6600471 523.836800
   1111   1114   1115     1   111.0400475 529.694400
   1112   1113   2383     1   115.1800491 558.982400
   1112   1113   1119     1   123.2000528 564.003200
   1113   2383   2385     1   120.6900519 530.531200
   1114   1115   1120     1   123.2000528 564.003200
   1114   1115   2413     1   115.1800491 558.982400
   1115   2413   2415     1   120.6900519 530.531200
   1116   1117   1118     1   111.6100477 551.451200
   1119   1113   2383     1   123.0500530 620.905600
   1120   1115   2413     1   123.0500530 620.905600
   1135   1136   1138     1   114.2100488 537.225600
   1135   1137   1140     1   114.2100488 537.225600
   1135   1142   1143     1   114.2100488 537.225600
   1136   1135   1137     1   109.6600471 523.836800
   1136   1135   1142     1   109.6600471 523.836800
   1136   1138   1139     1   111.0400475 529.694400
   1137   1135   1142     1   109.6600471 523.836800
   1137   1140   1141     1   111.0400475 529.694400
   1138   1139   2443     1   115.1800491 558.982400
   1138   1139   1145     1   123.2000528 564.003200
   1139   2443   2445     1   120.6900519 530.531200
   1140   1141   1146     1   123.2000528 564.003200
   1140   1141   2473     1   115.1800491 558.982400
   1141   2473   2475     1   120.6900519 530.531200
   1142   1143   1144     1   111.6100477 551.451200
   1145   1139   2443     1   123.0500530 620.905600
   1146   1141   2473     1   123.0500530 620.905600
   1161   1162   1164     1   114.2100488 537.225600
   1161   1163   1166     1   114.2100488 537.225600
   1161   1168   1169     1   114.2100488 537.225600
   1162   1161   1163     1   109.6600471 523.836800
   1162   1161   1168     1   109.6600471 523.836800
   1162   1164   1165     1   111.0400475 529.694400
   1163   1161   1168     1   109.6600471 523.836800
   1163   1166   1167     1   111.0400475 529.694400
   1164   1165   2503     1   115.1800491 558.982400
   1164   1165   1171     1   123.2000528 564.003200
   1165   2503   2505     1   120.6900519 530.531200
   1166   1167   1172     1   123.2000528 564.003200
   1166   1167   2533     1   115.1800491 558.982400
   1167   2533   2535     1   120.6900519 530.531200
   1168   1169   1170     1   111.6100477 551.451200
   1171   1165   2503     1   123.0500530 620.905600
   1172   1167   2533     1   123.0500530 620.905600
   1187   1188   1190     1   114.2100488 537.225600
   1187   1189   1192     1   114.2100488 537.225600
   1187   1194   1195     1   114.2100488 537.225600
   1188   1187   1189     1   109.6600471 523.836800
   1188   1187   1194     1   109.6600471 523.836800
   1188   1190   1191     1   111.0400475 529.694400
   1189   1187   1194     1   109.6600471 523.836800
   1189   1192   1193     1   111.0400475 529.694400
   1190   1191   2563     1   115.1800491 558.982400
   1190   1191   1197     1   123.2000528 564.003200
   1191   2563   2565     1   120.6900519 530.531200
   1192   1193   1198     1   123.2000528 564.003200
   1192   1193   2593     1   115.1800491 558.982400
   1193   2593   2595     1   120.6900519 530.531200
   1194   1195   1196     1   111.6100477 551.451200
   1197   1191   2563     1   123.0500530 620.905600
   1198   1193   2593     1   123.0500530 620.905600
   1213   1214   1216     1   114.2100488 537.225600
   1213   1215   1218     1   114.2100488 537.225600
   1213   1220   1221     1   114.2100488 537.225600
   1214   1213   1215     1   109.6600471 523.836800
   1214   1213   1220     1   109.6600471 523.836800
   1214   1216   1217     1   111.0400475 529.694400
   1215   1213   1220     1   109.6600471 523.836800
   1215   1218   1219     1   111.0400475 529.694400
   1216   1217   2623     1   115.1800491 558.982400
   1216   1217   1223     1   123.2000528 564.003200
   1217   2623   2625     1   120.6900519 530.531200
   1218   1219   1224     1   123.2000528 564.003200
   1218   1219   2653     1   115.1800491 558.982400
   1219   2653   2655     1   120.6900519 530.531200
   1220   1221   1222     1   111.6100477 551.451200
   1223   1217   2623     1   123.0500530 620.905600
   1224   1219   2653     1   123.0500530 620.905600
   1239   1240   1242     1   114.2100488 537.225600
   1239   1241   1244     1   114.2100488 537.225600
   1239   1246   1247     1   114.2100488 537.225600
   1240   1239   1241     1   109.6600471 523.836800
   1240   1239   1246     1   109.6600471 523.836800
   1240   1242   1243     1   111.0400475 529.694400
   1241   1239   1246     1   109.6600471 523.836800
   1241   1244   1245     1   111.0400475 529.694400
   1242   1243   2683     1   115.1800491 558.982400
   1242   1243   1249     1   123.2000528 564.003200
   1243   2683   2685     1   120.6900519 530.531200
   1244   1245   1250     1   123.2000528 564.003200
   1244   1245   2713     1   115.1800491 558.982400
   1245   2713   2715     1   120.6900519 530.531200
   1246   1247   1248     1   111.6100477 551.451200
   1249   1243   2683     1   123.0500530 620.905600
   1250   1245   2713     1   123.0500530 620.905600
   1265   1266   1268     1   114.2100488 537.225600
   1265   1267   1270     1   114.2100488 537.225600
   1265   1272   1273     1   114.2100488 537.225600
   1266   1265   1267     1   109.6600471 523.836800
   1266   1265   1272     1   109.6600471 523.836800
   1266   1268   1269     1   111.0400475 529.694400
   1267   1265   1272     1   109.6600471 523.836800
   1267   1270   1271     1   111.0400475 529.694400
   1268   1269   2743     1   115.1800491 558.982400
   1268   1269   1275     1   123.2000528 564.003200
   1269   2743   2745     1   120.6900519 530.531200
   1270   1271   1276     1   123.2000528 564.003200
   1270   1271   2773     1   115.1800491 558.982400
   1271   2773   2775     1   120.6900519 530.531200
   1272   1273   1274     1   111.6100477 551.451200
   1275   1269   2743     1   123.0500530 620.905600
   1276   1271   2773     1   123.0500530 620.905600
   1291   1292   1294     1   114.2100488 537.225600
   1291   1293   1296     1   114.2100488 537.225600
   1291   1298   1299     1   114.2100488 537.225600
   1292   1291   1293     1   109.6600471 523.836800
   1292   1291   1298     1   109.6600471 523.836800
   1292   1294   1295     1   111.0400475 529.694400
   1293   1291   1298     1   109.6600471 523.836800
   1293   1296   1297     1   111.0400475 529.694400
   1294   1295   2803     1   115.1800491 558.982400
   1294   1295   1301     1   123.2000528 564.003200
   1295   2803   2805     1   120.6900519 530.531200
   1296   1297   1302     1   123.2000528 564.003200
   1296   1297   2833     1   115.1800491 558.982400
   1297   2833   2835     1   120.6900519 530.531200
   1298   1299   1300     1   111.6100477 551.451200
   1301   1295   2803     1   123.0500530 620.905600
   1302   1297   2833     1   123.0500530 620.905600
   1317   1318   1320     1   114.2100488 537.225600
   1317   1319   1322     1   114.2100488 537.225600
   1317   1324   1325     1   114.2100488 537.225600
   1318   1317   1319     1   109.6600471 523.836800
   1318   1317   1324     1   109.6600471 523.836800
   1318   1320   1321     1   111.0400475 529.694400
   1319   1317   1324     1   109.6600471 523.836800
   1319   1322   1323     1   111.0400475 529.694400
   1320   1321   2863     1   115.1800491 558.982400
   1320   1321   1327     1   123.2000528 564.003200
   1321   2863   2865     1   120.6900519 530.531200
   1322   1323   1328     1   123.2000528 564.003200
   1322   1323   2893     1   115.1800491 558.982400
   1323   2893   2895     1   120.6900519 530.531200
   1324   1325   1326     1   111.6100477 551.451200
   1327   1321   2863     1   123.0500530 620.905600
   1328   1323   2893     1   123.0500530 620.905600
   1343   1344   1346     1   114.2100488 537.225600
   1343   1345   1348     1   114.2100488 537.225600
   1343   1350   1351     1   114.2100488 537.225600
   1344   1343   1345     1   109.6600471 523.836800
   1344   1343   1350     1   109.6600471 523.836800
   1344   1346   1347     1   111.0400475 529.694400
   1345   1343   1350     1   109.6600471 523.836800
   1345   1348   1349     1   111.0400475 529.694400
   1346   1347   2923     1   115.1800491 558.982400
   1346   1347   1353     1   123.2000528 564.003200
   1347   2923   2925     1   120.6900519 530.531200
   1348   1349   1354     1   123.2000528 564.003200
   1348   1349   2953     1   115.1800491 558.982400
   1349   2953   2955     1   120.6900519 530.531200
   1350   1351   1352     1   111.6100477 551.451200
   1353   1347   2923     1   123.0500530 620.905600
   1354   1349   2953     1   123.0500530 620.905600
   1369   1370   1372     1   114.2100488 537.225600
   1369   1371   1374     1   114.2100488 537.225600
   1369   1376   1377     1   114.2100488 537.225600
   1370   1369   1371     1   109.6600471 523.836800
   1370   1369   1376     1   109.6600471 523.836800
   1370   1372   1373     1   111.0400475 529.694400
   1371   1369   1376     1   109.6600471 523.836800
   1371   1374   1375     1   111.0400475 529.694400
   1372   1373   2983     1   115.1800491 558.982400
   1372   1373   1379     1   123.2000528 564.003200
   1373   2983   2985     1   120.6900519 530.531200
   1374   1375   1380     1   123.2000528 564.003200
   1374   1375   3013     1   115.1800491 558.982400
   1375   3013   3015     1   120.6900519 530.531200
   1376   1377   1378     1   111.6100477 551.451200
   1379   1373   2983     1   123.0500530 620.905600
   1380   1375   3013     1   123.0500530 620.905600
   1395   1396   1398     1   114.2100488 537.225600
   1395   1397   1400     1   114.2100488 537.225600
   1395   1402   1403     1   114.2100488 537.225600
   1396   1395   1397     1   109.6600471 523.836800
   1396   1395   1402     1   109.6600471 523.836800
   1396   1398   1399     1   111.0400475 529.694400
   1397   1395   1402     1   109.6600471 523.836800
   1397   1400   1401     1   111.0400475 529.694400
   1398   1399   3043     1   115.1800491 558.982400
   1398   1399   1405     1   123.2000528 564.003200
   1399   3043   3045     1   120.6900519 530.531200
   1400   1401   1406     1   123.2000528 564.003200
   1400   1401   3073     1   115.1800491 558.982400
   1401   3073   3075     1   120.6900519 530.531200
   1402   1403   1404     1   111.6100477 551.451200
   1405   1399   3043     1   123.0500530 620.905600
   1406   1401   3073     1   123.0500530 620.905600
   1421   1422   1424     1   114.2100488 537.225600
   1421   1423   1426     1   114.2100488 537.225600
   1421   1428   1429     1   114.2100488 537.225600
   1422   1421   1423     1   109.6600471 523.836800
   1422   1421   1428     1   109.6600471 523.836800
   1422   1424   1425     1   111.0400475 529.694400
   1423   1421   1428     1   109.6600471 523.836800
   1423   1426   1427     1   111.0400475 529.694400
   1424   1425   3103     1   115.1800491 558.982400
   1424   1425   1431     1   123.2000528 564.003200
   1425   3103   3105     1   120.6900519 530.531200
   1426   1427   1432     1   123.2000528 564.003200
   1426   1427   3133     1   115.1800491 558.982400
   1427   3133   3135     1   120.6900519 530.531200
   1428   1429   1430     1   111.6100477 551.451200
   1431   1425   3103     1   123.0500530 620.905600
   1432   1427   3133     1   123.0500530 620.905600
   1447   1448   1450     1   114.2100488 537.225600
   1447   1449   1452     1   114.2100488 537.225600
   1447   1454   1455     1   114.2100488 537.225600
   1448   1447   1449     1   109.6600471 523.836800
   1448   1447   1454     1   109.6600471 523.836800
   1448   1450   1451     1   111.0400475 529.694400
   1449   1447   1454     1   109.6600471 523.836800
   1449   1452   1453     1   111.0400475 529.694400
   1450   1451   3163     1   115.1800491 558.982400
   1450   1451   1457     1   123.2000528 564.003200
   1451   3163   3165     1   120.6900519 530.531200
   1452   1453   1458     1   123.2000528 564.003200
   1452   1453   3193     1   115.1800491 558.982400
   1453   3193   3195     1   120.6900519 530.531200
   1454   1455   1456     1   111.6100477 551.451200
   1457   1451   3163     1   123.0500530 620.905600
   1458   1453   3193     1   123.0500530 620.905600
   1473   1474   1476     1   114.2100488 537.225600
   1473   1475   1478     1   114.2100488 537.225600
   1473   1480   1481     1   114.2100488 537.225600
   1474   1473   1475     1   109.6600471 523.836800
   1474   1473   1480     1   109.6600471 523.836800
   1474   1476   1477     1   111.0400475 529.694400
   1475   1473   1480     1   109.6600471 523.836800
   1475   1478   1479     1   111.0400475 529.694400
   1476   1477   3223     1   115.1800491 558.982400
   1476   1477   1483     1   123.2000528 564.003200
   1477   3223   3225     1   120.6900519 530.531200
   1478   1479   1484     1   123.2000528 564.003200
   1478   1479   3253     1   115.1800491 558.982400
   1479   3253   3255     1   120.6900519 530.531200
   1480   1481   1482     1   111.6100477 551.451200
   1483   1477   3223     1   123.0500530 620.905600
   1484   1479   3253     1   123.0500530 620.905600
   1499   1500   1502     1   114.2100488 537.225600
   1499   1501   1504     1   114.2100488 537.225600
   1499   1506   1507     1   114.2100488 537.225600
   1500   1499   1501     1   109.6600471 523.836800
   1500   1499   1506     1   109.6600471 523.836800
   1500   1502   1503     1   111.0400475 529.694400
   1501   1499   1506     1   109.6600471 523.836800
   1501   1504   1505     1   111.0400475 529.694400
   1502   1503   3283     1   115.1800491 558.982400
   1502   1503   1509     1   123.2000528 564.003200
   1503   3283   3285     1   120.6900519 530.531200
   1504   1505   1510     1   123.2000528 564.003200
   1504   1505   3313     1   115.1800491 558.982400
   1505   3313   3315     1   120.6900519 530.531200
   1506   1507   1508     1   111.6100477 551.451200
   1509   1503   3283     1   123.0500530 620.905600
   1510   1505   3313     1   123.0500530 620.905600
   1525   1526   1528     1   114.2100488 537.225600
   1525   1527   1530     1   114.2100488 537.225600
   1525   1532   1533     1   114.2100488 537.225600
   1526   1525   1527     1   109.6600471 523.836800
   1526   1525   1532     1   109.6600471 523.836800
   1526   1528   1529     1   111.0400475 529.694400
   1527   1525   1532     1   109.6600471 523.836800
   1527   1530   1531     1   111.0400475 529.694400
   1528   1529   3343     1   115.1800491 558.982400
   1528   1529   1535     1   123.2000528 564.003200
   1529   3343   3345     1   120.6900519 530.531200
   1530   1531   1536     1   123.2000528 564.003200
   1530   1531   3373     1   115.1800491 558.982400
   1531   3373   3375     1   120.6900519 530.531200
   1532   1533   1534     1   111.6100477 551.451200
   1535   1529   3343     1   123.0500530 620.905600
   1536   1531   3373     1   123.0500530 620.905600
   1551   1552   1554     1   114.2100488 537.225600
   1551   1553   1556     1   114.2100488 537.225600
   1551   1558   1559     1   114.2100488 537.225600
   1552   1551   1553     1   109.6600471 523.836800
   1552   1551   1558     1   109.6600471 523.836800
   1552   1554   1555     1   111.0400475 529.694400
   1553   1551   1558     1   109.6600471 523.836800
   1553   1556   1557     1   111.0400475 529.694400
   1554   1555   3403     1   115.1800491 558.982400
   1554   1555   1561     1   123.2000528 564.003200
   1555   3403   3405     1   120.6900519 530.531200
   1556   1557   1562     1   123.2000528 564.003200
   1556   1557   3433     1   115.1800491 558.982400
   1557   3433   3435     1   120.6900519 530.531200
   1558   1559   1560     1   111.6100477 551.451200
   1561   1555   3403     1   123.0500530 620.905600
   1562   1557   3433     1   123.0500530 620.905600
   1577   1578   1580     1   114.2100488 537.225600
   1577   1579   1582     1   114.2100488 537.225600
   1577   1584   1585     1   114.2100488 537.225600
   1578   1577   1579     1   109.6600471 523.836800
   1578   1577   1584     1   109.6600471 523.836800
   1578   1580   1581     1   111.0400475 529.694400
   1579   1577   1584     1   109.6600471 523.836800
   1579   1582   1583     1   111.0400475 529.694400
   1580   1581   3463     1   115.1800491 558.982400
   1580   1581   1587     1   123.2000528 564.003200
   1581   3463   3465     1   120.6900519 530.531200
   1582   1583   3493     1   115.1800491 558.982400
   1582   1583   1588     1   123.2000528 564.003200
   1583   3493   3495     1   120.6900519 530.531200
   1584   1585   1586     1   111.6100477 551.451200
   1587   1581   3463     1   123.0500530 620.905600
   1588   1583   3493     1   123.0500530 620.905600
   1603   1605   1607     1   111.6100477 551.451200
   1605   1607   1611     1   114.2100488 537.225600
   1607   1611   1612     1   109.6600471 523.836800
   1607   1611   1613     1   109.6600471 523.836800
   1611   1612   1624     1   114.2100488 537.225600
   1611   1613   1615     1   114.2100488 537.225600
   1612   1611   1613     1   109.6600471 523.836800
   1612   1624   1627     1   111.0400475 529.694400
   1613   1615   1619     1   111.0400475 529.694400
   1615   1619   1620     1   112.7300484 572.371200
   1615   1619   1621     1   123.2000528 564.003200
   1620   1619   1621     1   122.1000523 635.131200
   1624   1627   1628     1   123.2000528 564.003200
   1624   1627   1629     1   112.7300484 572.371200
   1628   1627   1629     1   122.1000523 635.131200
   1633   1635   1637     1   111.6100477 551.451200
   1635   1637   1641     1   114.2100488 537.225600
   1637   1641   1642     1   109.6600471 523.836800
   1637   1641   1643     1   109.6600471 523.836800
   1641   1642   1654     1   114.2100488 537.225600
   1641   1643   1645     1   114.2100488 537.225600
   1642   1654   1657     1   111.0400475 529.694400
   1642   1641   1643     1   109.6600471 523.836800
   1643   1645   1649     1   111.0400475 529.694400
   1645   1649   1650     1   112.7300484 572.371200
   1645   1649   1651     1   123.2000528 564.003200
   1650   1649   1651     1   122.1000523 635.131200
   1654   1657   1658     1   123.2000528 564.003200
   1654   1657   1659     1   112.7300484 572.371200
   1658   1657   1659     1   122.1000523 635.131200
   1663   1665   1667     1   111.6100477 551.451200
   1665   1667   1671     1   114.2100488 537.225600
   1667   1671   1672     1   109.6600471 523.836800
   1667   1671   1673     1   109.6600471 523.836800
   1671   1672   1684     1   114.2100488 537.225600
   1671   1673   1675     1   114.2100488 537.225600
   1672   1671   1673     1   109.6600471 523.836800
   1672   1684   1687     1   111.0400475 529.694400
   1673   1675   1679     1   111.0400475 529.694400
   1675   1679   1680     1   112.7300484 572.371200
   1675   1679   1681     1   123.2000528 564.003200
   1680   1679   1681     1   122.1000523 635.131200
   1684   1687   1688     1   123.2000528 564.003200
   1684   1687   1689     1   112.7300484 572.371200
   1688   1687   1689     1   122.1000523 635.131200
   1693   1695   1697     1   111.6100477 551.451200
   1695   1697   1701     1   114.2100488 537.225600
   1697   1701   1702     1   109.6600471 523.836800
   1697   1701   1703     1   109.6600471 523.836800
   1701   1702   1714     1   114.2100488 537.225600
   1701   1703   1705     1   114.2100488 537.225600
   1702   1714   1717     1   111.0400475 529.694400
   1702   1701   1703     1   109.6600471 523.836800
   1703   1705   1709     1   111.0400475 529.694400
   1705   1709   1710     1   112.7300484 572.371200
   1705   1709   1711     1   123.2000528 564.003200
   1710   1709   1711     1   122.1000523 635.131200
   1714   1717   1718     1   123.2000528 564.003200
   1714   1717   1719     1   112.7300484 572.371200
   1718   1717   1719     1   122.1000523 635.131200
   1723   1725   1727     1   111.6100477 551.451200
   1725   1727   1731     1   114.2100488 537.225600
   1727   1731   1732     1   109.6600471 523.836800
   1727   1731   1733     1   109.6600471 523.836800
   1731   1732   1744     1   114.2100488 537.225600
   1731   1733   1735     1   114.2100488 537.225600
   1732   1731   1733     1   109.6600471 523.836800
   1732   1744   1747     1   111.0400475 529.694400
   1733   1735   1739     1   111.0400475 529.694400
   1735   1739   1740     1   112.7300484 572.371200
   1735   1739   1741     1   123.2000528 564.003200
   1740   1739   1741     1   122.1000523 635.131200
   1744   1747   1748     1   123.2000528 564.003200
   1744   1747   1749     1   112.7300484 572.371200
   1748   1747   1749     1   122.1000523 635.131200
   1753   1755   1757     1   111.6100477 551.451200
   1755   1757   1761     1   114.2100488 537.225600
   1757   1761   1762     1   109.6600471 523.836800
   1757   1761   1763     1   109.6600471 523.836800
   1761   1762   1774     1   114.2100488 537.225600
   1761   1763   1765     1   114.2100488 537.225600
   1762   1774   1777     1   111.0400475 529.694400
   1762   1761   1763     1   109.6600471 523.836800
   1763   1765   1769     1   111.0400475 529.694400
   1765   1769   1770     1   112.7300484 572.371200
   1765   1769   1771     1   123.2000528 564.003200
   1770   1769   1771     1   122.1000523 635.131200
   1774   1777   1778     1   123.2000528 564.003200
   1774   1777   1779     1   112.7300484 572.371200
   1778   1777   1779     1   122.1000523 635.131200
   1783   1785   1787     1   111.6100477 551.451200
   1785   1787   1791     1   114.2100488 537.225600
   1787   1791   1792     1   109.6600471 523.836800
   1787   1791   1793     1   109.6600471 523.836800
   1791   1792   1804     1   114.2100488 537.225600
   1791   1793   1795     1   114.2100488 537.225600
   1792   1791   1793     1   109.6600471 523.836800
   1792   1804   1807     1   111.0400475 529.694400
   1793   1795   1799     1   111.0400475 529.694400
   1795   1799   1800     1   112.7300484 572.371200
   1795   1799   1801     1   123.2000528 564.003200
   1800   1799   1801     1   122.1000523 635.131200
   1804   1807   1808     1   123.2000528 564.003200
   1804   1807   1809     1   112.7300484 572.371200
   1808   1807   1809     1   122.1000523 635.131200
   1813   1815   1817     1   111.6100477 551.451200
   1815   1817   1821     1   114.2100488 537.225600
   1817   1821   1822     1   109.6600471 523.836800
   1817   1821   1823     1   109.6600471 523.836800
   1821   1822   1834     1   114.2100488 537.225600
   1821   1823   1825     1   114.2100488 537.225600
   1822   1834   1837     1   111.0400475 529.694400
   1822   1821   1823     1   109.6600471 523.836800
   1823   1825   1829     1   111.0400475 529.694400
   1825   1829   1830     1   112.7300484 572.371200
   1825   1829   1831     1   123.2000528 564.003200
   1830   1829   1831     1   122.1000523 635.131200
   1834   1837   1838     1   123.2000528 564.003200
   1834   1837   1839     1   112.7300484 572.371200
   1838   1837   1839     1   122.1000523 635.131200
   1843   1845   1847     1   111.6100477 551.451200
   1845   1847   1851     1   114.2100488 537.225600
   1847   1851   1852     1   109.6600471 523.836800
   1847   1851   1853     1   109.6600471 523.836800
   1851   1852   1864     1   114.2100488 537.225600
   1851   1853   1855     1   114.2100488 537.225600
   1852   1851   1853     1   109.6600471 523.836800
   1852   1864   1867     1   111.0400475 529.694400
   1853   1855   1859     1   111.0400475 529.694400
   1855   1859   1860     1   112.7300484 572.371200
   1855   1859   1861     1   123.2000528 564.003200
   1860   1859   1861     1   122.1000523 635.131200
   1864   1867   1868     1   123.2000528 564.003200
   1864   1867   1869     1   112.7300484 572.371200
   1868   1867   1869     1   122.1000523 635.131200
   1873   1875   1877     1   111.6100477 551.451200
   1875   1877   1881     1   114.2100488 537.225600
   1877   1881   1882     1   109.6600471 523.836800
   1877   1881   1883     1   109.6600471 523.836800
   1881   1882   1894     1   114.2100488 537.225600
   1881   1883   1885     1   114.2100488 537.225600
   1882   1894   1897     1   111.0400475 529.694400
   1882   1881   1883     1   109.6600471 523.836800
   1883   1885   1889     1   111.0400475 529.694400
   1885   1889   1890     1   112.7300484 572.371200
   1885   1889   1891     1   123.2000528 564.003200
   1890   1889   1891     1   122.1000523 635.131200
   1894   1897   1898     1   123.2000528 564.003200
   1894   1897   1899     1   112.7300484 572.371200
   1898   1897   1899     1   122.1000523 635.131200
   1903   1905   1907     1   111.6100477 551.451200
   1905   1907   1911     1   114.2100488 537.225600
   1907   1911   1912     1   109.6600471 523.836800
   1907   1911   1913     1   109.6600471 523.836800
   1911   1912   1924     1   114.2100488 537.225600
   1911   1913   1915     1   114.2100488 537.225600
   1912   1911   1913     1   109.6600471 523.836800
   1912   1924   1927     1   111.0400475 529.694400
   1913   1915   1919     1   111.0400475 529.694400
   1915   1919   1920     1   112.7300484 572.371200
   1915   1919   1921     1   123.2000528 564.003200
   1920   1919   1921     1   122.1000523 635.131200
   1924   1927   1928     1   123.2000528 564.003200
   1924   1927   1929     1   112.7300484 572.371200
   1928   1927   1929     1   122.1000523 635.131200
   1933   1935   1937     1   111.6100477 551.451200
   1935   1937   1941     1   114.2100488 537.225600
   1937   1941   1942     1   109.6600471 523.836800
   1937   1941   1943     1   109.6600471 523.836800
   1941   1942   1954     1   114.2100488 537.225600
   1941   1943   1945     1   114.2100488 537.225600
   1942   1954   1957     1   111.0400475 529.694400
   1942   1941   1943     1   109.6600471 523.836800
   1943   1945   1949     1   111.0400475 529.694400
   1945   1949   1950     1   112.7300484 572.371200
   1945   1949   1951     1   123.2000528 564.003200
   1950   1949   1951     1   122.1000523 635.131200
   1954   1957   1958     1   123.2000528 564.003200
   1954   1957   1959     1   112.7300484 572.371200
   1958   1957   1959     1   122.1000523 635.131200
   1963   1965   1967     1   111.6100477 551.451200
   1965   1967   1971     1   114.2100488 537.225600
   1967   1971   1972     1   109.6600471 523.836800
   1967   1971   1973     1   109.6600471 523.836800
   1971   1972   1984     1   114.2100488 537.225600
   1971   1973   1975     1   114.2100488 537.225600
   1972   1971   1973     1   109.6600471 523.836800
   1972   1984   1987     1   111.0400475 529.694400
   1973   1975   1979     1   111.0400475 529.694400
   1975   1979   1980     1   112.7300484 572.371200
   1975   1979   1981     1   123.2000528 564.003200
   1980   1979   1981     1   122.1000523 635.131200
   1984   1987   1988     1   123.2000528 564.003200
   1984   1987   1989     1   112.7300484 572.371200
   1988   1987   1989     1   122.1000523 635.131200
   1993   1995   1997     1   111.6100477 551.451200
   1995   1997   2001     1   114.2100488 537.225600
   1997   2001   2002     1   109.6600471 523.836800
   1997   2001   2003     1   109.6600471 523.836800
   2001   2002   2014     1   114.2100488 537.225600
   2001   2003   2005     1   114.2100488 537.225600
   2002   2014   2017     1   111.0400475 529.694400
   2002   2001   2003     1   109.6600471 523.836800
   2003   2005   2009     1   111.0400475 529.694400
   2005   2009   2010     1   112.7300484 572.371200
   2005   2009   2011     1   123.2000528 564.003200
   2010   2009   2011     1   122.1000523 635.131200
   2014   2017   2018     1   123.2000528 564.003200
   2014   2017   2019     1   112.7300484 572.371200
   2018   2017   2019     1   122.1000523 635.131200
   2023   2025   2027     1   111.6100477 551.451200
   2025   2027   2031     1   114.2100488 537.225600
   2027   2031   2032     1   109.6600471 523.836800
   2027   2031   2033     1   109.6600471 523.836800
   2031   2032   2044     1   114.2100488 537.225600
   2031   2033   2035     1   114.2100488 537.225600
   2032   2031   2033     1   109.6600471 523.836800
   2032   2044   2047     1   111.0400475 529.694400
   2033   2035   2039     1   111.0400475 529.694400
   2035   2039   2040     1   112.7300484 572.371200
   2035   2039   2041     1   123.2000528 564.003200
   2040   2039   2041     1   122.1000523 635.131200
   2044   2047   2048     1   123.2000528 564.003200
   2044   2047   2049     1   112.7300484 572.371200
   2048   2047   2049     1   122.1000523 635.131200
   2053   2055   2057     1   111.6100477 551.451200
   2055   2057   2061     1   114.2100488 537.225600
   2057   2061   2062     1   109.6600471 523.836800
   2057   2061   2063     1   109.6600471 523.836800
   2061   2062   2074     1   114.2100488 537.225600
   2061   2063   2065     1   114.2100488 537.225600
   2062   2074   2077     1   111.0400475 529.694400
   2062   2061   2063     1   109.6600471 523.836800
   2063   2065   2069     1   111.0400475 529.694400
   2065   2069   2070     1   112.7300484 572.371200
   2065   2069   2071     1   123.2000528 564.003200
   2070   2069   2071     1   122.1000523 635.131200
   2074   2077   2078     1   123.2000528 564.003200
   2074   2077   2079     1   112.7300484 572.371200
   2078   2077   2079     1   122.1000523 635.131200
   2083   2085   2087     1   111.6100477 551.451200
   2085   2087   2091     1   114.2100488 537.225600
   2087   2091   2092     1   109.6600471 523.836800
   2087   2091   2093     1   109.6600471 523.836800
   2091   2092   2104     1   114.2100488 537.225600
   2091   2093   2095     1   114.2100488 537.225600
   2092   2091   2093     1   109.6600471 523.836800
   2092   2104   2107     1   111.0400475 529.694400
   2093   2095   2099     1   111.0400475 529.694400
   2095   2099   2100     1   112.7300484 572.371200
   2095   2099   2101     1   123.2000528 564.003200
   2100   2099   2101     1   122.1000523 635.131200
   2104   2107   2108     1   123.2000528 564.003200
   2104   2107   2109     1   112.7300484 572.371200
   2108   2107   2109     1   122.1000523 635.131200
   2113   2115   2117     1   111.6100477 551.451200
   2115   2117   2121     1   114.2100488 537.225600
   2117   2121   2122     1   109.6600471 523.836800
   2117   2121   2123     1   109.6600471 523.836800
   2121   2122   2134     1   114.2100488 537.225600
   2121   2123   2125     1   114.2100488 537.225600
   2122   2134   2137     1   111.0400475 529.694400
   2122   2121   2123     1   109.6600471 523.836800
   2123   2125   2129     1   111.0400475 529.694400
   2125   2129   2130     1   112.7300484 572.371200
   2125   2129   2131     1   123.2000528 564.003200
   2130   2129   2131     1   122.1000523 635.131200
   2134   2137   2138     1   123.2000528 564.003200
   2134   2137   2139     1   112.7300484 572.371200
   2138   2137   2139     1   122.1000523 635.131200
   2143   2145   2147     1   111.6100477 551.451200
   2145   2147   2151     1   114.2100488 537.225600
   2147   2151   2152     1   109.6600471 523.836800
   2147   2151   2153     1   109.6600471 523.836800
   2151   2152   2164     1   114.2100488 537.225600
   2151   2153   2155     1   114.2100488 537.225600
   2152   2151   2153     1   109.6600471 523.836800
   2152   2164   2167     1   111.0400475 529.694400
   2153   2155   2159     1   111.0400475 529.694400
   2155   2159   2160     1   112.7300484 572.371200
   2155   2159   2161     1   123.2000528 564.003200
   2160   2159   2161     1   122.1000523 635.131200
   2164   2167   2168     1   123.2000528 564.003200
   2164   2167   2169     1   112.7300484 572.371200
   2168   2167   2169     1   122.1000523 635.131200
   2173   2175   2177     1   111.6100477 551.451200
   2175   2177   2181     1   114.2100488 537.225600
   2177   2181   2182     1   109.6600471 523.836800
   2177   2181   2183     1   109.6600471 523.836800
   2181   2182   2194     1   114.2100488 537.225600
   2181   2183   2185     1   114.2100488 537.225600
   2182   2194   2197     1   111.0400475 529.694400
   2182   2181   2183     1   109.6600471 523.836800
   2183   2185   2189     1   111.0400475 529.694400
   2185   2189   2190     1   112.7300484 572.371200
   2185   2189   2191     1   123.2000528 564.003200
   2190   2189   2191     1   122.1000523 635.131200
   2194   2197   2198     1   123.2000528 564.003200
   2194   2197   2199     1   112.7300484 572.371200
   2198   2197   2199     1   122.1000523 635.131200
   2203   2205   2207     1   111.6100477 551.451200
   2205   2207   2211     1   114.2100488 537.225600
   2207   2211   2212     1   109.6600471 523.836800
   2207   2211   2213     1   109.6600471 523.836800
   2211   2212   2224     1   114.2100488 537.225600
   2211   2213   2215     1   114.2100488 537.225600
   2212   2211   2213     1   109.6600471 523.836800
   2212   2224   2227     1   111.0400475 529.694400
   2213   2215   2219     1   111.0400475 529.694400
   2215   2219   2220     1   112.7300484 572.371200
   2215   2219   2221     1   123.2000528 564.003200
   2220   2219   2221     1   122.1000523 635.131200
   2224   2227   2228     1   123.2000528 564.003200
   2224   2227   2229     1   112.7300484 572.371200
   2228   2227   2229     1   122.1000523 635.131200
   2233   2235   2237     1   111.6100477 551.451200
   2235   2237   2241     1   114.2100488 537.225600
   2237   2241   2242     1   109.6600471 523.836800
   2237   2241   2243     1   109.6600471 523.836800
   2241   2242   2254     1   114.2100488 537.225600
   2241   2243   2245     1   114.2100488 537.225600
   2242   2254   2257     1   111.0400475 529.694400
   2242   2241   2243     1   109.6600471 523.836800
   2243   2245   2249     1   111.0400475 529.694400
   2245   2249   2250     1   112.7300484 572.371200
   2245   2249   2251     1   123.2000528 564.003200
   2250   2249   2251     1   122.1000523 635.131200
   2254   2257   2258     1   123.2000528 564.003200
   2254   2257   2259     1   112.7300484 572.371200
   2258   2257   2259     1   122.1000523 635.131200
   2263   2265   2267     1   111.6100477 551.451200
   2265   2267   2271     1   114.2100488 537.225600
   2267   2271   2272     1   109.6600471 523.836800
   2267   2271   2273     1   109.6600471 523.836800
   2271   2272   2284     1   114.2100488 537.225600
   2271   2273   2275     1   114.2100488 537.225600
   2272   2271   2273     1   109.6600471 523.836800
   2272   2284   2287     1   111.0400475 529.694400
   2273   2275   2279     1   111.0400475 529.694400
   2275   2279   2280     1   112.7300484 572.371200
   2275   2279   2281     1   123.2000528 564.003200
   2280   2279   2281     1   122.1000523 635.131200
   2284   2287   2288     1   123.2000528 564.003200
   2284   2287   2289     1   112.7300484 572.371200
   2288   2287   2289     1   122.1000523 635.131200
   2293   2295   2297     1   111.6100477 551.451200
   2295   2297   2301     1   114.2100488 537.225600
   2297   2301   2302     1   109.6600471 523.836800
   2297   2301   2303     1   109.6600471 523.836800
   2301   2302   2314     1   114.2100488 537.225600
   2301   2303   2305     1   114.2100488 537.225600
   2302   2314   2317     1   111.0400475 529.694400
   2302   2301   2303     1   109.6600471 523.836800
   2303   2305   2309     1   111.0400475 529.694400
   2305   2309   2310     1   112.7300484 572.371200
   2305   2309   2311     1   123.2000528 564.003200
   2310   2309   2311     1   122.1000523 635.131200
   2314   2317   2318     1   123.2000528 564.003200
   2314   2317   2319     1   112.7300484 572.371200
   2318   2317   2319     1   122.1000523 635.131200
   2323   2325   2327     1   111.6100477 551.451200
   2325   2327   2331     1   114.2100488 537.225600
   2327   2331   2332     1   109.6600471 523.836800
   2327   2331   2333     1   109.6600471 523.836800
   2331   2332   2344     1   114.2100488 537.225600
   2331   2333   2335     1   114.2100488 537.225600
   2332   2331   2333     1   109.6600471 523.836800
   2332   2344   2347     1   111.0400475 529.694400
   2333   2335   2339     1   111.0400475 529.694400
   2335   2339   2340     1   112.7300484 572.371200
   2335   2339   2341     1   123.2000528 564.003200
   2340   2339   2341     1   122.1000523 635.131200
   2344   2347   2348     1   123.2000528 564.003200
   2344   2347   2349     1   112.7300484 572.371200
   2348   2347   2349     1   122.1000523 635.131200
   2353   2355   2357     1   111.6100477 551.451200
   2355   2357   2361     1   114.2100488 537.225600
   2357   2361   2362     1   109.6600471 523.836800
   2357   2361   2363     1   109.6600471 523.836800
   2361   2362   2374     1   114.2100488 537.225600
   2361   2363   2365     1   114.2100488 537.225600
   2362   2374   2377     1   111.0400475 529.694400
   2362   2361   2363     1   109.6600471 523.836800
   2363   2365   2369     1   111.0400475 529.694400
   2365   2369   2370     1   112.7300484 572.371200
   2365   2369   2371     1   123.2000528 564.003200
   2370   2369   2371     1   122.1000523 635.131200
   2374   2377   2378     1   123.2000528 564.003200
   2374   2377   2379     1   112.7300484 572.371200
   2378   2377   2379     1   122.1000523 635.131200
   2383   2385   2387     1   111.6100477 551.451200
   2385   2387   2391     1   114.2100488 537.225600
   2387   2391   2392     1   109.6600471 523.836800
   2387   2391   2393     1   109.6600471 523.836800
   2391   2392   2404     1   114.2100488 537.225600
   2391   2393   2395     1   114.2100488 537.225600
   2392   2391   2393     1   109.6600471 523.836800
   2392   2404   2407     1   111.0400475 529.694400
   2393   2395   2399     1   111.0400475 529.694400
   2395   2399   2400     1   112.7300484 572.371200
   2395   2399   2401     1   123.2000528 564.003200
   2400   2399   2401     1   122.1000523 635.131200
   2404   2407   2408     1   123.2000528 564.003200
   2404   2407   2409     1   112.7300484 572.371200
   2408   2407   2409     1   122.1000523 635.131200
   2413   2415   2417     1   111.6100477 551.451200
   2415   2417   2421     1   114.2100488 537.225600
   2417   2421   2422     1   109.6600471 523.836800
   2417   2421   2423     1   109.6600471 523.836800
   2421   2422   2434     1   114.2100488 537.225600
   2421   2423   2425     1   114.2100488 537.225600
   2422   2434   2437     1   111.0400475 529.694400
   2422   2421   2423     1   109.6600471 523.836800
   2423   2425   2429     1   111.0400475 529.694400
   2425   2429   2430     1   112.7300484 572.371200
   2425   2429   2431     1   123.2000528 564.003200
   2430   2429   2431     1   122.1000523 635.131200
   2434   2437   2438     1   123.2000528 564.003200
   2434   2437   2439     1   112.7300484 572.371200
   2438   2437   2439     1   122.1000523 635.131200
   2443   2445   2447     1   111.6100477 551.451200
   2445   2447   2451     1   114.2100488 537.225600
   2447   2451   2452     1   109.6600471 523.836800
   2447   2451   2453     1   109.6600471 523.836800
   2451   2452   2464     1   114.2100488 537.225600
   2451   2453   2455     1   114.2100488 537.225600
   2452   2451   2453     1   109.6600471 523.836800
   2452   2464   2467     1   111.0400475 529.694400
   2453   2455   2459     1   111.0400475 529.694400
   2455   2459   2460     1   112.7300484 572.371200
   2455   2459   2461     1   123.2000528 564.003200
   2460   2459   2461     1   122.1000523 635.131200
   2464   2467   2468     1   123.2000528 564.003200
   2464   2467   2469     1   112.7300484 572.371200
   2468   2467   2469     1   122.1000523 635.131200
   2473   2475   2477     1   111.6100477 551.451200
   2475   2477   2481     1   114.2100488 537.225600
   2477   2481   2482     1   109.6600471 523.836800
   2477   2481   2483     1   109.6600471 523.836800
   2481   2482   2494     1   114.2100488 537.225600
   2481   2483   2485     1   114.2100488 537.225600
   2482   2494   2497     1   111.0400475 529.694400
   2482   2481   2483     1   109.6600471 523.836800
   2483   2485   2489     1   111.0400475 529.694400
   2485   2489   2490     1   112.7300484 572.371200
   2485   2489   2491     1   123.2000528 564.003200
   2490   2489   2491     1   122.1000523 635.131200
   2494   2497   2498     1   123.2000528 564.003200
   2494   2497   2499     1   112.7300484 572.371200
   2498   2497   2499     1   122.1000523 635.131200
   2503   2505   2507     1   111.6100477 551.451200
   2505   2507   2511     1   114.2100488 537.225600
   2507   2511   2512     1   109.6600471 523.836800
   2507   2511   2513     1   109.6600471 523.836800
   2511   2512   2524     1   114.2100488 537.225600
   2511   2513   2515     1   114.2100488 537.225600
   2512   2511   2513     1   109.6600471 523.836800
   2512   2524   2527     1   111.0400475 529.694400
   2513   2515   2519     1   111.0400475 529.694400
   2515   2519   2520     1   112.7300484 572.371200
   2515   2519   2521     1   123.2000528 564.003200
   2520   2519   2521     1   122.1000523 635.131200
   2524   2527   2528     1   123.2000528 564.003200
   2524   2527   2529     1   112.7300484 572.371200
   2528   2527   2529     1   122.1000523 635.131200
   2533   2535   2537     1   111.6100477 551.451200
   2535   2537   2541     1   114.2100488 537.225600
   2537   2541   2542     1   109.6600471 523.836800
   2537   2541   2543     1   109.6600471 523.836800
   2541   2542   2554     1   114.2100488 537.225600
   2541   2543   2545     1   114.2100488 537.225600
   2542   2554   2557     1   111.0400475 529.694400
   2542   2541   2543     1   109.6600471 523.836800
   2543   2545   2549     1   111.0400475 529.694400
   2545   2549   2550     1   112.7300484 572.371200
   2545   2549   2551     1   123.2000528 564.003200
   2550   2549   2551     1   122.1000523 635.131200
   2554   2557   2558     1   123.2000528 564.003200
   2554   2557   2559     1   112.7300484 572.371200
   2558   2557   2559     1   122.1000523 635.131200
   2563   2565   2567     1   111.6100477 551.451200
   2565   2567   2571     1   114.2100488 537.225600
   2567   2571   2572     1   109.6600471 523.836800
   2567   2571   2573     1   109.6600471 523.836800
   2571   2572   2584     1   114.2100488 537.225600
   2571   2573   2575     1   114.2100488 537.225600
   2572   2571   2573     1   109.6600471 523.836800
   2572   2584   2587     1   111.0400475 529.694400
   2573   2575   2579     1   111.0400475 529.694400
   2575   2579   2580     1   112.7300484 572.371200
   2575   2579   2581     1   123.2000528 564.003200
   2580   2579   2581     1   122.1000523 635.131200
   2584   2587   2588     1   123.2000528 564.003200
   2584   2587   2589     1   112.7300484 572.371200
   2588   2587   2589     1   122.1000523 635.131200
   2593   2595   2597     1   111.6100477 551.451200
   2595   2597   2601     1   114.2100488 537.225600
   2597   2601   2602     1   109.6600471 523.836800
   2597   2601   2603     1   109.6600471 523.836800
   2601   2602   2614     1   114.2100488 537.225600
   2601   2603   2605     1   114.2100488 537.225600
   2602   2614   2617     1   111.0400475 529.694400
   2602   2601   2603     1   109.6600471 523.836800
   2603   2605   2609     1   111.0400475 529.694400
   2605   2609   2610     1   112.7300484 572.371200
   2605   2609   2611     1   123.2000528 564.003200
   2610   2609   2611     1   122.1000523 635.131200
   2614   2617   2618     1   123.2000528 564.003200
   2614   2617   2619     1   112.7300484 572.371200
   2618   2617   2619     1   122.1000523 635.131200
   2623   2625   2627     1   111.6100477 551.451200
   2625   2627   2631     1   114.2100488 537.225600
   2627   2631   2632     1   109.6600471 523.836800
   2627   2631   2633     1   109.6600471 523.836800
   2631   2632   2644     1   114.2100488 537.225600
   2631   2633   2635     1   114.2100488 537.225600
   2632   2631   2633     1   109.6600471 523.836800
   2632   2644   2647     1   111.0400475 529.694400
   2633   2635   2639     1   111.0400475 529.694400
   2635   2639   2640     1   112.7300484 572.371200
   2635   2639   2641     1   123.2000528 564.003200
   2640   2639   2641     1   122.1000523 635.131200
   2644   2647   2648     1   123.2000528 564.003200
   2644   2647   2649     1   112.7300484 572.371200
   2648   2647   2649     1   122.1000523 635.131200
   2653   2655   2657     1   111.6100477 551.451200
   2655   2657   2661     1   114.2100488 537.225600
   2657   2661   2662     1   109.6600471 523.836800
   2657   2661   2663     1   109.6600471 523.836800
   2661   2662   2674     1   114.2100488 537.225600
   2661   2663   2665     1   114.2100488 537.225600
   2662   2674   2677     1   111.0400475 529.694400
   2662   2661   2663     1   109.6600471 523.836800
   2663   2665   2669     1   111.0400475 529.694400
   2665   2669   2670     1   112.7300484 572.371200
   2665   2669   2671     1   123.2000528 564.003200
   2670   2669   2671     1   122.1000523 635.131200
   2674   2677   2678     1   123.2000528 564.003200
   2674   2677   2679     1   112.7300484 572.371200
   2678   2677   2679     1   122.1000523 635.131200
   2683   2685   2687     1   111.6100477 551.451200
   2685   2687   2691     1   114.2100488 537.225600
   2687   2691   2692     1   109.6600471 523.836800
   2687   2691   2693     1   109.6600471 523.836800
   2691   2692   2704     1   114.2100488 537.225600
   2691   2693   2695     1   114.2100488 537.225600
   2692   2691   2693     1   109.6600471 523.836800
   2692   2704   2707     1   111.0400475 529.694400
   2693   2695   2699     1   111.0400475 529.694400
   2695   2699   2700     1   112.7300484 572.371200
   2695   2699   2701     1   123.2000528 564.003200
   2700   2699   2701     1   122.1000523 635.131200
   2704   2707   2708     1   123.2000528 564.003200
   2704   2707   2709     1   112.7300484 572.371200
   2708   2707   2709     1   122.1000523 635.131200
   2713   2715   2717     1   111.6100477 551.451200
   2715   2717   2721     1   114.2100488 537.225600
   2717   2721   2722     1   109.6600471 523.836800
   2717   2721   2723     1   109.6600471 523.836800
   2721   2722   2734     1   114.2100488 537.225600
   2721   2723   2725     1   114.2100488 537.225600
   2722   2734   2737     1   111.0400475 529.694400
   2722   2721   2723     1   109.6600471 523.836800
   2723   2725   2729     1   111.0400475 529.694400
   2725   2729   2730     1   112.7300484 572.371200
   2725   2729   2731     1   123.2000528 564.003200
   2730   2729   2731     1   122.1000523 635.131200
   2734   2737   2738     1   123.2000528 564.003200
   2734   2737   2739     1   112.7300484 572.371200
   2738   2737   2739     1   122.1000523 635.131200
   2743   2745   2747     1   111.6100477 551.451200
   2745   2747   2751     1   114.2100488 537.225600
   2747   2751   2752     1   109.6600471 523.836800
   2747   2751   2753     1   109.6600471 523.836800
   2751   2752   2764     1   114.2100488 537.225600
   2751   2753   2755     1   114.2100488 537.225600
   2752   2751   2753     1   109.6600471 523.836800
   2752   2764   2767     1   111.0400475 529.694400
   2753   2755   2759     1   111.0400475 529.694400
   2755   2759   2760     1   112.7300484 572.371200
   2755   2759   2761     1   123.2000528 564.003200
   2760   2759   2761     1   122.1000523 635.131200
   2764   2767   2768     1   123.2000528 564.003200
   2764   2767   2769     1   112.7300484 572.371200
   2768   2767   2769     1   122.1000523 635.131200
   2773   2775   2777     1   111.6100477 551.451200
   2775   2777   2781     1   114.2100488 537.225600
   2777   2781   2782     1   109.6600471 523.836800
   2777   2781   2783     1   109.6600471 523.836800
   2781   2782   2794     1   114.2100488 537.225600
   2781   2783   2785     1   114.2100488 537.225600
   2782   2794   2797     1   111.0400475 529.694400
   2782   2781   2783     1   109.6600471 523.836800
   2783   2785   2789     1   111.0400475 529.694400
   2785   2789   2790     1   112.7300484 572.371200
   2785   2789   2791     1   123.2000528 564.003200
   2790   2789   2791     1   122.1000523 635.131200
   2794   2797   2798     1   123.2000528 564.003200
   2794   2797   2799     1   112.7300484 572.371200
   2798   2797   2799     1   122.1000523 635.131200
   2803   2805   2807     1   111.6100477 551.451200
   2805   2807   2811     1   114.2100488 537.225600
   2807   2811   2812     1   109.6600471 523.836800
   2807   2811   2813     1   109.6600471 523.836800
   2811   2812   2824     1   114.2100488 537.225600
   2811   2813   2815     1   114.2100488 537.225600
   2812   2811   2813     1   109.6600471 523.836800
   2812   2824   2827     1   111.0400475 529.694400
   2813   2815   2819     1   111.0400475 529.694400
   2815   2819   2820     1   112.7300484 572.371200
   2815   2819   2821     1   123.2000528 564.003200
   2820   2819   2821     1   122.1000523 635.131200
   2824   2827   2828     1   123.2000528 564.003200
   2824   2827   2829     1   112.7300484 572.371200
   2828   2827   2829     1   122.1000523 635.131200
   2833   2835   2837     1   111.6100477 551.451200
   2835   2837   2841     1   114.2100488 537.225600
   2837   2841   2842     1   109.6600471 523.836800
   2837   2841   2843     1   109.6600471 523.836800
   2841   2842   2854     1   114.2100488 537.225600
   2841   2843   2845     1   114.2100488 537.225600
   2842   2854   2857     1   111.0400475 529.694400
   2842   2841   2843     1   109.6600471 523.836800
   2843   2845   2849     1   111.0400475 529.694400
   2845   2849   2850     1   112.7300484 572.371200
   2845   2849   2851     1   123.2000528 564.003200
   2850   2849   2851     1   122.1000523 635.131200
   2854   2857   2858     1   123.2000528 564.003200
   2854   2857   2859     1   112.7300484 572.371200
   2858   2857   2859     1   122.1000523 635.131200
   2863   2865   2867     1   111.6100477 551.451200
   2865   2867   2871     1   114.2100488 537.225600
   2867   2871   2872     1   109.6600471 523.836800
   2867   2871   2873     1   109.6600471 523.836800
   2871   2872   2884     1   114.2100488 537.225600
   2871   2873   2875     1   114.2100488 537.225600
   2872   2871   2873     1   109.6600471 523.836800
   2872   2884   2887     1   111.0400475 529.694400
   2873   2875   2879     1   111.0400475 529.694400
   2875   2879   2880     1   112.7300484 572.371200
   2875   2879   2881     1   123.2000528 564.003200
   2880   2879   2881     1   122.1000523 635.131200
   2884   2887   2888     1   123.2000528 564.003200
   2884   2887   2889     1   112.7300484 572.371200
   2888   2887   2889     1   122.1000523 635.131200
   2893   2895   2897     1   111.6100477 551.451200
   2895   2897   2901     1   114.2100488 537.225600
   2897   2901   2902     1   109.6600471 523.836800
   2897   2901   2903     1   109.6600471 523.836800
   2901   2902   2914     1   114.2100488 537.225600
   2901   2903   2905     1   114.2100488 537.225600
   2902   2914   2917     1   111.0400475 529.694400
   2902   2901   2903     1   109.6600471 523.836800
   2903   2905   2909     1   111.0400475 529.694400
   2905   2909   2910     1   112.7300484 572.371200
   2905   2909   2911     1   123.2000528 564.003200
   2910   2909   2911     1   122.1000523 635.131200
   2914   2917   2918     1   123.2000528 564.003200
   2914   2917   2919     1   112.7300484 572.371200
   2918   2917   2919     1   122.1000523 635.131200
   2923   2925   2927     1   111.6100477 551.451200
   2925   2927   2931     1   114.2100488 537.225600
   2927   2931   2932     1   109.6600471 523.836800
   2927   2931   2933     1   109.6600471 523.836800
   2931   2932   2944     1   114.2100488 537.225600
   2931   2933   2935     1   114.2100488 537.225600
   2932   2931   2933     1   109.6600471 523.836800
   2932   2944   2947     1   111.0400475 529.694400
   2933   2935   2939     1   111.0400475 529.694400
   2935   2939   2940     1   112.7300484 572.371200
   2935   2939   2941     1   123.2000528 564.003200
   2940   2939   2941     1   122.1000523 635.131200
   2944   2947   2948     1   123.2000528 564.003200
   2944   2947   2949     1   112.7300484 572.371200
   2948   2947   2949     1   122.1000523 635.131200
   2953   2955   2957     1   111.6100477 551.451200
   2955   2957   2961     1   114.2100488 537.225600
   2957   2961   2962     1   109.6600471 523.836800
   2957   2961   2963     1   109.6600471 523.836800
   2961   2962   2974     1   114.2100488 537.225600
   2961   2963   2965     1   114.2100488 537.225600
   2962   2974   2977     1   111.0400475 529.694400
   2962   2961   2963     1   109.6600471 523.836800
   2963   2965   2969     1   111.0400475 529.694400
   2965   2969   2970     1   112.7300484 572.371200
   2965   2969   2971     1   123.2000528 564.003200
   2970   2969   2971     1   122.1000523 635.131200
   2974   2977   2978     1   123.2000528 564.003200
   2974   2977   2979     1   112.7300484 572.371200
   2978   2977   2979     1   122.1000523 635.131200
   2983   2985   2987     1   111.6100477 551.451200
   2985   2987   2991     1   114.2100488 537.225600
   2987   2991   2992     1   109.6600471 523.836800
   2987   2991   2993     1   109.6600471 523.836800
   2991   2992   3004     1   114.2100488 537.225600
   2991   2993   2995     1   114.2100488 537.225600
   2992   2991   2993     1   109.6600471 523.836800
   2992   3004   3007     1   111.0400475 529.694400
   2993   2995   2999     1   111.0400475 529.694400
   2995   2999   3000     1   112.7300484 572.371200
   2995   2999   3001     1   123.2000528 564.003200
   3000   2999   3001     1   122.1000523 635.131200
   3004   3007   3008     1   123.2000528 564.003200
   3004   3007   3009     1   112.7300484 572.371200
   3008   3007   3009     1   122.1000523 635.131200
   3013   3015   3017     1   111.6100477 551.451200
   3015   3017   3021     1   114.2100488 537.225600
   3017   3021   3022     1   109.6600471 523.836800
   3017   3021   3023     1   109.6600471 523.836800
   3021   3022   3034     1   114.2100488 537.225600
   3021   3023   3025     1   114.2100488 537.225600
   3022   3034   3037     1   111.0400475 529.694400
   3022   3021   3023     1   109.6600471 523.836800
   3023   3025   3029     1   111.0400475 529.694400
   3025   3029   3030     1   112.7300484 572.371200
   3025   3029   3031     1   123.2000528 564.003200
   3030   3029   3031     1   122.1000523 635.131200
   3034   3037   3038     1   123.2000528 564.003200
   3034   3037   3039     1   112.7300484 572.371200
   3038   3037   3039     1   122.1000523 635.131200
   3043   3045   3047     1   111.6100477 551.451200
   3045   3047   3051     1   114.2100488 537.225600
   3047   3051   3052     1   109.6600471 523.836800
   3047   3051   3053     1   109.6600471 523.836800
   3051   3052   3064     1   114.2100488 537.225600
   3051   3053   3055     1   114.2100488 537.225600
   3052   3051   3053     1   109.6600471 523.836800
   3052   3064   3067     1   111.0400475 529.694400
   3053   3055   3059     1   111.0400475 529.694400
   3055   3059   3060     1   112.7300484 572.371200
   3055   3059   3061     1   123.2000528 564.003200
   3060   3059   3061     1   122.1000523 635.131200
   3064   3067   3068     1   123.2000528 564.003200
   3064   3067   3069     1   112.7300484 572.371200
   3068   3067   3069     1   122.1000523 635.131200
   3073   3075   3077     1   111.6100477 551.451200
   3075   3077   3081     1   114.2100488 537.225600
   3077   3081   3082     1   109.6600471 523.836800
   3077   3081   3083     1   109.6600471 523.836800
   3081   3082   3094     1   114.2100488 537.225600
   3081   3083   3085     1   114.2100488 537.225600
   3082   3094   3097     1   111.0400475 529.694400
   3082   3081   3083     1   109.6600471 523.836800
   3083   3085   3089     1   111.0400475 529.694400
   3085   3089   3090     1   112.7300484 572.371200
   3085   3089   3091     1   123.2000528 564.003200
   3090   3089   3091     1   122.1000523 635.131200
   3094   3097   3098     1   123.2000528 564.003200
   3094   3097   3099     1   112.7300484 572.371200
   3098   3097   3099     1   122.1000523 635.131200
   3103   3105   3107     1   111.6100477 551.451200
   3105   3107   3111     1   114.2100488 537.225600
   3107   3111   3112     1   109.6600471 523.836800
   3107   3111   3113     1   109.6600471 523.836800
   3111   3112   3124     1   114.2100488 537.225600
   3111   3113   3115     1   114.2100488 537.225600
   3112   3111   3113     1   109.6600471 523.836800
   3112   3124   3127     1   111.0400475 529.694400
   3113   3115   3119     1   111.0400475 529.694400
   3115   3119   3120     1   112.7300484 572.371200
   3115   3119   3121     1   123.2000528 564.003200
   3120   3119   3121     1   122.1000523 635.131200
   3124   3127   3128     1   123.2000528 564.003200
   3124   3127   3129     1   112.7300484 572.371200
   3128   3127   3129     1   122.1000523 635.131200
   3133   3135   3137     1   111.6100477 551.451200
   3135   3137   3141     1   114.2100488 537.225600
   3137   3141   3142     1   109.6600471 523.836800
   3137   3141   3143     1   109.6600471 523.836800
   3141   3142   3154     1   114.2100488 537.225600
   3141   3143   3145     1   114.2100488 537.225600
   3142   3154   3157     1   111.0400475 529.694400
   3142   3141   3143     1   109.6600471 523.836800
   3143   3145   3149     1   111.0400475 529.694400
   3145   3149   3150     1   112.7300484 572.371200
   3145   3149   3151     1   123.2000528 564.003200
   3150   3149   3151     1   122.1000523 635.131200
   3154   3157   3158     1   123.2000528 564.003200
   3154   3157   3159     1   112.7300484 572.371200
   3158   3157   3159     1   122.1000523 635.131200
   3163   3165   3167     1   111.6100477 551.451200
   3165   3167   3171     1   114.2100488 537.225600
   3167   3171   3172     1   109.6600471 523.836800
   3167   3171   3173     1   109.6600471 523.836800
   3171   3172   3184     1   114.2100488 537.225600
   3171   3173   3175     1   114.2100488 537.225600
   3172   3171   3173     1   109.6600471 523.836800
   3172   3184   3187     1   111.0400475 529.694400
   3173   3175   3179     1   111.0400475 529.694400
   3175   3179   3180     1   112.7300484 572.371200
   3175   3179   3181     1   123.2000528 564.003200
   3180   3179   3181     1   122.1000523 635.131200
   3184   3187   3188     1   123.2000528 564.003200
   3184   3187   3189     1   112.7300484 572.371200
   3188   3187   3189     1   122.1000523 635.131200
   3193   3195   3197     1   111.6100477 551.451200
   3195   3197   3201     1   114.2100488 537.225600
   3197   3201   3202     1   109.6600471 523.836800
   3197   3201   3203     1   109.6600471 523.836800
   3201   3202   3214     1   114.2100488 537.225600
   3201   3203   3205     1   114.2100488 537.225600
   3202   3214   3217     1   111.0400475 529.694400
   3202   3201   3203     1   109.6600471 523.836800
   3203   3205   3209     1   111.0400475 529.694400
   3205   3209   3210     1   112.7300484 572.371200
   3205   3209   3211     1   123.2000528 564.003200
   3210   3209   3211     1   122.1000523 635.131200
   3214   3217   3218     1   123.2000528 564.003200
   3214   3217   3219     1   112.7300484 572.371200
   3218   3217   3219     1   122.1000523 635.131200
   3223   3225   3227     1   111.6100477 551.451200
   3225   3227   3231     1   114.2100488 537.225600
   3227   3231   3232     1   109.6600471 523.836800
   3227   3231   3233     1   109.6600471 523.836800
   3231   3232   3244     1   114.2100488 537.225600
   3231   3233   3235     1   114.2100488 537.225600
   3232   3231   3233     1   109.6600471 523.836800
   3232   3244   3247     1   111.0400475 529.694400
   3233   3235   3239     1   111.0400475 529.694400
   3235   3239   3240     1   112.7300484 572.371200
   3235   3239   3241     1   123.2000528 564.003200
   3240   3239   3241     1   122.1000523 635.131200
   3244   3247   3248     1   123.2000528 564.003200
   3244   3247   3249     1   112.7300484 572.371200
   3248   3247   3249     1   122.1000523 635.131200
   3253   3255   3257     1   111.6100477 551.451200
   3255   3257   3261     1   114.2100488 537.225600
   3257   3261   3262     1   109.6600471 523.836800
   3257   3261   3263     1   109.6600471 523.836800
   3261   3262   3274     1   114.2100488 537.225600
   3261   3263   3265     1   114.2100488 537.225600
   3262   3274   3277     1   111.0400475 529.694400
   3262   3261   3263     1   109.6600471 523.836800
   3263   3265   3269     1   111.0400475 529.694400
   3265   3269   3270     1   112.7300484 572.371200
   3265   3269   3271     1   123.2000528 564.003200
   3270   3269   3271     1   122.1000523 635.131200
   3274   3277   3278     1   123.2000528 564.003200
   3274   3277   3279     1   112.7300484 572.371200
   3278   3277   3279     1   122.1000523 635.131200
   3283   3285   3287     1   111.6100477 551.451200
   3285   3287   3291     1   114.2100488 537.225600
   3287   3291   3292     1   109.6600471 523.836800
   3287   3291   3293     1   109.6600471 523.836800
   3291   3292   3304     1   114.2100488 537.225600
   3291   3293   3295     1   114.2100488 537.225600
   3292   3291   3293     1   109.6600471 523.836800
   3292   3304   3307     1   111.0400475 529.694400
   3293   3295   3299     1   111.0400475 529.694400
   3295   3299   3300     1   112.7300484 572.371200
   3295   3299   3301     1   123.2000528 564.003200
   3300   3299   3301     1   122.1000523 635.131200
   3304   3307   3308     1   123.2000528 564.003200
   3304   3307   3309     1   112.7300484 572.371200
   3308   3307   3309     1   122.1000523 635.131200
   3313   3315   3317     1   111.6100477 551.451200
   3315   3317   3321     1   114.2100488 537.225600
   3317   3321   3322     1   109.6600471 523.836800
   3317   3321   3323     1   109.6600471 523.836800
   3321   3322   3334     1   114.2100488 537.225600
   3321   3323   3325     1   114.2100488 537.225600
   3322   3334   3337     1   111.0400475 529.694400
   3322   3321   3323     1   109.6600471 523.836800
   3323   3325   3329     1   111.0400475 529.694400
   3325   3329   3330     1   112.7300484 572.371200
   3325   3329   3331     1   123.2000528 564.003200
   3330   3329   3331     1   122.1000523 635.131200
   3334   3337   3338     1   123.2000528 564.003200
   3334   3337   3339     1   112.7300484 572.371200
   3338   3337   3339     1   122.1000523 635.131200
   3343   3345   3347     1   111.6100477 551.451200
   3345   3347   3351     1   114.2100488 537.225600
   3347   3351   3352     1   109.6600471 523.836800
   3347   3351   3353     1   109.6600471 523.836800
   3351   3352   3364     1   114.2100488 537.225600
   3351   3353   3355     1   114.2100488 537.225600
   3352   3351   3353     1   109.6600471 523.836800
   3352   3364   3367     1   111.0400475 529.694400
   3353   3355   3359     1   111.0400475 529.694400
   3355   3359   3360     1   112.7300484 572.371200
   3355   3359   3361     1   123.2000528 564.003200
   3360   3359   3361     1   122.1000523 635.131200
   3364   3367   3368     1   123.2000528 564.003200
   3364   3367   3369     1   112.7300484 572.371200
   3368   3367   3369     1   122.1000523 635.131200
   3373   3375   3377     1   111.6100477 551.451200
   3375   3377   3381     1   114.2100488 537.225600
   3377   3381   3382     1   109.6600471 523.836800
   3377   3381   3383     1   109.6600471 523.836800
   3381   3382   3394     1   114.2100488 537.225600
   3381   3383   3385     1   114.2100488 537.225600
   3382   3394   3397     1   111.0400475 529.694400
   3382   3381   3383     1   109.6600471 523.836800
   3383   3385   3389     1   111.0400475 529.694400
   3385   3389   3390     1   112.7300484 572.371200
   3385   3389   3391     1   123.2000528 564.003200
   3390   3389   3391     1   122.1000523 635.131200
   3394   3397   3398     1   123.2000528 564.003200
   3394   3397   3399     1   112.7300484 572.371200
   3398   3397   3399     1   122.1000523 635.131200
   3403   3405   3407     1   111.6100477 551.451200
   3405   3407   3411     1   114.2100488 537.225600
   3407   3411   3412     1   109.6600471 523.836800
   3407   3411   3413     1   109.6600471 523.836800
   3411   3412   3424     1   114.2100488 537.225600
   3411   3413   3415     1   114.2100488 537.225600
   3412   3411   3413     1   109.6600471 523.836800
   3412   3424   3427     1   111.0400475 529.694400
   3413   3415   3419     1   111.0400475 529.694400
   3415   3419   3420     1   112.7300484 572.371200
   3415   3419   3421     1   123.2000528 564.003200
   3420   3419   3421     1   122.1000523 635.131200
   3424   3427   3428     1   123.2000528 564.003200
   3424   3427   3429     1   112.7300484 572.371200
   3428   3427   3429     1   122.1000523 635.131200
   3433   3435   3437     1   111.6100477 551.451200
   3435   3437   3441     1   114.2100488 537.225600
   3437   3441   3442     1   109.6600471 523.836800
   3437   3441   3443     1   109.6600471 523.836800
   3441   3442   3454     1   114.2100488 537.225600
   3441   3443   3445     1   114.2100488 537.225600
   3442   3454   3457     1   111.0400475 529.694400
   3442   3441   3443     1   109.6600471 523.836800
   3443   3445   3449     1   111.0400475 529.694400
   3445   3449   3450     1   112.7300484 572.371200
   3445   3449   3451     1   123.2000528 564.003200
   3450   3449   3451     1   122.1000523 635.131200
   3454   3457   3458     1   123.2000528 564.003200
   3454   3457   3459     1   112.7300484 572.371200
   3458   3457   3459     1   122.1000523 635.131200
   3463   3465   3467     1   111.6100477 551.451200
   3465   3467   3471     1   114.2100488 537.225600
   3467   3471   3472     1   109.6600471 523.836800
   3467   3471   3473     1   109.6600471 523.836800
   3471   3472   3484     1   114.2100488 537.225600
   3471   3473   3475     1   114.2100488 537.225600
   3472   3471   3473     1   109.6600471 523.836800
   3472   3484   3487     1   111.0400475 529.694400
   3473   3475   3479     1   111.0400475 529.694400
   3475   3479   3480     1   112.7300484 572.371200
   3475   3479   3481     1   123.2000528 564.003200
   3480   3479   3481     1   122.1000523 635.131200
   3484   3487   3488     1   123.2000528 564.003200
   3484   3487   3489     1   112.7300484 572.371200
   3488   3487   3489     1   122.1000523 635.131200
   3493   3495   3497     1   111.6100477 551.451200
   3495   3497   3501     1   114.2100488 537.225600
   3497   3501   3502     1   109.6600471 523.836800
   3497   3501   3503     1   109.6600471 523.836800
   3501   3502   3514     1   114.2100488 537.225600
   3501   3503   3505     1   114.2100488 537.225600
   3502   3514   3517     1   111.0400475 529.694400
   3502   3501   3503     1   109.6600471 523.836800
   3503   3505   3509     1   111.0400475 529.694400
   3505   3509   3510     1   112.7300484 572.371200
   3505   3509   3511     1   123.2000528 564.003200
   3510   3509   3511     1   122.1000523 635.131200
   3514   3517   3518     1   123.2000528 564.003200
   3514   3517   3519     1   112.7300484 572.371200
   3518   3517   3519     1   122.1000523 635.131200
      1      2     21     1   108.0100461 406.684800
      1      2     22     1   108.0100461 406.684800
      1      7     29     1   108.0100461 406.684800
      1      7     30     1   108.0100461 406.684800
      1      8     31     1   108.0100461 406.684800
      1      8     32     1   108.0100461 406.684800
      2      1     41     1   110.1100470 384.091200
      2      3     23     1   110.5600475 386.601600
      2      3     24     1   110.5600475 386.601600
      3      2     21     1   110.5600475 386.601600
      3      2     22     1   110.5600475 386.601600
      3      4     42     1   110.1100470 384.091200
      4      3     23     1   108.0100461 406.684800
      4      3     24     1   108.0100461 406.684800
      4      5     25     1   108.0100461 406.684800
      4      5     26     1   108.0100461 406.684800
      4      6     27     1   108.0100461 406.684800
      4      6     28     1   108.0100461 406.684800
      5      4     42     1   110.1100470 384.091200
      5     11     35     1   109.8000471 387.438400
      5     11     36     1   109.8000471 387.438400
      6      4     42     1   110.1100470 384.091200
      6      9     33     1   109.8000471 387.438400
      6      9     34     1   109.8000471 387.438400
      7      1     41     1   110.1100470 384.091200
      7     13     37     1   109.8000471 387.438400
      7     13     38     1   109.8000471 387.438400
      8      1     41     1   110.1100470 384.091200
      8     15     39     1   109.8000471 387.438400
      8     15     40     1   109.8000471 387.438400
      9      6     27     1   110.5600475 386.601600
      9      6     28     1   110.5600475 386.601600
     10      9     33     1   108.7700466 392.459200
     10      9     34     1   108.7700466 392.459200
     10     52     67     1   117.5500507 404.174400
     11      5     25     1   110.5600475 386.601600
     11      5     26     1   110.5600475 386.601600
     12     11     35     1   108.7700466 392.459200
     12     11     36     1   108.7700466 392.459200
     12     78     93     1   117.5500507 404.174400
     13      7     29     1   110.5600475 386.601600
     13      7     30     1   110.5600475 386.601600
     14     13     37     1   108.7700466 392.459200
     14     13     38     1   108.7700466 392.459200
     14    104    119     1   117.5500507 404.174400
     15      8     31     1   110.5600475 386.601600
     15      8     32     1   110.5600475 386.601600
     16     15     39     1   108.7700466 392.459200
     16     15     40     1   108.7700466 392.459200
     16    130    145     1   117.5500507 404.174400
     21      2     22     1   109.7500473 328.025600
     23      3     24     1   109.7500473 328.025600
     25      5     26     1   109.7500473 328.025600
     27      6     28     1   109.7500473 328.025600
     29      7     30     1   109.7500473 328.025600
     31      8     32     1   109.7500473 328.025600
     33      9     34     1   107.5800459 329.699200
     35     11     36     1   107.5800459 329.699200
     37     13     38     1   107.5800459 329.699200
     39     15     40     1   107.5800459 329.699200
     43     44     55     1   108.0100461 406.684800
     43     44     56     1   108.0100461 406.684800
     43     45     57     1   108.0100461 406.684800
     43     45     58     1   108.0100461 406.684800
     43     50     63     1   108.0100461 406.684800
     43     50     64     1   108.0100461 406.684800
     44     43     68     1   110.1100470 384.091200
     44     46     59     1   109.8000471 387.438400
     44     46     60     1   109.8000471 387.438400
     45     43     68     1   110.1100470 384.091200
     45     48     61     1   109.8000471 387.438400
     45     48     62     1   109.8000471 387.438400
     46     44     55     1   110.5600475 386.601600
     46     44     56     1   110.5600475 386.601600
     47     46     59     1   108.7700466 392.459200
     47     46     60     1   108.7700466 392.459200
     47    156    171     1   117.5500507 404.174400
     48     45     57     1   110.5600475 386.601600
     48     45     58     1   110.5600475 386.601600
     49     48     61     1   108.7700466 392.459200
     49     48     62     1   108.7700466 392.459200
     49    182    197     1   117.5500507 404.174400
     50     43     68     1   110.1100470 384.091200
     50     51     65     1   109.5600471 388.275200
     50     51     66     1   109.5600471 388.275200
     51     50     63     1   110.5600475 386.601600
     51     50     64     1   110.5600475 386.601600
     51     52     67     1   117.6800502 383.254400
     52     51     65     1   108.8800464 416.726400
     52     51     66     1   108.8800464 416.726400
     55     44     56     1   109.7500473 328.025600
     57     45     58     1   109.7500473 328.025600
     59     46     60     1   107.5800459 329.699200
     61     48     62     1   107.5800459 329.699200
     63     50     64     1   109.7500473 328.025600
     65     51     66     1   108.4600466 328.025600
     69     70     81     1   108.0100461 406.684800
     69     70     82     1   108.0100461 406.684800
     69     71     83     1   108.0100461 406.684800
     69     71     84     1   108.0100461 406.684800
     69     76     89     1   108.0100461 406.684800
     69     76     90     1   108.0100461 406.684800
     70     69     94     1   110.1100470 384.091200
     70     72     85     1   109.8000471 387.438400
     70     72     86     1   109.8000471 387.438400
     71     69     94     1   110.1100470 384.091200
     71     74     87     1   109.8000471 387.438400
     71     74     88     1   109.8000471 387.438400
     72     70     81     1   110.5600475 386.601600
     72     70     82     1   110.5600475 386.601600
     73     72     85     1   108.7700466 392.459200
     73     72     86     1   108.7700466 392.459200
     73    208    223     1   117.5500507 404.174400
     74     71     83     1   110.5600475 386.601600
     74     71     84     1   110.5600475 386.601600
     75     74     87     1   108.7700466 392.459200
     75     74     88     1   108.7700466 392.459200
     75    234    249     1   117.5500507 404.174400
     76     69     94     1   110.1100470 384.091200
     76     77     91     1   109.5600471 388.275200
     76     77     92     1   109.5600471 388.275200
     77     76     89     1   110.5600475 386.601600
     77     76     90     1   110.5600475 386.601600
     77     78     93     1   117.6800502 383.254400
     78     77     91     1   108.8800464 416.726400
     78     77     92     1   108.8800464 416.726400
     81     70     82     1   109.7500473 328.025600
     83     71     84     1   109.7500473 328.025600
     85     72     86     1   107.5800459 329.699200
     87     74     88     1   107.5800459 329.699200
     89     76     90     1   109.7500473 328.025600
     91     77     92     1   108.4600466 328.025600
     95     96    107     1   108.0100461 406.684800
     95     96    108     1   108.0100461 406.684800
     95     97    109     1   108.0100461 406.684800
     95     97    110     1   108.0100461 406.684800
     95    102    115     1   108.0100461 406.684800
     95    102    116     1   108.0100461 406.684800
     96     95    120     1   110.1100470 384.091200
     96     98    111     1   109.8000471 387.438400
     96     98    112     1   109.8000471 387.438400
     97     95    120     1   110.1100470 384.091200
     97    100    113     1   109.8000471 387.438400
     97    100    114     1   109.8000471 387.438400
     98     96    107     1   110.5600475 386.601600
     98     96    108     1   110.5600475 386.601600
     99     98    111     1   108.7700466 392.459200
     99     98    112     1   108.7700466 392.459200
     99    260    275     1   117.5500507 404.174400
    100     97    109     1   110.5600475 386.601600
    100     97    110     1   110.5600475 386.601600
    101    100    113     1   108.7700466 392.459200
    101    100    114     1   108.7700466 392.459200
    101    286    301     1   117.5500507 404.174400
    102     95    120     1   110.1100470 384.091200
    102    103    117     1   109.5600471 388.275200
    102    103    118     1   109.5600471 388.275200
    103    102    115     1   110.5600475 386.601600
    103    102    116     1   110.5600475 386.601600
    103    104    119     1   117.6800502 383.254400
    104    103    117     1   108.8800464 416.726400
    104    103    118     1   108.8800464 416.726400
    107     96    108     1   109.7500473 328.025600
    109     97    110     1   109.7500473 328.025600
    111     98    112     1   107.5800459 329.699200
    113    100    114     1   107.5800459 329.699200
    115    102    116     1   109.7500473 328.025600
    117    103    118     1   108.4600466 328.025600
    121    122    133     1   108.0100461 406.684800
    121    122    134     1   108.0100461 406.684800
    121    123    135     1   108.0100461 406.684800
    121    123    136     1   108.0100461 406.684800
    121    128    141     1   108.0100461 406.684800
    121    128    142     1   108.0100461 406.684800
    122    121    146     1   110.1100470 384.091200
    122    124    137     1   109.8000471 387.438400
    122    124    138     1   109.8000471 387.438400
    123    121    146     1   110.1100470 384.091200
    123    126    139     1   109.8000471 387.438400
    123    126    140     1   109.8000471 387.438400
    124    122    133     1   110.5600475 386.601600
    124    122    134     1   110.5600475 386.601600
    125    124    137     1   108.7700466 392.459200
    125    124    138     1   108.7700466 392.459200
    125    312    327     1   117.5500507 404.174400
    126    123    135     1   110.5600475 386.601600
    126    123    136     1   110.5600475 386.601600
    127    126    139     1   108.7700466 392.459200
    127    126    140     1   108.7700466 392.459200
    127    338    353     1   117.5500507 404.174400
    128    121    146     1   110.1100470 384.091200
    128    129    143     1   109.5600471 388.275200
    128    129    144     1   109.5600471 388.275200
    129    128    141     1   110.5600475 386.601600
    129    128    142     1   110.5600475 386.601600
    129    130    145     1   117.6800502 383.254400
    130    129    143     1   108.8800464 416.726400
    130    129    144     1   108.8800464 416.726400
    133    122    134     1   109.7500473 328.025600
    135    123    136     1   109.7500473 328.025600
    137    124    138     1   107.5800459 329.699200
    139    126    140     1   107.5800459 329.699200
    141    128    142     1   109.7500473 328.025600
    143    129    144     1   108.4600466 328.025600
    147    148    159     1   108.0100461 406.684800
    147    148    160     1   108.0100461 406.684800
    147    149    161     1   108.0100461 406.684800
    147    149    162     1   108.0100461 406.684800
    147    154    167     1   108.0100461 406.684800
    147    154    168     1   108.0100461 406.684800
    148    147    172     1   110.1100470 384.091200
    148    150    163     1   109.8000471 387.438400
    148    150    164     1   109.8000471 387.438400
    149    147    172     1   110.1100470 384.091200
    149    152    165     1   109.8000471 387.438400
    149    152    166     1   109.8000471 387.438400
    150    148    159     1   110.5600475 386.601600
    150    148    160     1   110.5600475 386.601600
    151    150    163     1   108.7700466 392.459200
    151    150    164     1   108.7700466 392.459200
    151    364    379     1   117.5500507 404.174400
    152    149    161     1   110.5600475 386.601600
    152    149    162     1   110.5600475 386.601600
    153    152    165     1   108.7700466 392.459200
    153    152    166     1   108.7700466 392.459200
    153    390    405     1   117.5500507 404.174400
    154    147    172     1   110.1100470 384.091200
    154    155    169     1   109.5600471 388.275200
    154    155    170     1   109.5600471 388.275200
    155    154    167     1   110.5600475 386.601600
    155    154    168     1   110.5600475 386.601600
    155    156    171     1   117.6800502 383.254400
    156    155    169     1   108.8800464 416.726400
    156    155    170     1   108.8800464 416.726400
    159    148    160     1   109.7500473 328.025600
    161    149    162     1   109.7500473 328.025600
    163    150    164     1   107.5800459 329.699200
    165    152    166     1   107.5800459 329.699200
    167    154    168     1   109.7500473 328.025600
    169    155    170     1   108.4600466 328.025600
    173    174    185     1   108.0100461 406.684800
    173    174    186     1   108.0100461 406.684800
    173    175    187     1   108.0100461 406.684800
    173    175    188     1   108.0100461 406.684800
    173    180    193     1   108.0100461 406.684800
    173    180    194     1   108.0100461 406.684800
    174    173    198     1   110.1100470 384.091200
    174    176    189     1   109.8000471 387.438400
    174    176    190     1   109.8000471 387.438400
    175    173    198     1   110.1100470 384.091200
    175    178    191     1   109.8000471 387.438400
    175    178    192     1   109.8000471 387.438400
    176    174    185     1   110.5600475 386.601600
    176    174    186     1   110.5600475 386.601600
    177    176    189     1   108.7700466 392.459200
    177    176    190     1   108.7700466 392.459200
    177    416    431     1   117.5500507 404.174400
    178    175    187     1   110.5600475 386.601600
    178    175    188     1   110.5600475 386.601600
    179    178    191     1   108.7700466 392.459200
    179    178    192     1   108.7700466 392.459200
    179    442    457     1   117.5500507 404.174400
    180    173    198     1   110.1100470 384.091200
    180    181    195     1   109.5600471 388.275200
    180    181    196     1   109.5600471 388.275200
    181    180    193     1   110.5600475 386.601600
    181    180    194     1   110.5600475 386.601600
    181    182    197     1   117.6800502 383.254400
    182    181    195     1   108.8800464 416.726400
    182    181    196     1   108.8800464 416.726400
    185    174    186     1   109.7500473 328.025600
    187    175    188     1   109.7500473 328.025600
    189    176    190     1   107.5800459 329.699200
    191    178    192     1   107.5800459 329.699200
    193    180    194     1   109.7500473 328.025600
    195    181    196     1   108.4600466 328.025600
    199    200    211     1   108.0100461 406.684800
    199    200    212     1   108.0100461 406.684800
    199    201    213     1   108.0100461 406.684800
    199    201    214     1   108.0100461 406.684800
    199    206    219     1   108.0100461 406.684800
    199    206    220     1   108.0100461 406.684800
    200    199    224     1   110.1100470 384.091200
    200    202    215     1   109.8000471 387.438400
    200    202    216     1   109.8000471 387.438400
    201    199    224     1   110.1100470 384.091200
    201    204    217     1   109.8000471 387.438400
    201    204    218     1   109.8000471 387.438400
    202    200    211     1   110.5600475 386.601600
    202    200    212     1   110.5600475 386.601600
    203    202    215     1   108.7700466 392.459200
    203    202    216     1   108.7700466 392.459200
    203    468    483     1   117.5500507 404.174400
    204    201    213     1   110.5600475 386.601600
    204    201    214     1   110.5600475 386.601600
    205    204    217     1   108.7700466 392.459200
    205    204    218     1   108.7700466 392.459200
    205    494    509     1   117.5500507 404.174400
    206    199    224     1   110.1100470 384.091200
    206    207    221     1   109.5600471 388.275200
    206    207    222     1   109.5600471 388.275200
    207    206    219     1   110.5600475 386.601600
    207    206    220     1   110.5600475 386.601600
    207    208    223     1   117.6800502 383.254400
    208    207    221     1   108.8800464 416.726400
    208    207    222     1   108.8800464 416.726400
    211    200    212     1   109.7500473 328.025600
    213    201    214     1   109.7500473 328.025600
    215    202    216     1   107.5800459 329.699200
    217    204    218     1   107.5800459 329.699200
    219    206    220     1   109.7500473 328.025600
    221    207    222     1   108.4600466 328.025600
    225    226    237     1   108.0100461 406.684800
    225    226    238     1   108.0100461 406.684800
    225    227    239     1   108.0100461 406.684800
    225    227    240     1   108.0100461 406.684800
    225    232    245     1   108.0100461 406.684800
    225    232    246     1   108.0100461 406.684800
    226    225    250     1   110.1100470 384.091200
    226    228    241     1   109.8000471 387.438400
    226    228    242     1   109.8000471 387.438400
    227    225    250     1   110.1100470 384.091200
    227    230    243     1   109.8000471 387.438400
    227    230    244     1   109.8000471 387.438400
    228    226    237     1   110.5600475 386.601600
    228    226    238     1   110.5600475 386.601600
    229    228    241     1   108.7700466 392.459200
    229    228    242     1   108.7700466 392.459200
    229    520    535     1   117.5500507 404.174400
    230    227    239     1   110.5600475 386.601600
    230    227    240     1   110.5600475 386.601600
    231    230    243     1   108.7700466 392.459200
    231    230    244     1   108.7700466 392.459200
    231    546    561     1   117.5500507 404.174400
    232    225    250     1   110.1100470 384.091200
    232    233    247     1   109.5600471 388.275200
    232    233    248     1   109.5600471 388.275200
    233    232    245     1   110.5600475 386.601600
    233    232    246     1   110.5600475 386.601600
    233    234    249     1   117.6800502 383.254400
    234    233    247     1   108.8800464 416.726400
    234    233    248     1   108.8800464 416.726400
    237    226    238     1   109.7500473 328.025600
    239    227    240     1   109.7500473 328.025600
    241    228    242     1   107.5800459 329.699200
    243    230    244     1   107.5800459 329.699200
    245    232    246     1   109.7500473 328.025600
    247    233    248     1   108.4600466 328.025600
    251    252    263     1   108.0100461 406.684800
    251    252    264     1   108.0100461 406.684800
    251    253    265     1   108.0100461 406.684800
    251    253    266     1   108.0100461 406.684800
    251    258    271     1   108.0100461 406.684800
    251    258    272     1   108.0100461 406.684800
    252    251    276     1   110.1100470 384.091200
    252    254    267     1   109.8000471 387.438400
    252    254    268     1   109.8000471 387.438400
    253    251    276     1   110.1100470 384.091200
    253    256    269     1   109.8000471 387.438400
    253    256    270     1   109.8000471 387.438400
    254    252    263     1   110.5600475 386.601600
    254    252    264     1   110.5600475 386.601600
    255    254    267     1   108.7700466 392.459200
    255    254    268     1   108.7700466 392.459200
    255    572    587     1   117.5500507 404.174400
    256    253    265     1   110.5600475 386.601600
    256    253    266     1   110.5600475 386.601600
    257    256    269     1   108.7700466 392.459200
    257    256    270     1   108.7700466 392.459200
    257    598    613     1   117.5500507 404.174400
    258    251    276     1   110.1100470 384.091200
    258    259    273     1   109.5600471 388.275200
    258    259    274     1   109.5600471 388.275200
    259    258    271     1   110.5600475 386.601600
    259    258    272     1   110.5600475 386.601600
    259    260    275     1   117.6800502 383.254400
    260    259    273     1   108.8800464 416.726400
    260    259    274     1   108.8800464 416.726400
    263    252    264     1   109.7500473 328.025600
    265    253    266     1   109.7500473 328.025600
    267    254    268     1   107.5800459 329.699200
    269    256    270     1   107.5800459 329.699200
    271    258    272     1   109.7500473 328.025600
    273    259    274     1   108.4600466 328.025600
    277    278    289     1   108.0100461 406.684800
    277    278    290     1   108.0100461 406.684800
    277    279    291     1   108.0100461 406.684800
    277    279    292     1   108.0100461 406.684800
    277    284    297     1   108.0100461 406.684800
    277    284    298     1   108.0100461 406.684800
    278    277    302     1   110.1100470 384.091200
    278    280    293     1   109.8000471 387.438400
    278    280    294     1   109.8000471 387.438400
    279    277    302     1   110.1100470 384.091200
    279    282    295     1   109.8000471 387.438400
    279    282    296     1   109.8000471 387.438400
    280    278    289     1   110.5600475 386.601600
    280    278    290     1   110.5600475 386.601600
    281    280    293     1   108.7700466 392.459200
    281    280    294     1   108.7700466 392.459200
    281    624    639     1   117.5500507 404.174400
    282    279    291     1   110.5600475 386.601600
    282    279    292     1   110.5600475 386.601600
    283    282    295     1   108.7700466 392.459200
    283    282    296     1   108.7700466 392.459200
    283    650    665     1   117.5500507 404.174400
    284    277    302     1   110.1100470 384.091200
    284    285    299     1   109.5600471 388.275200
    284    285    300     1   109.5600471 388.275200
    285    284    297     1   110.5600475 386.601600
    285    284    298     1   110.5600475 386.601600
    285    286    301     1   117.6800502 383.254400
    286    285    299     1   108.8800464 416.726400
    286    285    300     1   108.8800464 416.726400
    289    278    290     1   109.7500473 328.025600
    291    279    292     1   109.7500473 328.025600
    293    280    294     1   107.5800459 329.699200
    295    282    296     1   107.5800459 329.699200
    297    284    298     1   109.7500473 328.025600
    299    285    300     1   108.4600466 328.025600
    303    304    315     1   108.0100461 406.684800
    303    304    316     1   108.0100461 406.684800
    303    305    317     1   108.0100461 406.684800
    303    305    318     1   108.0100461 406.684800
    303    310    323     1   108.0100461 406.684800
    303    310    324     1   108.0100461 406.684800
    304    303    328     1   110.1100470 384.091200
    304    306    319     1   109.8000471 387.438400
    304    306    320     1   109.8000471 387.438400
    305    303    328     1   110.1100470 384.091200
    305    308    321     1   109.8000471 387.438400
    305    308    322     1   109.8000471 387.438400
    306    304    315     1   110.5600475 386.601600
    306    304    316     1   110.5600475 386.601600
    307    306    319     1   108.7700466 392.459200
    307    306    320     1   108.7700466 392.459200
    307    676    691     1   117.5500507 404.174400
    308    305    317     1   110.5600475 386.601600
    308    305    318     1   110.5600475 386.601600
    309    308    321     1   108.7700466 392.459200
    309    308    322     1   108.7700466 392.459200
    309    702    717     1   117.5500507 404.174400
    310    303    328     1   110.1100470 384.091200
    310    311    325     1   109.5600471 388.275200
    310    311    326     1   109.5600471 388.275200
    311    310    323     1   110.5600475 386.601600
    311    310    324     1   110.5600475 386.601600
    311    312    327     1   117.6800502 383.254400
    312    311    325     1   108.8800464 416.726400
    312    311    326     1   108.8800464 416.726400
    315    304    316     1   109.7500473 328.025600
    317    305    318     1   109.7500473 328.025600
    319    306    320     1   107.5800459 329.699200
    321    308    322     1   107.5800459 329.699200
    323    310    324     1   109.7500473 328.025600
    325    311    326     1   108.4600466 328.025600
    329    330    341     1   108.0100461 406.684800
    329    330    342     1   108.0100461 406.684800
    329    331    343     1   108.0100461 406.684800
    329    331    344     1   108.0100461 406.684800
    329    336    349     1   108.0100461 406.684800
    329    336    350     1   108.0100461 406.684800
    330    329    354     1   110.1100470 384.091200
    330    332    345     1   109.8000471 387.438400
    330    332    346     1   109.8000471 387.438400
    331    329    354     1   110.1100470 384.091200
    331    334    347     1   109.8000471 387.438400
    331    334    348     1   109.8000471 387.438400
    332    330    341     1   110.5600475 386.601600
    332    330    342     1   110.5600475 386.601600
    333    332    345     1   108.7700466 392.459200
    333    332    346     1   108.7700466 392.459200
    333    728    743     1   117.5500507 404.174400
    334    331    343     1   110.5600475 386.601600
    334    331    344     1   110.5600475 386.601600
    335    334    347     1   108.7700466 392.459200
    335    334    348     1   108.7700466 392.459200
    335    754    769     1   117.5500507 404.174400
    336    329    354     1   110.1100470 384.091200
    336    337    351     1   109.5600471 388.275200
    336    337    352     1   109.5600471 388.275200
    337    336    349     1   110.5600475 386.601600
    337    336    350     1   110.5600475 386.601600
    337    338    353     1   117.6800502 383.254400
    338    337    351     1   108.8800464 416.726400
    338    337    352     1   108.8800464 416.726400
    341    330    342     1   109.7500473 328.025600
    343    331    344     1   109.7500473 328.025600
    345    332    346     1   107.5800459 329.699200
    347    334    348     1   107.5800459 329.699200
    349    336    350     1   109.7500473 328.025600
    351    337    352     1   108.4600466 328.025600
    355    356    367     1   108.0100461 406.684800
    355    356    368     1   108.0100461 406.684800
    355    357    369     1   108.0100461 406.684800
    355    357    370     1   108.0100461 406.684800
    355    362    375     1   108.0100461 406.684800
    355    362    376     1   108.0100461 406.684800
    356    355    380     1   110.1100470 384.091200
    356    358    371     1   109.8000471 387.438400
    356    358    372     1   109.8000471 387.438400
    357    355    380     1   110.1100470 384.091200
    357    360    373     1   109.8000471 387.438400
    357    360    374     1   109.8000471 387.438400
    358    356    367     1   110.5600475 386.601600
    358    356    368     1   110.5600475 386.601600
    359    358    371     1   108.7700466 392.459200
    359    358    372     1   108.7700466 392.459200
    359    780    795     1   117.5500507 404.174400
    360    357    369     1   110.5600475 386.601600
    360    357    370     1   110.5600475 386.601600
    361    360    373     1   108.7700466 392.459200
    361    360    374     1   108.7700466 392.459200
    361    806    821     1   117.5500507 404.174400
    362    355    380     1   110.1100470 384.091200
    362    363    377     1   109.5600471 388.275200
    362    363    378     1   109.5600471 388.275200
    363    362    375     1   110.5600475 386.601600
    363    362    376     1   110.5600475 386.601600
    363    364    379     1   117.6800502 383.254400
    364    363    377     1   108.8800464 416.726400
    364    363    378     1   108.8800464 416.726400
    367    356    368     1   109.7500473 328.025600
    369    357    370     1   109.7500473 328.025600
    371    358    372     1   107.5800459 329.699200
    373    360    374     1   107.5800459 329.699200
    375    362    376     1   109.7500473 328.025600
    377    363    378     1   108.4600466 328.025600
    381    382    393     1   108.0100461 406.684800
    381    382    394     1   108.0100461 406.684800
    381    383    395     1   108.0100461 406.684800
    381    383    396     1   108.0100461 406.684800
    381    388    401     1   108.0100461 406.684800
    381    388    402     1   108.0100461 406.684800
    382    381    406     1   110.1100470 384.091200
    382    384    397     1   109.8000471 387.438400
    382    384    398     1   109.8000471 387.438400
    383    381    406     1   110.1100470 384.091200
    383    386    399     1   109.8000471 387.438400
    383    386    400     1   109.8000471 387.438400
    384    382    393     1   110.5600475 386.601600
    384    382    394     1   110.5600475 386.601600
    385    384    397     1   108.7700466 392.459200
    385    384    398     1   108.7700466 392.459200
    385    832    847     1   117.5500507 404.174400
    386    383    395     1   110.5600475 386.601600
    386    383    396     1   110.5600475 386.601600
    387    386    399     1   108.7700466 392.459200
    387    386    400     1   108.7700466 392.459200
    387    858    873     1   117.5500507 404.174400
    388    381    406     1   110.1100470 384.091200
    388    389    403     1   109.5600471 388.275200
    388    389    404     1   109.5600471 388.275200
    389    388    401     1   110.5600475 386.601600
    389    388    402     1   110.5600475 386.601600
    389    390    405     1   117.6800502 383.254400
    390    389    403     1   108.8800464 416.726400
    390    389    404     1   108.8800464 416.726400
    393    382    394     1   109.7500473 328.025600
    395    383    396     1   109.7500473 328.025600
    397    384    398     1   107.5800459 329.699200
    399    386    400     1   107.5800459 329.699200
    401    388    402     1   109.7500473 328.025600
    403    389    404     1   108.4600466 328.025600
    407    408    419     1   108.0100461 406.684800
    407    408    420     1   108.0100461 406.684800
    407    409    421     1   108.0100461 406.684800
    407    409    422     1   108.0100461 406.684800
    407    414    427     1   108.0100461 406.684800
    407    414    428     1   108.0100461 406.684800
    408    407    432     1   110.1100470 384.091200
    408    410    423     1   109.8000471 387.438400
    408    410    424     1   109.8000471 387.438400
    409    407    432     1   110.1100470 384.091200
    409    412    425     1   109.8000471 387.438400
    409    412    426     1   109.8000471 387.438400
    410    408    419     1   110.5600475 386.601600
    410    408    420     1   110.5600475 386.601600
    411    410    423     1   108.7700466 392.459200
    411    410    424     1   108.7700466 392.459200
    411    884    899     1   117.5500507 404.174400
    412    409    421     1   110.5600475 386.601600
    412    409    422     1   110.5600475 386.601600
    413    412    425     1   108.7700466 392.459200
    413    412    426     1   108.7700466 392.459200
    413    910    925     1   117.5500507 404.174400
    414    407    432     1   110.1100470 384.091200
    414    415    429     1   109.5600471 388.275200
    414    415    430     1   109.5600471 388.275200
    415    414    427     1   110.5600475 386.601600
    415    414    428     1   110.5600475 386.601600
    415    416    431     1   117.6800502 383.254400
    416    415    429     1   108.8800464 416.726400
    416    415    430     1   108.8800464 416.726400
    419    408    420     1   109.7500473 328.025600
    421    409    422     1   109.7500473 328.025600
    423    410    424     1   107.5800459 329.699200
    425    412    426     1   107.5800459 329.699200
    427    414    428     1   109.7500473 328.025600
    429    415    430     1   108.4600466 328.025600
    433    434    445     1   108.0100461 406.684800
    433    434    446     1   108.0100461 406.684800
    433    435    447     1   108.0100461 406.684800
    433    435    448     1   108.0100461 406.684800
    433    440    453     1   108.0100461 406.684800
    433    440    454     1   108.0100461 406.684800
    434    433    458     1   110.1100470 384.091200
    434    436    449     1   109.8000471 387.438400
    434    436    450     1   109.8000471 387.438400
    435    433    458     1   110.1100470 384.091200
    435    438    451     1   109.8000471 387.438400
    435    438    452     1   109.8000471 387.438400
    436    434    445     1   110.5600475 386.601600
    436    434    446     1   110.5600475 386.601600
    437    436    449     1   108.7700466 392.459200
    437    436    450     1   108.7700466 392.459200
    437    936    951     1   117.5500507 404.174400
    438    435    447     1   110.5600475 386.601600
    438    435    448     1   110.5600475 386.601600
    439    438    451     1   108.7700466 392.459200
    439    438    452     1   108.7700466 392.459200
    439    962    977     1   117.5500507 404.174400
    440    433    458     1   110.1100470 384.091200
    440    441    455     1   109.5600471 388.275200
    440    441    456     1   109.5600471 388.275200
    441    440    453     1   110.5600475 386.601600
    441    440    454     1   110.5600475 386.601600
    441    442    457     1   117.6800502 383.254400
    442    441    455     1   108.8800464 416.726400
    442    441    456     1   108.8800464 416.726400
    445    434    446     1   109.7500473 328.025600
    447    435    448     1   109.7500473 328.025600
    449    436    450     1   107.5800459 329.699200
    451    438    452     1   107.5800459 329.699200
    453    440    454     1   109.7500473 328.025600
    455    441    456     1   108.4600466 328.025600
    459    460    471     1   108.0100461 406.684800
    459    460    472     1   108.0100461 406.684800
    459    461    473     1   108.0100461 406.684800
    459    461    474     1   108.0100461 406.684800
    459    466    479     1   108.0100461 406.684800
    459    466    480     1   108.0100461 406.684800
    460    459    484     1   110.1100470 384.091200
    460    462    475     1   109.8000471 387.438400
    460    462    476     1   109.8000471 387.438400
    461    459    484     1   110.1100470 384.091200
    461    464    477     1   109.8000471 387.438400
    461    464    478     1   109.8000471 387.438400
    462    460    471     1   110.5600475 386.601600
    462    460    472     1   110.5600475 386.601600
    463    462    475     1   108.7700466 392.459200
    463    462    476     1   108.7700466 392.459200
    463    988   1003     1   117.5500507 404.174400
    464    461    473     1   110.5600475 386.601600
    464    461    474     1   110.5600475 386.601600
    465    464    477     1   108.7700466 392.459200
    465    464    478     1   108.7700466 392.459200
    465   1014   1029     1   117.5500507 404.174400
    466    459    484     1   110.1100470 384.091200
    466    467    481     1   109.5600471 388.275200
    466    467    482     1   109.5600471 388.275200
    467    466    479     1   110.5600475 386.601600
    467    466    480     1   110.5600475 386.601600
    467    468    483     1   117.6800502 383.254400
    468    467    481     1   108.8800464 416.726400
    468    467    482     1   108.8800464 416.726400
    471    460    472     1   109.7500473 328.025600
    473    461    474     1   109.7500473 328.025600
    475    462    476     1   107.5800459 329.699200
    477    464    478     1   107.5800459 329.699200
    479    466    480     1   109.7500473 328.025600
    481    467    482     1   108.4600466 328.025600
    485    486    497     1   108.0100461 406.684800
    485    486    498     1   108.0100461 406.684800
    485    487    499     1   108.0100461 406.684800
    485    487    500     1   108.0100461 406.684800
    485    492    505     1   108.0100461 406.684800
    485    492    506     1   108.0100461 406.684800
    486    485    510     1   110.1100470 384.091200
    486    488    501     1   109.8000471 387.438400
    486    488    502     1   109.8000471 387.438400
    487    485    510     1   110.1100470 384.091200
    487    490    503     1   109.8000471 387.438400
    487    490    504     1   109.8000471 387.438400
    488    486    497     1   110.5600475 386.601600
    488    486    498     1   110.5600475 386.601600
    489    488    501     1   108.7700466 392.459200
    489    488    502     1   108.7700466 392.459200
    489   1040   1055     1   117.5500507 404.174400
    490    487    499     1   110.5600475 386.601600
    490    487    500     1   110.5600475 386.601600
    491    490    503     1   108.7700466 392.459200
    491    490    504     1   108.7700466 392.459200
    491   1066   1081     1   117.5500507 404.174400
    492    485    510     1   110.1100470 384.091200
    492    493    507     1   109.5600471 388.275200
    492    493    508     1   109.5600471 388.275200
    493    492    505     1   110.5600475 386.601600
    493    492    506     1   110.5600475 386.601600
    493    494    509     1   117.6800502 383.254400
    494    493    507     1   108.8800464 416.726400
    494    493    508     1   108.8800464 416.726400
    497    486    498     1   109.7500473 328.025600
    499    487    500     1   109.7500473 328.025600
    501    488    502     1   107.5800459 329.699200
    503    490    504     1   107.5800459 329.699200
    505    492    506     1   109.7500473 328.025600
    507    493    508     1   108.4600466 328.025600
    511    512    523     1   108.0100461 406.684800
    511    512    524     1   108.0100461 406.684800
    511    513    525     1   108.0100461 406.684800
    511    513    526     1   108.0100461 406.684800
    511    518    531     1   108.0100461 406.684800
    511    518    532     1   108.0100461 406.684800
    512    511    536     1   110.1100470 384.091200
    512    514    527     1   109.8000471 387.438400
    512    514    528     1   109.8000471 387.438400
    513    511    536     1   110.1100470 384.091200
    513    516    529     1   109.8000471 387.438400
    513    516    530     1   109.8000471 387.438400
    514    512    523     1   110.5600475 386.601600
    514    512    524     1   110.5600475 386.601600
    515    514    527     1   108.7700466 392.459200
    515    514    528     1   108.7700466 392.459200
    515   1092   1107     1   117.5500507 404.174400
    516    513    525     1   110.5600475 386.601600
    516    513    526     1   110.5600475 386.601600
    517    516    529     1   108.7700466 392.459200
    517    516    530     1   108.7700466 392.459200
    517   1118   1133     1   117.5500507 404.174400
    518    511    536     1   110.1100470 384.091200
    518    519    533     1   109.5600471 388.275200
    518    519    534     1   109.5600471 388.275200
    519    518    531     1   110.5600475 386.601600
    519    518    532     1   110.5600475 386.601600
    519    520    535     1   117.6800502 383.254400
    520    519    533     1   108.8800464 416.726400
    520    519    534     1   108.8800464 416.726400
    523    512    524     1   109.7500473 328.025600
    525    513    526     1   109.7500473 328.025600
    527    514    528     1   107.5800459 329.699200
    529    516    530     1   107.5800459 329.699200
    531    518    532     1   109.7500473 328.025600
    533    519    534     1   108.4600466 328.025600
    537    538    549     1   108.0100461 406.684800
    537    538    550     1   108.0100461 406.684800
    537    539    551     1   108.0100461 406.684800
    537    539    552     1   108.0100461 406.684800
    537    544    557     1   108.0100461 406.684800
    537    544    558     1   108.0100461 406.684800
    538    537    562     1   110.1100470 384.091200
    538    540    553     1   109.8000471 387.438400
    538    540    554     1   109.8000471 387.438400
    539    537    562     1   110.1100470 384.091200
    539    542    555     1   109.8000471 387.438400
    539    542    556     1   109.8000471 387.438400
    540    538    549     1   110.5600475 386.601600
    540    538    550     1   110.5600475 386.601600
    541    540    553     1   108.7700466 392.459200
    541    540    554     1   108.7700466 392.459200
    541   1144   1159     1   117.5500507 404.174400
    542    539    551     1   110.5600475 386.601600
    542    539    552     1   110.5600475 386.601600
    543    542    555     1   108.7700466 392.459200
    543    542    556     1   108.7700466 392.459200
    543   1170   1185     1   117.5500507 404.174400
    544    537    562     1   110.1100470 384.091200
    544    545    559     1   109.5600471 388.275200
    544    545    560     1   109.5600471 388.275200
    545    544    557     1   110.5600475 386.601600
    545    544    558     1   110.5600475 386.601600
    545    546    561     1   117.6800502 383.254400
    546    545    559     1   108.8800464 416.726400
    546    545    560     1   108.8800464 416.726400
    549    538    550     1   109.7500473 328.025600
    551    539    552     1   109.7500473 328.025600
    553    540    554     1   107.5800459 329.699200
    555    542    556     1   107.5800459 329.699200
    557    544    558     1   109.7500473 328.025600
    559    545    560     1   108.4600466 328.025600
    563    564    575     1   108.0100461 406.684800
    563    564    576     1   108.0100461 406.684800
    563    565    577     1   108.0100461 406.684800
    563    565    578     1   108.0100461 406.684800
    563    570    583     1   108.0100461 406.684800
    563    570    584     1   108.0100461 406.684800
    564    563    588     1   110.1100470 384.091200
    564    566    579     1   109.8000471 387.438400
    564    566    580     1   109.8000471 387.438400
    565    563    588     1   110.1100470 384.091200
    565    568    581     1   109.8000471 387.438400
    565    568    582     1   109.8000471 387.438400
    566    564    575     1   110.5600475 386.601600
    566    564    576     1   110.5600475 386.601600
    567    566    579     1   108.7700466 392.459200
    567    566    580     1   108.7700466 392.459200
    567   1196   1211     1   117.5500507 404.174400
    568    565    577     1   110.5600475 386.601600
    568    565    578     1   110.5600475 386.601600
    569    568    581     1   108.7700466 392.459200
    569    568    582     1   108.7700466 392.459200
    569   1222   1237     1   117.5500507 404.174400
    570    563    588     1   110.1100470 384.091200
    570    571    585     1   109.5600471 388.275200
    570    571    586     1   109.5600471 388.275200
    571    570    583     1   110.5600475 386.601600
    571    570    584     1   110.5600475 386.601600
    571    572    587     1   117.6800502 383.254400
    572    571    585     1   108.8800464 416.726400
    572    571    586     1   108.8800464 416.726400
    575    564    576     1   109.7500473 328.025600
    577    565    578     1   109.7500473 328.025600
    579    566    580     1   107.5800459 329.699200
    581    568    582     1   107.5800459 329.699200
    583    570    584     1   109.7500473 328.025600
    585    571    586     1   108.4600466 328.025600
    589    590    601     1   108.0100461 406.684800
    589    590    602     1   108.0100461 406.684800
    589    591    603     1   108.0100461 406.684800
    589    591    604     1   108.0100461 406.684800
    589    596    609     1   108.0100461 406.684800
    589    596    610     1   108.0100461 406.684800
    590    589    614     1   110.1100470 384.091200
    590    592    605     1   109.8000471 387.438400
    590    592    606     1   109.8000471 387.438400
    591    589    614     1   110.1100470 384.091200
    591    594    607     1   109.8000471 387.438400
    591    594    608     1   109.8000471 387.438400
    592    590    601     1   110.5600475 386.601600
    592    590    602     1   110.5600475 386.601600
    593    592    605     1   108.7700466 392.459200
    593    592    606     1   108.7700466 392.459200
    593   1248   1263     1   117.5500507 404.174400
    594    591    603     1   110.5600475 386.601600
    594    591    604     1   110.5600475 386.601600
    595    594    607     1   108.7700466 392.459200
    595    594    608     1   108.7700466 392.459200
    595   1274   1289     1   117.5500507 404.174400
    596    589    614     1   110.1100470 384.091200
    596    597    611     1   109.5600471 388.275200
    596    597    612     1   109.5600471 388.275200
    597    596    609     1   110.5600475 386.601600
    597    596    610     1   110.5600475 386.601600
    597    598    613     1   117.6800502 383.254400
    598    597    611     1   108.8800464 416.726400
    598    597    612     1   108.8800464 416.726400
    601    590    602     1   109.7500473 328.025600
    603    591    604     1   109.7500473 328.025600
    605    592    606     1   107.5800459 329.699200
    607    594    608     1   107.5800459 329.699200
    609    596    610     1   109.7500473 328.025600
    611    597    612     1   108.4600466 328.025600
    615    616    627     1   108.0100461 406.684800
    615    616    628     1   108.0100461 406.684800
    615    617    629     1   108.0100461 406.684800
    615    617    630     1   108.0100461 406.684800
    615    622    635     1   108.0100461 406.684800
    615    622    636     1   108.0100461 406.684800
    616    615    640     1   110.1100470 384.091200
    616    618    631     1   109.8000471 387.438400
    616    618    632     1   109.8000471 387.438400
    617    615    640     1   110.1100470 384.091200
    617    620    633     1   109.8000471 387.438400
    617    620    634     1   109.8000471 387.438400
    618    616    627     1   110.5600475 386.601600
    618    616    628     1   110.5600475 386.601600
    619    618    631     1   108.7700466 392.459200
    619    618    632     1   108.7700466 392.459200
    619   1300   1315     1   117.5500507 404.174400
    620    617    629     1   110.5600475 386.601600
    620    617    630     1   110.5600475 386.601600
    621    620    633     1   108.7700466 392.459200
    621    620    634     1   108.7700466 392.459200
    621   1326   1341     1   117.5500507 404.174400
    622    615    640     1   110.1100470 384.091200
    622    623    637     1   109.5600471 388.275200
    622    623    638     1   109.5600471 388.275200
    623    622    635     1   110.5600475 386.601600
    623    622    636     1   110.5600475 386.601600
    623    624    639     1   117.6800502 383.254400
    624    623    637     1   108.8800464 416.726400
    624    623    638     1   108.8800464 416.726400
    627    616    628     1   109.7500473 328.025600
    629    617    630     1   109.7500473 328.025600
    631    618    632     1   107.5800459 329.699200
    633    620    634     1   107.5800459 329.699200
    635    622    636     1   109.7500473 328.025600
    637    623    638     1   108.4600466 328.025600
    641    642    653     1   108.0100461 406.684800
    641    642    654     1   108.0100461 406.684800
    641    643    655     1   108.0100461 406.684800
    641    643    656     1   108.0100461 406.684800
    641    648    661     1   108.0100461 406.684800
    641    648    662     1   108.0100461 406.684800
    642    641    666     1   110.1100470 384.091200
    642    644    657     1   109.8000471 387.438400
    642    644    658     1   109.8000471 387.438400
    643    641    666     1   110.1100470 384.091200
    643    646    659     1   109.8000471 387.438400
    643    646    660     1   109.8000471 387.438400
    644    642    653     1   110.5600475 386.601600
    644    642    654     1   110.5600475 386.601600
    645    644    657     1   108.7700466 392.459200
    645    644    658     1   108.7700466 392.459200
    645   1352   1367     1   117.5500507 404.174400
    646    643    655     1   110.5600475 386.601600
    646    643    656     1   110.5600475 386.601600
    647    646    659     1   108.7700466 392.459200
    647    646    660     1   108.7700466 392.459200
    647   1378   1393     1   117.5500507 404.174400
    648    641    666     1   110.1100470 384.091200
    648    649    663     1   109.5600471 388.275200
    648    649    664     1   109.5600471 388.275200
    649    648    661     1   110.5600475 386.601600
    649    648    662     1   110.5600475 386.601600
    649    650    665     1   117.6800502 383.254400
    650    649    663     1   108.8800464 416.726400
    650    649    664     1   108.8800464 416.726400
    653    642    654     1   109.7500473 328.025600
    655    643    656     1   109.7500473 328.025600
    657    644    658     1   107.5800459 329.699200
    659    646    660     1   107.5800459 329.699200
    661    648    662     1   109.7500473 328.025600
    663    649    664     1   108.4600466 328.025600
    667    668    679     1   108.0100461 406.684800
    667    668    680     1   108.0100461 406.684800
    667    669    681     1   108.0100461 406.684800
    667    669    682     1   108.0100461 406.684800
    667    674    687     1   108.0100461 406.684800
    667    674    688     1   108.0100461 406.684800
    668    667    692     1   110.1100470 384.091200
    668    670    683     1   109.8000471 387.438400
    668    670    684     1   109.8000471 387.438400
    669    667    692     1   110.1100470 384.091200
    669    672    685     1   109.8000471 387.438400
    669    672    686     1   109.8000471 387.438400
    670    668    679     1   110.5600475 386.601600
    670    668    680     1   110.5600475 386.601600
    671    670    683     1   108.7700466 392.459200
    671    670    684     1   108.7700466 392.459200
    671   1404   1419     1   117.5500507 404.174400
    672    669    681     1   110.5600475 386.601600
    672    669    682     1   110.5600475 386.601600
    673    672    685     1   108.7700466 392.459200
    673    672    686     1   108.7700466 392.459200
    673   1430   1445     1   117.5500507 404.174400
    674    667    692     1   110.1100470 384.091200
    674    675    689     1   109.5600471 388.275200
    674    675    690     1   109.5600471 388.275200
    675    674    687     1   110.5600475 386.601600
    675    674    688     1   110.5600475 386.601600
    675    676    691     1   117.6800502 383.254400
    676    675    689     1   108.8800464 416.726400
    676    675    690     1   108.8800464 416.726400
    679    668    680     1   109.7500473 328.025600
    681    669    682     1   109.7500473 328.025600
    683    670    684     1   107.5800459 329.699200
    685    672    686     1   107.5800459 329.699200
    687    674    688     1   109.7500473 328.025600
    689    675    690     1   108.4600466 328.025600
    693    694    705     1   108.0100461 406.684800
    693    694    706     1   108.0100461 406.684800
    693    695    707     1   108.0100461 406.684800
    693    695    708     1   108.0100461 406.684800
    693    700    713     1   108.0100461 406.684800
    693    700    714     1   108.0100461 406.684800
    694    693    718     1   110.1100470 384.091200
    694    696    709     1   109.8000471 387.438400
    694    696    710     1   109.8000471 387.438400
    695    693    718     1   110.1100470 384.091200
    695    698    711     1   109.8000471 387.438400
    695    698    712     1   109.8000471 387.438400
    696    694    705     1   110.5600475 386.601600
    696    694    706     1   110.5600475 386.601600
    697    696    709     1   108.7700466 392.459200
    697    696    710     1   108.7700466 392.459200
    697   1456   1471     1   117.5500507 404.174400
    698    695    707     1   110.5600475 386.601600
    698    695    708     1   110.5600475 386.601600
    699    698    711     1   108.7700466 392.459200
    699    698    712     1   108.7700466 392.459200
    699   1482   1497     1   117.5500507 404.174400
    700    693    718     1   110.1100470 384.091200
    700    701    715     1   109.5600471 388.275200
    700    701    716     1   109.5600471 388.275200
    701    700    713     1   110.5600475 386.601600
    701    700    714     1   110.5600475 386.601600
    701    702    717     1   117.6800502 383.254400
    702    701    715     1   108.8800464 416.726400
    702    701    716     1   108.8800464 416.726400
    705    694    706     1   109.7500473 328.025600
    707    695    708     1   109.7500473 328.025600
    709    696    710     1   107.5800459 329.699200
    711    698    712     1   107.5800459 329.699200
    713    700    714     1   109.7500473 328.025600
    715    701    716     1   108.4600466 328.025600
    719    720    731     1   108.0100461 406.684800
    719    720    732     1   108.0100461 406.684800
    719    721    733     1   108.0100461 406.684800
    719    721    734     1   108.0100461 406.684800
    719    726    739     1   108.0100461 406.684800
    719    726    740     1   108.0100461 406.684800
    720    719    744     1   110.1100470 384.091200
    720    722    735     1   109.8000471 387.438400
    720    722    736     1   109.8000471 387.438400
    721    719    744     1   110.1100470 384.091200
    721    724    737     1   109.8000471 387.438400
    721    724    738     1   109.8000471 387.438400
    722    720    731     1   110.5600475 386.601600
    722    720    732     1   110.5600475 386.601600
    723    722    735     1   108.7700466 392.459200
    723    722    736     1   108.7700466 392.459200
    723   1508   1523     1   117.5500507 404.174400
    724    721    733     1   110.5600475 386.601600
    724    721    734     1   110.5600475 386.601600
    725    724    737     1   108.7700466 392.459200
    725    724    738     1   108.7700466 392.459200
    725   1534   1549     1   117.5500507 404.174400
    726    719    744     1   110.1100470 384.091200
    726    727    741     1   109.5600471 388.275200
    726    727    742     1   109.5600471 388.275200
    727    726    739     1   110.5600475 386.601600
    727    726    740     1   110.5600475 386.601600
    727    728    743     1   117.6800502 383.254400
    728    727    741     1   108.8800464 416.726400
    728    727    742     1   108.8800464 416.726400
    731    720    732     1   109.7500473 328.025600
    733    721    734     1   109.7500473 328.025600
    735    722    736     1   107.5800459 329.699200
    737    724    738     1   107.5800459 329.699200
    739    726    740     1   109.7500473 328.025600
    741    727    742     1   108.4600466 328.025600
    745    746    757     1   108.0100461 406.684800
    745    746    758     1   108.0100461 406.684800
    745    747    759     1   108.0100461 406.684800
    745    747    760     1   108.0100461 406.684800
    745    752    765     1   108.0100461 406.684800
    745    752    766     1   108.0100461 406.684800
    746    745    770     1   110.1100470 384.091200
    746    748    761     1   109.8000471 387.438400
    746    748    762     1   109.8000471 387.438400
    747    745    770     1   110.1100470 384.091200
    747    750    763     1   109.8000471 387.438400
    747    750    764     1   109.8000471 387.438400
    748    746    757     1   110.5600475 386.601600
    748    746    758     1   110.5600475 386.601600
    749    748    761     1   108.7700466 392.459200
    749    748    762     1   108.7700466 392.459200
    749   1560   1575     1   117.5500507 404.174400
    750    747    759     1   110.5600475 386.601600
    750    747    760     1   110.5600475 386.601600
    751    750    763     1   108.7700466 392.459200
    751    750    764     1   108.7700466 392.459200
    751   1586   1601     1   117.5500507 404.174400
    752    745    770     1   110.1100470 384.091200
    752    753    767     1   109.5600471 388.275200
    752    753    768     1   109.5600471 388.275200
    753    752    765     1   110.5600475 386.601600
    753    752    766     1   110.5600475 386.601600
    753    754    769     1   117.6800502 383.254400
    754    753    767     1   108.8800464 416.726400
    754    753    768     1   108.8800464 416.726400
    757    746    758     1   109.7500473 328.025600
    759    747    760     1   109.7500473 328.025600
    761    748    762     1   107.5800459 329.699200
    763    750    764     1   107.5800459 329.699200
    765    752    766     1   109.7500473 328.025600
    767    753    768     1   108.4600466 328.025600
    771    772    783     1   108.0100461 406.684800
    771    772    784     1   108.0100461 406.684800
    771    773    785     1   108.0100461 406.684800
    771    773    786     1   108.0100461 406.684800
    771    778    791     1   108.0100461 406.684800
    771    778    792     1   108.0100461 406.684800
    772    771    796     1   110.1100470 384.091200
    772    774    787     1   109.8000471 387.438400
    772    774    788     1   109.8000471 387.438400
    773    771    796     1   110.1100470 384.091200
    773    776    789     1   109.8000471 387.438400
    773    776    790     1   109.8000471 387.438400
    774    772    783     1   110.5600475 386.601600
    774    772    784     1   110.5600475 386.601600
    775    774    787     1   108.7700466 392.459200
    775    774    788     1   108.7700466 392.459200
    775   1603   1604     1   117.5500507 404.174400
    776    773    785     1   110.5600475 386.601600
    776    773    786     1   110.5600475 386.601600
    777    776    789     1   108.7700466 392.459200
    777    776    790     1   108.7700466 392.459200
    777   1633   1634     1   117.5500507 404.174400
    778    771    796     1   110.1100470 384.091200
    778    779    793     1   109.5600471 388.275200
    778    779    794     1   109.5600471 388.275200
    779    778    791     1   110.5600475 386.601600
    779    778    792     1   110.5600475 386.601600
    779    780    795     1   117.6800502 383.254400
    780    779    793     1   108.8800464 416.726400
    780    779    794     1   108.8800464 416.726400
    783    772    784     1   109.7500473 328.025600
    785    773    786     1   109.7500473 328.025600
    787    774    788     1   107.5800459 329.699200
    789    776    790     1   107.5800459 329.699200
    791    778    792     1   109.7500473 328.025600
    793    779    794     1   108.4600466 328.025600
    797    798    809     1   108.0100461 406.684800
    797    798    810     1   108.0100461 406.684800
    797    799    811     1   108.0100461 406.684800
    797    799    812     1   108.0100461 406.684800
    797    804    817     1   108.0100461 406.684800
    797    804    818     1   108.0100461 406.684800
    798    797    822     1   110.1100470 384.091200
    798    800    813     1   109.8000471 387.438400
    798    800    814     1   109.8000471 387.438400
    799    797    822     1   110.1100470 384.091200
    799    802    815     1   109.8000471 387.438400
    799    802    816     1   109.8000471 387.438400
    800    798    809     1   110.5600475 386.601600
    800    798    810     1   110.5600475 386.601600
    801    800    813     1   108.7700466 392.459200
    801    800    814     1   108.7700466 392.459200
    801   1663   1664     1   117.5500507 404.174400
    802    799    811     1   110.5600475 386.601600
    802    799    812     1   110.5600475 386.601600
    803    802    815     1   108.7700466 392.459200
    803    802    816     1   108.7700466 392.459200
    803   1693   1694     1   117.5500507 404.174400
    804    797    822     1   110.1100470 384.091200
    804    805    819     1   109.5600471 388.275200
    804    805    820     1   109.5600471 388.275200
    805    804    817     1   110.5600475 386.601600
    805    804    818     1   110.5600475 386.601600
    805    806    821     1   117.6800502 383.254400
    806    805    819     1   108.8800464 416.726400
    806    805    820     1   108.8800464 416.726400
    809    798    810     1   109.7500473 328.025600
    811    799    812     1   109.7500473 328.025600
    813    800    814     1   107.5800459 329.699200
    815    802    816     1   107.5800459 329.699200
    817    804    818     1   109.7500473 328.025600
    819    805    820     1   108.4600466 328.025600
    823    824    835     1   108.0100461 406.684800
    823    824    836     1   108.0100461 406.684800
    823    825    837     1   108.0100461 406.684800
    823    825    838     1   108.0100461 406.684800
    823    830    843     1   108.0100461 406.684800
    823    830    844     1   108.0100461 406.684800
    824    823    848     1   110.1100470 384.091200
    824    826    839     1   109.8000471 387.438400
    824    826    840     1   109.8000471 387.438400
    825    823    848     1   110.1100470 384.091200
    825    828    841     1   109.8000471 387.438400
    825    828    842     1   109.8000471 387.438400
    826    824    835     1   110.5600475 386.601600
    826    824    836     1   110.5600475 386.601600
    827    826    839     1   108.7700466 392.459200
    827    826    840     1   108.7700466 392.459200
    827   1723   1724     1   117.5500507 404.174400
    828    825    837     1   110.5600475 386.601600
    828    825    838     1   110.5600475 386.601600
    829    828    841     1   108.7700466 392.459200
    829    828    842     1   108.7700466 392.459200
    829   1753   1754     1   117.5500507 404.174400
    830    823    848     1   110.1100470 384.091200
    830    831    845     1   109.5600471 388.275200
    830    831    846     1   109.5600471 388.275200
    831    830    843     1   110.5600475 386.601600
    831    830    844     1   110.5600475 386.601600
    831    832    847     1   117.6800502 383.254400
    832    831    845     1   108.8800464 416.726400
    832    831    846     1   108.8800464 416.726400
    835    824    836     1   109.7500473 328.025600
    837    825    838     1   109.7500473 328.025600
    839    826    840     1   107.5800459 329.699200
    841    828    842     1   107.5800459 329.699200
    843    830    844     1   109.7500473 328.025600
    845    831    846     1   108.4600466 328.025600
    849    850    861     1   108.0100461 406.684800
    849    850    862     1   108.0100461 406.684800
    849    851    863     1   108.0100461 406.684800
    849    851    864     1   108.0100461 406.684800
    849    856    869     1   108.0100461 406.684800
    849    856    870     1   108.0100461 406.684800
    850    849    874     1   110.1100470 384.091200
    850    852    865     1   109.8000471 387.438400
    850    852    866     1   109.8000471 387.438400
    851    849    874     1   110.1100470 384.091200
    851    854    867     1   109.8000471 387.438400
    851    854    868     1   109.8000471 387.438400
    852    850    861     1   110.5600475 386.601600
    852    850    862     1   110.5600475 386.601600
    853    852    865     1   108.7700466 392.459200
    853    852    866     1   108.7700466 392.459200
    853   1783   1784     1   117.5500507 404.174400
    854    851    863     1   110.5600475 386.601600
    854    851    864     1   110.5600475 386.601600
    855    854    867     1   108.7700466 392.459200
    855    854    868     1   108.7700466 392.459200
    855   1813   1814     1   117.5500507 404.174400
    856    849    874     1   110.1100470 384.091200
    856    857    871     1   109.5600471 388.275200
    856    857    872     1   109.5600471 388.275200
    857    856    869     1   110.5600475 386.601600
    857    856    870     1   110.5600475 386.601600
    857    858    873     1   117.6800502 383.254400
    858    857    871     1   108.8800464 416.726400
    858    857    872     1   108.8800464 416.726400
    861    850    862     1   109.7500473 328.025600
    863    851    864     1   109.7500473 328.025600
    865    852    866     1   107.5800459 329.699200
    867    854    868     1   107.5800459 329.699200
    869    856    870     1   109.7500473 328.025600
    871    857    872     1   108.4600466 328.025600
    875    876    887     1   108.0100461 406.684800
    875    876    888     1   108.0100461 406.684800
    875    877    889     1   108.0100461 406.684800
    875    877    890     1   108.0100461 406.684800
    875    882    895     1   108.0100461 406.684800
    875    882    896     1   108.0100461 406.684800
    876    875    900     1   110.1100470 384.091200
    876    878    891     1   109.8000471 387.438400
    876    878    892     1   109.8000471 387.438400
    877    875    900     1   110.1100470 384.091200
    877    880    893     1   109.8000471 387.438400
    877    880    894     1   109.8000471 387.438400
    878    876    887     1   110.5600475 386.601600
    878    876    888     1   110.5600475 386.601600
    879    878    891     1   108.7700466 392.459200
    879    878    892     1   108.7700466 392.459200
    879   1843   1844     1   117.5500507 404.174400
    880    877    889     1   110.5600475 386.601600
    880    877    890     1   110.5600475 386.601600
    881    880    893     1   108.7700466 392.459200
    881    880    894     1   108.7700466 392.459200
    881   1873   1874     1   117.5500507 404.174400
    882    875    900     1   110.1100470 384.091200
    882    883    897     1   109.5600471 388.275200
    882    883    898     1   109.5600471 388.275200
    883    882    895     1   110.5600475 386.601600
    883    882    896     1   110.5600475 386.601600
    883    884    899     1   117.6800502 383.254400
    884    883    897     1   108.8800464 416.726400
    884    883    898     1   108.8800464 416.726400
    887    876    888     1   109.7500473 328.025600
    889    877    890     1   109.7500473 328.025600
    891    878    892     1   107.5800459 329.699200
    893    880    894     1   107.5800459 329.699200
    895    882    896     1   109.7500473 328.025600
    897    883    898     1   108.4600466 328.025600
    901    902    913     1   108.0100461 406.684800
    901    902    914     1   108.0100461 406.684800
    901    903    915     1   108.0100461 406.684800
    901    903    916     1   108.0100461 406.684800
    901    908    921     1   108.0100461 406.684800
    901    908    922     1   108.0100461 406.684800
    902    901    926     1   110.1100470 384.091200
    902    904    917     1   109.8000471 387.438400
    902    904    918     1   109.8000471 387.438400
    903    901    926     1   110.1100470 384.091200
    903    906    919     1   109.8000471 387.438400
    903    906    920     1   109.8000471 387.438400
    904    902    913     1   110.5600475 386.601600
    904    902    914     1   110.5600475 386.601600
    905    904    917     1   108.7700466 392.459200
    905    904    918     1   108.7700466 392.459200
    905   1903   1904     1   117.5500507 404.174400
    906    903    915     1   110.5600475 386.601600
    906    903    916     1   110.5600475 386.601600
    907    906    919     1   108.7700466 392.459200
    907    906    920     1   108.7700466 392.459200
    907   1933   1934     1   117.5500507 404.174400
    908    901    926     1   110.1100470 384.091200
    908    909    923     1   109.5600471 388.275200
    908    909    924     1   109.5600471 388.275200
    909    908    921     1   110.5600475 386.601600
    909    908    922     1   110.5600475 386.601600
    909    910    925     1   117.6800502 383.254400
    910    909    923     1   108.8800464 416.726400
    910    909    924     1   108.8800464 416.726400
    913    902    914     1   109.7500473 328.025600
    915    903    916     1   109.7500473 328.025600
    917    904    918     1   107.5800459 329.699200
    919    906    920     1   107.5800459 329.699200
    921    908    922     1   109.7500473 328.025600
    923    909    924     1   108.4600466 328.025600
    927    928    939     1   108.0100461 406.684800
    927    928    940     1   108.0100461 406.684800
    927    929    941     1   108.0100461 406.684800
    927    929    942     1   108.0100461 406.684800
    927    934    947     1   108.0100461 406.684800
    927    934    948     1   108.0100461 406.684800
    928    927    952     1   110.1100470 384.091200
    928    930    943     1   109.8000471 387.438400
    928    930    944     1   109.8000471 387.438400
    929    927    952     1   110.1100470 384.091200
    929    932    945     1   109.8000471 387.438400
    929    932    946     1   109.8000471 387.438400
    930    928    939     1   110.5600475 386.601600
    930    928    940     1   110.5600475 386.601600
    931    930    943     1   108.7700466 392.459200
    931    930    944     1   108.7700466 392.459200
    931   1963   1964     1   117.5500507 404.174400
    932    929    941     1   110.5600475 386.601600
    932    929    942     1   110.5600475 386.601600
    933    932    945     1   108.7700466 392.459200
    933    932    946     1   108.7700466 392.459200
    933   1993   1994     1   117.5500507 404.174400
    934    927    952     1   110.1100470 384.091200
    934    935    949     1   109.5600471 388.275200
    934    935    950     1   109.5600471 388.275200
    935    934    947     1   110.5600475 386.601600
    935    934    948     1   110.5600475 386.601600
    935    936    951     1   117.6800502 383.254400
    936    935    949     1   108.8800464 416.726400
    936    935    950     1   108.8800464 416.726400
    939    928    940     1   109.7500473 328.025600
    941    929    942     1   109.7500473 328.025600
    943    930    944     1   107.5800459 329.699200
    945    932    946     1   107.5800459 329.699200
    947    934    948     1   109.7500473 328.025600
    949    935    950     1   108.4600466 328.025600
    953    954    965     1   108.0100461 406.684800
    953    954    966     1   108.0100461 406.684800
    953    955    967     1   108.0100461 406.684800
    953    955    968     1   108.0100461 406.684800
    953    960    973     1   108.0100461 406.684800
    953    960    974     1   108.0100461 406.684800
    954    953    978     1   110.1100470 384.091200
    954    956    969     1   109.8000471 387.438400
    954    956    970     1   109.8000471 387.438400
    955    953    978     1   110.1100470 384.091200
    955    958    971     1   109.8000471 387.438400
    955    958    972     1   109.8000471 387.438400
    956    954    965     1   110.5600475 386.601600
    956    954    966     1   110.5600475 386.601600
    957    956    969     1   108.7700466 392.459200
    957    956    970     1   108.7700466 392.459200
    957   2023   2024     1   117.5500507 404.174400
    958    955    967     1   110.5600475 386.601600
    958    955    968     1   110.5600475 386.601600
    959    958    971     1   108.7700466 392.459200
    959    958    972     1   108.7700466 392.459200
    959   2053   2054     1   117.5500507 404.174400
    960    953    978     1   110.1100470 384.091200
    960    961    975     1   109.5600471 388.275200
    960    961    976     1   109.5600471 388.275200
    961    960    973     1   110.5600475 386.601600
    961    960    974     1   110.5600475 386.601600
    961    962    977     1   117.6800502 383.254400
    962    961    975     1   108.8800464 416.726400
    962    961    976     1   108.8800464 416.726400
    965    954    966     1   109.7500473 328.025600
    967    955    968     1   109.7500473 328.025600
    969    956    970     1   107.5800459 329.699200
    971    958    972     1   107.5800459 329.699200
    973    960    974     1   109.7500473 328.025600
    975    961    976     1   108.4600466 328.025600
    979    980    991     1   108.0100461 406.684800
    979    980    992     1   108.0100461 406.684800
    979    981    993     1   108.0100461 406.684800
    979    981    994     1   108.0100461 406.684800
    979    986    999     1   108.0100461 406.684800
    979    986   1000     1   108.0100461 406.684800
    980    979   1004     1   110.1100470 384.091200
    980    982    995     1   109.8000471 387.438400
    980    982    996     1   109.8000471 387.438400
    981    979   1004     1   110.1100470 384.091200
    981    984    997     1   109.8000471 387.438400
    981    984    998     1   109.8000471 387.438400
    982    980    991     1   110.5600475 386.601600
    982    980    992     1   110.5600475 386.601600
    983    982    995     1   108.7700466 392.459200
    983    982    996     1   108.7700466 392.459200
    983   2083   2084     1   117.5500507 404.174400
    984    981    993     1   110.5600475 386.601600
    984    981    994     1   110.5600475 386.601600
    985    984    997     1   108.7700466 392.459200
    985    984    998     1   108.7700466 392.459200
    985   2113   2114     1   117.5500507 404.174400
    986    979   1004     1   110.1100470 384.091200
    986    987   1001     1   109.5600471 388.275200
    986    987   1002     1   109.5600471 388.275200
    987    986    999     1   110.5600475 386.601600
    987    986   1000     1   110.5600475 386.601600
    987    988   1003     1   117.6800502 383.254400
    988    987   1001     1   108.8800464 416.726400
    988    987   1002     1   108.8800464 416.726400
    991    980    992     1   109.7500473 328.025600
    993    981    994     1   109.7500473 328.025600
    995    982    996     1   107.5800459 329.699200
    997    984    998     1   107.5800459 329.699200
    999    986   1000     1   109.7500473 328.025600
   1001    987   1002     1   108.4600466 328.025600
   1005   1006   1017     1   108.0100461 406.684800
   1005   1006   1018     1   108.0100461 406.684800
   1005   1007   1019     1   108.0100461 406.684800
   1005   1007   1020     1   108.0100461 406.684800
   1005   1012   1025     1   108.0100461 406.684800
   1005   1012   1026     1   108.0100461 406.684800
   1006   1005   1030     1   110.1100470 384.091200
   1006   1008   1021     1   109.8000471 387.438400
   1006   1008   1022     1   109.8000471 387.438400
   1007   1005   1030     1   110.1100470 384.091200
   1007   1010   1023     1   109.8000471 387.438400
   1007   1010   1024     1   109.8000471 387.438400
   1008   1006   1017     1   110.5600475 386.601600
   1008   1006   1018     1   110.5600475 386.601600
   1009   1008   1021     1   108.7700466 392.459200
   1009   1008   1022     1   108.7700466 392.459200
   1009   2143   2144     1   117.5500507 404.174400
   1010   1007   1019     1   110.5600475 386.601600
   1010   1007   1020     1   110.5600475 386.601600
   1011   1010   1023     1   108.7700466 392.459200
   1011   1010   1024     1   108.7700466 392.459200
   1011   2173   2174     1   117.5500507 404.174400
   1012   1005   1030     1   110.1100470 384.091200
   1012   1013   1027     1   109.5600471 388.275200
   1012   1013   1028     1   109.5600471 388.275200
   1013   1012   1025     1   110.5600475 386.601600
   1013   1012   1026     1   110.5600475 386.601600
   1013   1014   1029     1   117.6800502 383.254400
   1014   1013   1027     1   108.8800464 416.726400
   1014   1013   1028     1   108.8800464 416.726400
   1017   1006   1018     1   109.7500473 328.025600
   1019   1007   1020     1   109.7500473 328.025600
   1021   1008   1022     1   107.5800459 329.699200
   1023   1010   1024     1   107.5800459 329.699200
   1025   1012   1026     1   109.7500473 328.025600
   1027   1013   1028     1   108.4600466 328.025600
   1031   1032   1043     1   108.0100461 406.684800
   1031   1032   1044     1   108.0100461 406.684800
   1031   1033   1045     1   108.0100461 406.684800
   1031   1033   1046     1   108.0100461 406.684800
   1031   1038   1051     1   108.0100461 406.684800
   1031   1038   1052     1   108.0100461 406.684800
   1032   1031   1056     1   110.1100470 384.091200
   1032   1034   1047     1   109.8000471 387.438400
   1032   1034   1048     1   109.8000471 387.438400
   1033   1031   1056     1   110.1100470 384.091200
   1033   1036   1049     1   109.8000471 387.438400
   1033   1036   1050     1   109.8000471 387.438400
   1034   1032   1043     1   110.5600475 386.601600
   1034   1032   1044     1   110.5600475 386.601600
   1035   1034   1047     1   108.7700466 392.459200
   1035   1034   1048     1   108.7700466 392.459200
   1035   2203   2204     1   117.5500507 404.174400
   1036   1033   1045     1   110.5600475 386.601600
   1036   1033   1046     1   110.5600475 386.601600
   1037   1036   1049     1   108.7700466 392.459200
   1037   1036   1050     1   108.7700466 392.459200
   1037   2233   2234     1   117.5500507 404.174400
   1038   1031   1056     1   110.1100470 384.091200
   1038   1039   1053     1   109.5600471 388.275200
   1038   1039   1054     1   109.5600471 388.275200
   1039   1038   1051     1   110.5600475 386.601600
   1039   1038   1052     1   110.5600475 386.601600
   1039   1040   1055     1   117.6800502 383.254400
   1040   1039   1053     1   108.8800464 416.726400
   1040   1039   1054     1   108.8800464 416.726400
   1043   1032   1044     1   109.7500473 328.025600
   1045   1033   1046     1   109.7500473 328.025600
   1047   1034   1048     1   107.5800459 329.699200
   1049   1036   1050     1   107.5800459 329.699200
   1051   1038   1052     1   109.7500473 328.025600
   1053   1039   1054     1   108.4600466 328.025600
   1057   1058   1069     1   108.0100461 406.684800
   1057   1058   1070     1   108.0100461 406.684800
   1057   1059   1071     1   108.0100461 406.684800
   1057   1059   1072     1   108.0100461 406.684800
   1057   1064   1077     1   108.0100461 406.684800
   1057   1064   1078     1   108.0100461 406.684800
   1058   1057   1082     1   110.1100470 384.091200
   1058   1060   1073     1   109.8000471 387.438400
   1058   1060   1074     1   109.8000471 387.438400
   1059   1057   1082     1   110.1100470 384.091200
   1059   1062   1075     1   109.8000471 387.438400
   1059   1062   1076     1   109.8000471 387.438400
   1060   1058   1069     1   110.5600475 386.601600
   1060   1058   1070     1   110.5600475 386.601600
   1061   1060   1073     1   108.7700466 392.459200
   1061   1060   1074     1   108.7700466 392.459200
   1061   2263   2264     1   117.5500507 404.174400
   1062   1059   1071     1   110.5600475 386.601600
   1062   1059   1072     1   110.5600475 386.601600
   1063   1062   1075     1   108.7700466 392.459200
   1063   1062   1076     1   108.7700466 392.459200
   1063   2293   2294     1   117.5500507 404.174400
   1064   1057   1082     1   110.1100470 384.091200
   1064   1065   1079     1   109.5600471 388.275200
   1064   1065   1080     1   109.5600471 388.275200
   1065   1064   1077     1   110.5600475 386.601600
   1065   1064   1078     1   110.5600475 386.601600
   1065   1066   1081     1   117.6800502 383.254400
   1066   1065   1079     1   108.8800464 416.726400
   1066   1065   1080     1   108.8800464 416.726400
   1069   1058   1070     1   109.7500473 328.025600
   1071   1059   1072     1   109.7500473 328.025600
   1073   1060   1074     1   107.5800459 329.699200
   1075   1062   1076     1   107.5800459 329.699200
   1077   1064   1078     1   109.7500473 328.025600
   1079   1065   1080     1   108.4600466 328.025600
   1083   1084   1095     1   108.0100461 406.684800
   1083   1084   1096     1   108.0100461 406.684800
   1083   1085   1097     1   108.0100461 406.684800
   1083   1085   1098     1   108.0100461 406.684800
   1083   1090   1103     1   108.0100461 406.684800
   1083   1090   1104     1   108.0100461 406.684800
   1084   1083   1108     1   110.1100470 384.091200
   1084   1086   1099     1   109.8000471 387.438400
   1084   1086   1100     1   109.8000471 387.438400
   1085   1083   1108     1   110.1100470 384.091200
   1085   1088   1101     1   109.8000471 387.438400
   1085   1088   1102     1   109.8000471 387.438400
   1086   1084   1095     1   110.5600475 386.601600
   1086   1084   1096     1   110.5600475 386.601600
   1087   1086   1099     1   108.7700466 392.459200
   1087   1086   1100     1   108.7700466 392.459200
   1087   2323   2324     1   117.5500507 404.174400
   1088   1085   1097     1   110.5600475 386.601600
   1088   1085   1098     1   110.5600475 386.601600
   1089   1088   1101     1   108.7700466 392.459200
   1089   1088   1102     1   108.7700466 392.459200
   1089   2353   2354     1   117.5500507 404.174400
   1090   1083   1108     1   110.1100470 384.091200
   1090   1091   1105     1   109.5600471 388.275200
   1090   1091   1106     1   109.5600471 388.275200
   1091   1090   1103     1   110.5600475 386.601600
   1091   1090   1104     1   110.5600475 386.601600
   1091   1092   1107     1   117.6800502 383.254400
   1092   1091   1105     1   108.8800464 416.726400
   1092   1091   1106     1   108.8800464 416.726400
   1095   1084   1096     1   109.7500473 328.025600
   1097   1085   1098     1   109.7500473 328.025600
   1099   1086   1100     1   107.5800459 329.699200
   1101   1088   1102     1   107.5800459 329.699200
   1103   1090   1104     1   109.7500473 328.025600
   1105   1091   1106     1   108.4600466 328.025600
   1109   1110   1121     1   108.0100461 406.684800
   1109   1110   1122     1   108.0100461 406.684800
   1109   1111   1123     1   108.0100461 406.684800
   1109   1111   1124     1   108.0100461 406.684800
   1109   1116   1129     1   108.0100461 406.684800
   1109   1116   1130     1   108.0100461 406.684800
   1110   1109   1134     1   110.1100470 384.091200
   1110   1112   1125     1   109.8000471 387.438400
   1110   1112   1126     1   109.8000471 387.438400
   1111   1109   1134     1   110.1100470 384.091200
   1111   1114   1127     1   109.8000471 387.438400
   1111   1114   1128     1   109.8000471 387.438400
   1112   1110   1121     1   110.5600475 386.601600
   1112   1110   1122     1   110.5600475 386.601600
   1113   1112   1125     1   108.7700466 392.459200
   1113   1112   1126     1   108.7700466 392.459200
   1113   2383   2384     1   117.5500507 404.174400
   1114   1111   1123     1   110.5600475 386.601600
   1114   1111   1124     1   110.5600475 386.601600
   1115   1114   1127     1   108.7700466 392.459200
   1115   1114   1128     1   108.7700466 392.459200
   1115   2413   2414     1   117.5500507 404.174400
   1116   1109   1134     1   110.1100470 384.091200
   1116   1117   1131     1   109.5600471 388.275200
   1116   1117   1132     1   109.5600471 388.275200
   1117   1116   1129     1   110.5600475 386.601600
   1117   1116   1130     1   110.5600475 386.601600
   1117   1118   1133     1   117.6800502 383.254400
   1118   1117   1131     1   108.8800464 416.726400
   1118   1117   1132     1   108.8800464 416.726400
   1121   1110   1122     1   109.7500473 328.025600
   1123   1111   1124     1   109.7500473 328.025600
   1125   1112   1126     1   107.5800459 329.699200
   1127   1114   1128     1   107.5800459 329.699200
   1129   1116   1130     1   109.7500473 328.025600
   1131   1117   1132     1   108.4600466 328.025600
   1135   1136   1147     1   108.0100461 406.684800
   1135   1136   1148     1   108.0100461 406.684800
   1135   1137   1149     1   108.0100461 406.684800
   1135   1137   1150     1   108.0100461 406.684800
   1135   1142   1155     1   108.0100461 406.684800
   1135   1142   1156     1   108.0100461 406.684800
   1136   1135   1160     1   110.1100470 384.091200
   1136   1138   1151     1   109.8000471 387.438400
   1136   1138   1152     1   109.8000471 387.438400
   1137   1135   1160     1   110.1100470 384.091200
   1137   1140   1153     1   109.8000471 387.438400
   1137   1140   1154     1   109.8000471 387.438400
   1138   1136   1147     1   110.5600475 386.601600
   1138   1136   1148     1   110.5600475 386.601600
   1139   1138   1151     1   108.7700466 392.459200
   1139   1138   1152     1   108.7700466 392.459200
   1139   2443   2444     1   117.5500507 404.174400
   1140   1137   1149     1   110.5600475 386.601600
   1140   1137   1150     1   110.5600475 386.601600
   1141   1140   1153     1   108.7700466 392.459200
   1141   1140   1154     1   108.7700466 392.459200
   1141   2473   2474     1   117.5500507 404.174400
   1142   1135   1160     1   110.1100470 384.091200
   1142   1143   1157     1   109.5600471 388.275200
   1142   1143   1158     1   109.5600471 388.275200
   1143   1142   1155     1   110.5600475 386.601600
   1143   1142   1156     1   110.5600475 386.601600
   1143   1144   1159     1   117.6800502 383.254400
   1144   1143   1157     1   108.8800464 416.726400
   1144   1143   1158     1   108.8800464 416.726400
   1147   1136   1148     1   109.7500473 328.025600
   1149   1137   1150     1   109.7500473 328.025600
   1151   1138   1152     1   107.5800459 329.699200
   1153   1140   1154     1   107.5800459 329.699200
   1155   1142   1156     1   109.7500473 328.025600
   1157   1143   1158     1   108.4600466 328.025600
   1161   1162   1173     1   108.0100461 406.684800
   1161   1162   1174     1   108.0100461 406.684800
   1161   1163   1175     1   108.0100461 406.684800
   1161   1163   1176     1   108.0100461 406.684800
   1161   1168   1181     1   108.0100461 406.684800
   1161   1168   1182     1   108.0100461 406.684800
   1162   1161   1186     1   110.1100470 384.091200
   1162   1164   1177     1   109.8000471 387.438400
   1162   1164   1178     1   109.8000471 387.438400
   1163   1161   1186     1   110.1100470 384.091200
   1163   1166   1179     1   109.8000471 387.438400
   1163   1166   1180     1   109.8000471 387.438400
   1164   1162   1173     1   110.5600475 386.601600
   1164   1162   1174     1   110.5600475 386.601600
   1165   1164   1177     1   108.7700466 392.459200
   1165   1164   1178     1   108.7700466 392.459200
   1165   2503   2504     1   117.5500507 404.174400
   1166   1163   1175     1   110.5600475 386.601600
   1166   1163   1176     1   110.5600475 386.601600
   1167   1166   1179     1   108.7700466 392.459200
   1167   1166   1180     1   108.7700466 392.459200
   1167   2533   2534     1   117.5500507 404.174400
   1168   1161   1186     1   110.1100470 384.091200
   1168   1169   1183     1   109.5600471 388.275200
   1168   1169   1184     1   109.5600471 388.275200
   1169   1168   1181     1   110.5600475 386.601600
   1169   1168   1182     1   110.5600475 386.601600
   1169   1170   1185     1   117.6800502 383.254400
   1170   1169   1183     1   108.8800464 416.726400
   1170   1169   1184     1   108.8800464 416.726400
   1173   1162   1174     1   109.7500473 328.025600
   1175   1163   1176     1   109.7500473 328.025600
   1177   1164   1178     1   107.5800459 329.699200
   1179   1166   1180     1   107.5800459 329.699200
   1181   1168   1182     1   109.7500473 328.025600
   1183   1169   1184     1   108.4600466 328.025600
   1187   1188   1199     1   108.0100461 406.684800
   1187   1188   1200     1   108.0100461 406.684800
   1187   1189   1201     1   108.0100461 406.684800
   1187   1189   1202     1   108.0100461 406.684800
   1187   1194   1207     1   108.0100461 406.684800
   1187   1194   1208     1   108.0100461 406.684800
   1188   1187   1212     1   110.1100470 384.091200
   1188   1190   1203     1   109.8000471 387.438400
   1188   1190   1204     1   109.8000471 387.438400
   1189   1187   1212     1   110.1100470 384.091200
   1189   1192   1205     1   109.8000471 387.438400
   1189   1192   1206     1   109.8000471 387.438400
   1190   1188   1199     1   110.5600475 386.601600
   1190   1188   1200     1   110.5600475 386.601600
   1191   1190   1203     1   108.7700466 392.459200
   1191   1190   1204     1   108.7700466 392.459200
   1191   2563   2564     1   117.5500507 404.174400
   1192   1189   1201     1   110.5600475 386.601600
   1192   1189   1202     1   110.5600475 386.601600
   1193   1192   1205     1   108.7700466 392.459200
   1193   1192   1206     1   108.7700466 392.459200
   1193   2593   2594     1   117.5500507 404.174400
   1194   1187   1212     1   110.1100470 384.091200
   1194   1195   1209     1   109.5600471 388.275200
   1194   1195   1210     1   109.5600471 388.275200
   1195   1194   1207     1   110.5600475 386.601600
   1195   1194   1208     1   110.5600475 386.601600
   1195   1196   1211     1   117.6800502 383.254400
   1196   1195   1209     1   108.8800464 416.726400
   1196   1195   1210     1   108.8800464 416.726400
   1199   1188   1200     1   109.7500473 328.025600
   1201   1189   1202     1   109.7500473 328.025600
   1203   1190   1204     1   107.5800459 329.699200
   1205   1192   1206     1   107.5800459 329.699200
   1207   1194   1208     1   109.7500473 328.025600
   1209   1195   1210     1   108.4600466 328.025600
   1213   1214   1225     1   108.0100461 406.684800
   1213   1214   1226     1   108.0100461 406.684800
   1213   1215   1227     1   108.0100461 406.684800
   1213   1215   1228     1   108.0100461 406.684800
   1213   1220   1233     1   108.0100461 406.684800
   1213   1220   1234     1   108.0100461 406.684800
   1214   1213   1238     1   110.1100470 384.091200
   1214   1216   1229     1   109.8000471 387.438400
   1214   1216   1230     1   109.8000471 387.438400
   1215   1213   1238     1   110.1100470 384.091200
   1215   1218   1231     1   109.8000471 387.438400
   1215   1218   1232     1   109.8000471 387.438400
   1216   1214   1225     1   110.5600475 386.601600
   1216   1214   1226     1   110.5600475 386.601600
   1217   1216   1229     1   108.7700466 392.459200
   1217   1216   1230     1   108.7700466 392.459200
   1217   2623   2624     1   117.5500507 404.174400
   1218   1215   1227     1   110.5600475 386.601600
   1218   1215   1228     1   110.5600475 386.601600
   1219   1218   1231     1   108.7700466 392.459200
   1219   1218   1232     1   108.7700466 392.459200
   1219   2653   2654     1   117.5500507 404.174400
   1220   1213   1238     1   110.1100470 384.091200
   1220   1221   1235     1   109.5600471 388.275200
   1220   1221   1236     1   109.5600471 388.275200
   1221   1220   1233     1   110.5600475 386.601600
   1221   1220   1234     1   110.5600475 386.601600
   1221   1222   1237     1   117.6800502 383.254400
   1222   1221   1235     1   108.8800464 416.726400
   1222   1221   1236     1   108.8800464 416.726400
   1225   1214   1226     1   109.7500473 328.025600
   1227   1215   1228     1   109.7500473 328.025600
   1229   1216   1230     1   107.5800459 329.699200
   1231   1218   1232     1   107.5800459 329.699200
   1233   1220   1234     1   109.7500473 328.025600
   1235   1221   1236     1   108.4600466 328.025600
   1239   1240   1251     1   108.0100461 406.684800
   1239   1240   1252     1   108.0100461 406.684800
   1239   1241   1253     1   108.0100461 406.684800
   1239   1241   1254     1   108.0100461 406.684800
   1239   1246   1259     1   108.0100461 406.684800
   1239   1246   1260     1   108.0100461 406.684800
   1240   1239   1264     1   110.1100470 384.091200
   1240   1242   1255     1   109.8000471 387.438400
   1240   1242   1256     1   109.8000471 387.438400
   1241   1239   1264     1   110.1100470 384.091200
   1241   1244   1257     1   109.8000471 387.438400
   1241   1244   1258     1   109.8000471 387.438400
   1242   1240   1251     1   110.5600475 386.601600
   1242   1240   1252     1   110.5600475 386.601600
   1243   1242   1255     1   108.7700466 392.459200
   1243   1242   1256     1   108.7700466 392.459200
   1243   2683   2684     1   117.5500507 404.174400
   1244   1241   1253     1   110.5600475 386.601600
   1244   1241   1254     1   110.5600475 386.601600
   1245   1244   1257     1   108.7700466 392.459200
   1245   1244   1258     1   108.7700466 392.459200
   1245   2713   2714     1   117.5500507 404.174400
   1246   1239   1264     1   110.1100470 384.091200
   1246   1247   1261     1   109.5600471 388.275200
   1246   1247   1262     1   109.5600471 388.275200
   1247   1246   1259     1   110.5600475 386.601600
   1247   1246   1260     1   110.5600475 386.601600
   1247   1248   1263     1   117.6800502 383.254400
   1248   1247   1261     1   108.8800464 416.726400
   1248   1247   1262     1   108.8800464 416.726400
   1251   1240   1252     1   109.7500473 328.025600
   1253   1241   1254     1   109.7500473 328.025600
   1255   1242   1256     1   107.5800459 329.699200
   1257   1244   1258     1   107.5800459 329.699200
   1259   1246   1260     1   109.7500473 328.025600
   1261   1247   1262     1   108.4600466 328.025600
   1265   1266   1277     1   108.0100461 406.684800
   1265   1266   1278     1   108.0100461 406.684800
   1265   1267   1279     1   108.0100461 406.684800
   1265   1267   1280     1   108.0100461 406.684800
   1265   1272   1285     1   108.0100461 406.684800
   1265   1272   1286     1   108.0100461 406.684800
   1266   1265   1290     1   110.1100470 384.091200
   1266   1268   1281     1   109.8000471 387.438400
   1266   1268   1282     1   109.8000471 387.438400
   1267   1265   1290     1   110.1100470 384.091200
   1267   1270   1283     1   109.8000471 387.438400
   1267   1270   1284     1   109.8000471 387.438400
   1268   1266   1277     1   110.5600475 386.601600
   1268   1266   1278     1   110.5600475 386.601600
   1269   1268   1281     1   108.7700466 392.459200
   1269   1268   1282     1   108.7700466 392.459200
   1269   2743   2744     1   117.5500507 404.174400
   1270   1267   1279     1   110.5600475 386.601600
   1270   1267   1280     1   110.5600475 386.601600
   1271   1270   1283     1   108.7700466 392.459200
   1271   1270   1284     1   108.7700466 392.459200
   1271   2773   2774     1   117.5500507 404.174400
   1272   1265   1290     1   110.1100470 384.091200
   1272   1273   1287     1   109.5600471 388.275200
   1272   1273   1288     1   109.5600471 388.275200
   1273   1272   1285     1   110.5600475 386.601600
   1273   1272   1286     1   110.5600475 386.601600
   1273   1274   1289     1   117.6800502 383.254400
   1274   1273   1287     1   108.8800464 416.726400
   1274   1273   1288     1   108.8800464 416.726400
   1277   1266   1278     1   109.7500473 328.025600
   1279   1267   1280     1   109.7500473 328.025600
   1281   1268   1282     1   107.5800459 329.699200
   1283   1270   1284     1   107.5800459 329.699200
   1285   1272   1286     1   109.7500473 328.025600
   1287   1273   1288     1   108.4600466 328.025600
   1291   1292   1303     1   108.0100461 406.684800
   1291   1292   1304     1   108.0100461 406.684800
   1291   1293   1305     1   108.0100461 406.684800
   1291   1293   1306     1   108.0100461 406.684800
   1291   1298   1311     1   108.0100461 406.684800
   1291   1298   1312     1   108.0100461 406.684800
   1292   1291   1316     1   110.1100470 384.091200
   1292   1294   1307     1   109.8000471 387.438400
   1292   1294   1308     1   109.8000471 387.438400
   1293   1291   1316     1   110.1100470 384.091200
   1293   1296   1309     1   109.8000471 387.438400
   1293   1296   1310     1   109.8000471 387.438400
   1294   1292   1303     1   110.5600475 386.601600
   1294   1292   1304     1   110.5600475 386.601600
   1295   1294   1307     1   108.7700466 392.459200
   1295   1294   1308     1   108.7700466 392.459200
   1295   2803   2804     1   117.5500507 404.174400
   1296   1293   1305     1   110.5600475 386.601600
   1296   1293   1306     1   110.5600475 386.601600
   1297   1296   1309     1   108.7700466 392.459200
   1297   1296   1310     1   108.7700466 392.459200
   1297   2833   2834     1   117.5500507 404.174400
   1298   1291   1316     1   110.1100470 384.091200
   1298   1299   1313     1   109.5600471 388.275200
   1298   1299   1314     1   109.5600471 388.275200
   1299   1298   1311     1   110.5600475 386.601600
   1299   1298   1312     1   110.5600475 386.601600
   1299   1300   1315     1   117.6800502 383.254400
   1300   1299   1313     1   108.8800464 416.726400
   1300   1299   1314     1   108.8800464 416.726400
   1303   1292   1304     1   109.7500473 328.025600
   1305   1293   1306     1   109.7500473 328.025600
   1307   1294   1308     1   107.5800459 329.699200
   1309   1296   1310     1   107.5800459 329.699200
   1311   1298   1312     1   109.7500473 328.025600
   1313   1299   1314     1   108.4600466 328.025600
   1317   1318   1329     1   108.0100461 406.684800
   1317   1318   1330     1   108.0100461 406.684800
   1317   1319   1331     1   108.0100461 406.684800
   1317   1319   1332     1   108.0100461 406.684800
   1317   1324   1337     1   108.0100461 406.684800
   1317   1324   1338     1   108.0100461 406.684800
   1318   1317   1342     1   110.1100470 384.091200
   1318   1320   1333     1   109.8000471 387.438400
   1318   1320   1334     1   109.8000471 387.438400
   1319   1317   1342     1   110.1100470 384.091200
   1319   1322   1335     1   109.8000471 387.438400
   1319   1322   1336     1   109.8000471 387.438400
   1320   1318   1329     1   110.5600475 386.601600
   1320   1318   1330     1   110.5600475 386.601600
   1321   1320   1333     1   108.7700466 392.459200
   1321   1320   1334     1   108.7700466 392.459200
   1321   2863   2864     1   117.5500507 404.174400
   1322   1319   1331     1   110.5600475 386.601600
   1322   1319   1332     1   110.5600475 386.601600
   1323   1322   1335     1   108.7700466 392.459200
   1323   1322   1336     1   108.7700466 392.459200
   1323   2893   2894     1   117.5500507 404.174400
   1324   1317   1342     1   110.1100470 384.091200
   1324   1325   1339     1   109.5600471 388.275200
   1324   1325   1340     1   109.5600471 388.275200
   1325   1324   1337     1   110.5600475 386.601600
   1325   1324   1338     1   110.5600475 386.601600
   1325   1326   1341     1   117.6800502 383.254400
   1326   1325   1339     1   108.8800464 416.726400
   1326   1325   1340     1   108.8800464 416.726400
   1329   1318   1330     1   109.7500473 328.025600
   1331   1319   1332     1   109.7500473 328.025600
   1333   1320   1334     1   107.5800459 329.699200
   1335   1322   1336     1   107.5800459 329.699200
   1337   1324   1338     1   109.7500473 328.025600
   1339   1325   1340     1   108.4600466 328.025600
   1343   1344   1355     1   108.0100461 406.684800
   1343   1344   1356     1   108.0100461 406.684800
   1343   1345   1357     1   108.0100461 406.684800
   1343   1345   1358     1   108.0100461 406.684800
   1343   1350   1363     1   108.0100461 406.684800
   1343   1350   1364     1   108.0100461 406.684800
   1344   1343   1368     1   110.1100470 384.091200
   1344   1346   1359     1   109.8000471 387.438400
   1344   1346   1360     1   109.8000471 387.438400
   1345   1343   1368     1   110.1100470 384.091200
   1345   1348   1361     1   109.8000471 387.438400
   1345   1348   1362     1   109.8000471 387.438400
   1346   1344   1355     1   110.5600475 386.601600
   1346   1344   1356     1   110.5600475 386.601600
   1347   1346   1359     1   108.7700466 392.459200
   1347   1346   1360     1   108.7700466 392.459200
   1347   2923   2924     1   117.5500507 404.174400
   1348   1345   1357     1   110.5600475 386.601600
   1348   1345   1358     1   110.5600475 386.601600
   1349   1348   1361     1   108.7700466 392.459200
   1349   1348   1362     1   108.7700466 392.459200
   1349   2953   2954     1   117.5500507 404.174400
   1350   1343   1368     1   110.1100470 384.091200
   1350   1351   1365     1   109.5600471 388.275200
   1350   1351   1366     1   109.5600471 388.275200
   1351   1350   1363     1   110.5600475 386.601600
   1351   1350   1364     1   110.5600475 386.601600
   1351   1352   1367     1   117.6800502 383.254400
   1352   1351   1365     1   108.8800464 416.726400
   1352   1351   1366     1   108.8800464 416.726400
   1355   1344   1356     1   109.7500473 328.025600
   1357   1345   1358     1   109.7500473 328.025600
   1359   1346   1360     1   107.5800459 329.699200
   1361   1348   1362     1   107.5800459 329.699200
   1363   1350   1364     1   109.7500473 328.025600
   1365   1351   1366     1   108.4600466 328.025600
   1369   1370   1381     1   108.0100461 406.684800
   1369   1370   1382     1   108.0100461 406.684800
   1369   1371   1383     1   108.0100461 406.684800
   1369   1371   1384     1   108.0100461 406.684800
   1369   1376   1389     1   108.0100461 406.684800
   1369   1376   1390     1   108.0100461 406.684800
   1370   1369   1394     1   110.1100470 384.091200
   1370   1372   1385     1   109.8000471 387.438400
   1370   1372   1386     1   109.8000471 387.438400
   1371   1369   1394     1   110.1100470 384.091200
   1371   1374   1387     1   109.8000471 387.438400
   1371   1374   1388     1   109.8000471 387.438400
   1372   1370   1381     1   110.5600475 386.601600
   1372   1370   1382     1   110.5600475 386.601600
   1373   1372   1385     1   108.7700466 392.459200
   1373   1372   1386     1   108.7700466 392.459200
   1373   2983   2984     1   117.5500507 404.174400
   1374   1371   1383     1   110.5600475 386.601600
   1374   1371   1384     1   110.5600475 386.601600
   1375   1374   1387     1   108.7700466 392.459200
   1375   1374   1388     1   108.7700466 392.459200
   1375   3013   3014     1   117.5500507 404.174400
   1376   1369   1394     1   110.1100470 384.091200
   1376   1377   1391     1   109.5600471 388.275200
   1376   1377   1392     1   109.5600471 388.275200
   1377   1376   1389     1   110.5600475 386.601600
   1377   1376   1390     1   110.5600475 386.601600
   1377   1378   1393     1   117.6800502 383.254400
   1378   1377   1391     1   108.8800464 416.726400
   1378   1377   1392     1   108.8800464 416.726400
   1381   1370   1382     1   109.7500473 328.025600
   1383   1371   1384     1   109.7500473 328.025600
   1385   1372   1386     1   107.5800459 329.699200
   1387   1374   1388     1   107.5800459 329.699200
   1389   1376   1390     1   109.7500473 328.025600
   1391   1377   1392     1   108.4600466 328.025600
   1395   1396   1407     1   108.0100461 406.684800
   1395   1396   1408     1   108.0100461 406.684800
   1395   1397   1409     1   108.0100461 406.684800
   1395   1397   1410     1   108.0100461 406.684800
   1395   1402   1415     1   108.0100461 406.684800
   1395   1402   1416     1   108.0100461 406.684800
   1396   1395   1420     1   110.1100470 384.091200
   1396   1398   1411     1   109.8000471 387.438400
   1396   1398   1412     1   109.8000471 387.438400
   1397   1395   1420     1   110.1100470 384.091200
   1397   1400   1413     1   109.8000471 387.438400
   1397   1400   1414     1   109.8000471 387.438400
   1398   1396   1407     1   110.5600475 386.601600
   1398   1396   1408     1   110.5600475 386.601600
   1399   1398   1411     1   108.7700466 392.459200
   1399   1398   1412     1   108.7700466 392.459200
   1399   3043   3044     1   117.5500507 404.174400
   1400   1397   1409     1   110.5600475 386.601600
   1400   1397   1410     1   110.5600475 386.601600
   1401   1400   1413     1   108.7700466 392.459200
   1401   1400   1414     1   108.7700466 392.459200
   1401   3073   3074     1   117.5500507 404.174400
   1402   1395   1420     1   110.1100470 384.091200
   1402   1403   1417     1   109.5600471 388.275200
   1402   1403   1418     1   109.5600471 388.275200
   1403   1402   1415     1   110.5600475 386.601600
   1403   1402   1416     1   110.5600475 386.601600
   1403   1404   1419     1   117.6800502 383.254400
   1404   1403   1417     1   108.8800464 416.726400
   1404   1403   1418     1   108.8800464 416.726400
   1407   1396   1408     1   109.7500473 328.025600
   1409   1397   1410     1   109.7500473 328.025600
   1411   1398   1412     1   107.5800459 329.699200
   1413   1400   1414     1   107.5800459 329.699200
   1415   1402   1416     1   109.7500473 328.025600
   1417   1403   1418     1   108.4600466 328.025600
   1421   1422   1433     1   108.0100461 406.684800
   1421   1422   1434     1   108.0100461 406.684800
   1421   1423   1435     1   108.0100461 406.684800
   1421   1423   1436     1   108.0100461 406.684800
   1421   1428   1441     1   108.0100461 406.684800
   1421   1428   1442     1   108.0100461 406.684800
   1422   1421   1446     1   110.1100470 384.091200
   1422   1424   1437     1   109.8000471 387.438400
   1422   1424   1438     1   109.8000471 387.438400
   1423   1421   1446     1   110.1100470 384.091200
   1423   1426   1439     1   109.8000471 387.438400
   1423   1426   1440     1   109.8000471 387.438400
   1424   1422   1433     1   110.5600475 386.601600
   1424   1422   1434     1   110.5600475 386.601600
   1425   1424   1437     1   108.7700466 392.459200
   1425   1424   1438     1   108.7700466 392.459200
   1425   3103   3104     1   117.5500507 404.174400
   1426   1423   1435     1   110.5600475 386.601600
   1426   1423   1436     1   110.5600475 386.601600
   1427   1426   1439     1   108.7700466 392.459200
   1427   1426   1440     1   108.7700466 392.459200
   1427   3133   3134     1   117.5500507 404.174400
   1428   1421   1446     1   110.1100470 384.091200
   1428   1429   1443     1   109.5600471 388.275200
   1428   1429   1444     1   109.5600471 388.275200
   1429   1428   1441     1   110.5600475 386.601600
   1429   1428   1442     1   110.5600475 386.601600
   1429   1430   1445     1   117.6800502 383.254400
   1430   1429   1443     1   108.8800464 416.726400
   1430   1429   1444     1   108.8800464 416.726400
   1433   1422   1434     1   109.7500473 328.025600
   1435   1423   1436     1   109.7500473 328.025600
   1437   1424   1438     1   107.5800459 329.699200
   1439   1426   1440     1   107.5800459 329.699200
   1441   1428   1442     1   109.7500473 328.025600
   1443   1429   1444     1   108.4600466 328.025600
   1447   1448   1459     1   108.0100461 406.684800
   1447   1448   1460     1   108.0100461 406.684800
   1447   1449   1461     1   108.0100461 406.684800
   1447   1449   1462     1   108.0100461 406.684800
   1447   1454   1467     1   108.0100461 406.684800
   1447   1454   1468     1   108.0100461 406.684800
   1448   1447   1472     1   110.1100470 384.091200
   1448   1450   1463     1   109.8000471 387.438400
   1448   1450   1464     1   109.8000471 387.438400
   1449   1447   1472     1   110.1100470 384.091200
   1449   1452   1465     1   109.8000471 387.438400
   1449   1452   1466     1   109.8000471 387.438400
   1450   1448   1459     1   110.5600475 386.601600
   1450   1448   1460     1   110.5600475 386.601600
   1451   1450   1463     1   108.7700466 392.459200
   1451   1450   1464     1   108.7700466 392.459200
   1451   3163   3164     1   117.5500507 404.174400
   1452   1449   1461     1   110.5600475 386.601600
   1452   1449   1462     1   110.5600475 386.601600
   1453   1452   1465     1   108.7700466 392.459200
   1453   1452   1466     1   108.7700466 392.459200
   1453   3193   3194     1   117.5500507 404.174400
   1454   1447   1472     1   110.1100470 384.091200
   1454   1455   1469     1   109.5600471 388.275200
   1454   1455   1470     1   109.5600471 388.275200
   1455   1454   1467     1   110.5600475 386.601600
   1455   1454   1468     1   110.5600475 386.601600
   1455   1456   1471     1   117.6800502 383.254400
   1456   1455   1469     1   108.8800464 416.726400
   1456   1455   1470     1   108.8800464 416.726400
   1459   1448   1460     1   109.7500473 328.025600
   1461   1449   1462     1   109.7500473 328.025600
   1463   1450   1464     1   107.5800459 329.699200
   1465   1452   1466     1   107.5800459 329.699200
   1467   1454   1468     1   109.7500473 328.025600
   1469   1455   1470     1   108.4600466 328.025600
   1473   1474   1485     1   108.0100461 406.684800
   1473   1474   1486     1   108.0100461 406.684800
   1473   1475   1487     1   108.0100461 406.684800
   1473   1475   1488     1   108.0100461 406.684800
   1473   1480   1493     1   108.0100461 406.684800
   1473   1480   1494     1   108.0100461 406.684800
   1474   1473   1498     1   110.1100470 384.091200
   1474   1476   1489     1   109.8000471 387.438400
   1474   1476   1490     1   109.8000471 387.438400
   1475   1473   1498     1   110.1100470 384.091200
   1475   1478   1491     1   109.8000471 387.438400
   1475   1478   1492     1   109.8000471 387.438400
   1476   1474   1485     1   110.5600475 386.601600
   1476   1474   1486     1   110.5600475 386.601600
   1477   1476   1489     1   108.7700466 392.459200
   1477   1476   1490     1   108.7700466 392.459200
   1477   3223   3224     1   117.5500507 404.174400
   1478   1475   1487     1   110.5600475 386.601600
   1478   1475   1488     1   110.5600475 386.601600
   1479   1478   1491     1   108.7700466 392.459200
   1479   1478   1492     1   108.7700466 392.459200
   1479   3253   3254     1   117.5500507 404.174400
   1480   1473   1498     1   110.1100470 384.091200
   1480   1481   1495     1   109.5600471 388.275200
   1480   1481   1496     1   109.5600471 388.275200
   1481   1480   1493     1   110.5600475 386.601600
   1481   1480   1494     1   110.5600475 386.601600
   1481   1482   1497     1   117.6800502 383.254400
   1482   1481   1495     1   108.8800464 416.726400
   1482   1481   1496     1   108.8800464 416.726400
   1485   1474   1486     1   109.7500473 328.025600
   1487   1475   1488     1   109.7500473 328.025600
   1489   1476   1490     1   107.5800459 329.699200
   1491   1478   1492     1   107.5800459 329.699200
   1493   1480   1494     1   109.7500473 328.025600
   1495   1481   1496     1   108.4600466 328.025600
   1499   1500   1511     1   108.0100461 406.684800
   1499   1500   1512     1   108.0100461 406.684800
   1499   1501   1513     1   108.0100461 406.684800
   1499   1501   1514     1   108.0100461 406.684800
   1499   1506   1519     1   108.0100461 406.684800
   1499   1506   1520     1   108.0100461 406.684800
   1500   1499   1524     1   110.1100470 384.091200
   1500   1502   1515     1   109.8000471 387.438400
   1500   1502   1516     1   109.8000471 387.438400
   1501   1499   1524     1   110.1100470 384.091200
   1501   1504   1517     1   109.8000471 387.438400
   1501   1504   1518     1   109.8000471 387.438400
   1502   1500   1511     1   110.5600475 386.601600
   1502   1500   1512     1   110.5600475 386.601600
   1503   1502   1515     1   108.7700466 392.459200
   1503   1502   1516     1   108.7700466 392.459200
   1503   3283   3284     1   117.5500507 404.174400
   1504   1501   1513     1   110.5600475 386.601600
   1504   1501   1514     1   110.5600475 386.601600
   1505   1504   1517     1   108.7700466 392.459200
   1505   1504   1518     1   108.7700466 392.459200
   1505   3313   3314     1   117.5500507 404.174400
   1506   1499   1524     1   110.1100470 384.091200
   1506   1507   1521     1   109.5600471 388.275200
   1506   1507   1522     1   109.5600471 388.275200
   1507   1506   1519     1   110.5600475 386.601600
   1507   1506   1520     1   110.5600475 386.601600
   1507   1508   1523     1   117.6800502 383.254400
   1508   1507   1521     1   108.8800464 416.726400
   1508   1507   1522     1   108.8800464 416.726400
   1511   1500   1512     1   109.7500473 328.025600
   1513   1501   1514     1   109.7500473 328.025600
   1515   1502   1516     1   107.5800459 329.699200
   1517   1504   1518     1   107.5800459 329.699200
   1519   1506   1520     1   109.7500473 328.025600
   1521   1507   1522     1   108.4600466 328.025600
   1525   1526   1537     1   108.0100461 406.684800
   1525   1526   1538     1   108.0100461 406.684800
   1525   1527   1539     1   108.0100461 406.684800
   1525   1527   1540     1   108.0100461 406.684800
   1525   1532   1545     1   108.0100461 406.684800
   1525   1532   1546     1   108.0100461 406.684800
   1526   1525   1550     1   110.1100470 384.091200
   1526   1528   1541     1   109.8000471 387.438400
   1526   1528   1542     1   109.8000471 387.438400
   1527   1525   1550     1   110.1100470 384.091200
   1527   1530   1543     1   109.8000471 387.438400
   1527   1530   1544     1   109.8000471 387.438400
   1528   1526   1537     1   110.5600475 386.601600
   1528   1526   1538     1   110.5600475 386.601600
   1529   1528   1541     1   108.7700466 392.459200
   1529   1528   1542     1   108.7700466 392.459200
   1529   3343   3344     1   117.5500507 404.174400
   1530   1527   1539     1   110.5600475 386.601600
   1530   1527   1540     1   110.5600475 386.601600
   1531   1530   1543     1   108.7700466 392.459200
   1531   1530   1544     1   108.7700466 392.459200
   1531   3373   3374     1   117.5500507 404.174400
   1532   1525   1550     1   110.1100470 384.091200
   1532   1533   1547     1   109.5600471 388.275200
   1532   1533   1548     1   109.5600471 388.275200
   1533   1532   1545     1   110.5600475 386.601600
   1533   1532   1546     1   110.5600475 386.601600
   1533   1534   1549     1   117.6800502 383.254400
   1534   1533   1547     1   108.8800464 416.726400
   1534   1533   1548     1   108.8800464 416.726400
   1537   1526   1538     1   109.7500473 328.025600
   1539   1527   1540     1   109.7500473 328.025600
   1541   1528   1542     1   107.5800459 329.699200
   1543   1530   1544     1   107.5800459 329.699200
   1545   1532   1546     1   109.7500473 328.025600
   1547   1533   1548     1   108.4600466 328.025600
   1551   1552   1563     1   108.0100461 406.684800
   1551   1552   1564     1   108.0100461 406.684800
   1551   1553   1565     1   108.0100461 406.684800
   1551   1553   1566     1   108.0100461 406.684800
   1551   1558   1571     1   108.0100461 406.684800
   1551   1558   1572     1   108.0100461 406.684800
   1552   1551   1576     1   110.1100470 384.091200
   1552   1554   1567     1   109.8000471 387.438400
   1552   1554   1568     1   109.8000471 387.438400
   1553   1551   1576     1   110.1100470 384.091200
   1553   1556   1569     1   109.8000471 387.438400
   1553   1556   1570     1   109.8000471 387.438400
   1554   1552   1563     1   110.5600475 386.601600
   1554   1552   1564     1   110.5600475 386.601600
   1555   1554   1567     1   108.7700466 392.459200
   1555   1554   1568     1   108.7700466 392.459200
   1555   3403   3404     1   117.5500507 404.174400
   1556   1553   1565     1   110.5600475 386.601600
   1556   1553   1566     1   110.5600475 386.601600
   1557   1556   1569     1   108.7700466 392.459200
   1557   1556   1570     1   108.7700466 392.459200
   1557   3433   3434     1   117.5500507 404.174400
   1558   1551   1576     1   110.1100470 384.091200
   1558   1559   1573     1   109.5600471 388.275200
   1558   1559   1574     1   109.5600471 388.275200
   1559   1558   1571     1   110.5600475 386.601600
   1559   1558   1572     1   110.5600475 386.601600
   1559   1560   1575     1   117.6800502 383.254400
   1560   1559   1573     1   108.8800464 416.726400
   1560   1559   1574     1   108.8800464 416.726400
   1563   1552   1564     1   109.7500473 328.025600
   1565   1553   1566     1   109.7500473 328.025600
   1567   1554   1568     1   107.5800459 329.699200
   1569   1556   1570     1   107.5800459 329.699200
   1571   1558   1572     1   109.7500473 328.025600
   1573   1559   1574     1   108.4600466 328.025600
   1577   1578   1589     1   108.0100461 406.684800
   1577   1578   1590     1   108.0100461 406.684800
   1577   1579   1591     1   108.0100461 406.684800
   1577   1579   1592     1   108.0100461 406.684800
   1577   1584   1597     1   108.0100461 406.684800
   1577   1584   1598     1   108.0100461 406.684800
   1578   1577   1602     1   110.1100470 384.091200
   1578   1580   1593     1   109.8000471 387.438400
   1578   1580   1594     1   109.8000471 387.438400
   1579   1577   1602     1   110.1100470 384.091200
   1579   1582   1595     1   109.8000471 387.438400
   1579   1582   1596     1   109.8000471 387.438400
   1580   1578   1589     1   110.5600475 386.601600
   1580   1578   1590     1   110.5600475 386.601600
   1581   1580   1593     1   108.7700466 392.459200
   1581   1580   1594     1   108.7700466 392.459200
   1581   3463   3464     1   117.5500507 404.174400
   1582   1579   1591     1   110.5600475 386.601600
   1582   1579   1592     1   110.5600475 386.601600
   1583   1582   1595     1   108.7700466 392.459200
   1583   1582   1596     1   108.7700466 392.459200
   1583   3493   3494     1   117.5500507 404.174400
   1584   1577   1602     1   110.1100470 384.091200
   1584   1585   1599     1   109.5600471 388.275200
   1584   1585   1600     1   109.5600471 388.275200
   1585   1584   1597     1   110.5600475 386.601600
   1585   1584   1598     1   110.5600475 386.601600
   1585   1586   1601     1   117.6800502 383.254400
   1586   1585   1599     1   108.8800464 416.726400
   1586   1585   1600     1   108.8800464 416.726400
   1589   1578   1590     1   109.7500473 328.025600
   1591   1579   1592     1   109.7500473 328.025600
   1593   1580   1594     1   107.5800459 329.699200
   1595   1582   1596     1   107.5800459 329.699200
   1597   1584   1598     1   109.7500473 328.025600
   1599   1585   1600     1   108.4600466 328.025600
   1603   1605   1606     1   108.8800464 416.726400
   1603   1605   1608     1   108.8800464 416.726400
   1604   1603   1605     1   117.6800502 383.254400
   1605   1607   1609     1   110.5600475 386.601600
   1605   1607   1610     1   110.5600475 386.601600
   1606   1605   1607     1   109.5600471 388.275200
   1606   1605   1608     1   108.4600466 328.025600
   1607   1605   1608     1   109.5600471 388.275200
   1607   1611   1632     1   110.1100470 384.091200
   1609   1607   1611     1   108.0100461 406.684800
   1609   1607   1610     1   109.7500473 328.025600
   1610   1607   1611     1   108.0100461 406.684800
   1611   1612   1622     1   108.0100461 406.684800
   1611   1612   1623     1   108.0100461 406.684800
   1611   1613   1614     1   108.0100461 406.684800
   1611   1613   1616     1   108.0100461 406.684800
   1612   1611   1632     1   110.1100470 384.091200
   1612   1624   1625     1   109.8000471 387.438400
   1612   1624   1626     1   109.8000471 387.438400
   1613   1611   1632     1   110.1100470 384.091200
   1613   1615   1617     1   109.8000471 387.438400
   1613   1615   1618     1   109.8000471 387.438400
   1614   1613   1615     1   110.5600475 386.601600
   1614   1613   1616     1   109.7500473 328.025600
   1615   1613   1616     1   110.5600475 386.601600
   1617   1615   1619     1   108.7700466 392.459200
   1617   1615   1618     1   107.5800459 329.699200
   1618   1615   1619     1   108.7700466 392.459200
   1619   1620   1630     1   106.5500460 417.563200
   1622   1612   1624     1   110.5600475 386.601600
   1622   1612   1623     1   109.7500473 328.025600
   1623   1612   1624     1   110.5600475 386.601600
   1625   1624   1627     1   108.7700466 392.459200
   1625   1624   1626     1   107.5800459 329.699200
   1626   1624   1627     1   108.7700466 392.459200
   1627   1629   1631     1   106.5500460 417.563200
   1633   1635   1636     1   108.8800464 416.726400
   1633   1635   1638     1   108.8800464 416.726400
   1634   1633   1635     1   117.6800502 383.254400
   1635   1637   1639     1   110.5600475 386.601600
   1635   1637   1640     1   110.5600475 386.601600
   1636   1635   1637     1   109.5600471 388.275200
   1636   1635   1638     1   108.4600466 328.025600
   1637   1641   1662     1   110.1100470 384.091200
   1637   1635   1638     1   109.5600471 388.275200
   1639   1637   1641     1   108.0100461 406.684800
   1639   1637   1640     1   109.7500473 328.025600
   1640   1637   1641     1   108.0100461 406.684800
   1641   1642   1652     1   108.0100461 406.684800
   1641   1642   1653     1   108.0100461 406.684800
   1641   1643   1644     1   108.0100461 406.684800
   1641   1643   1646     1   108.0100461 406.684800
   1642   1654   1655     1   109.8000471 387.438400
   1642   1654   1656     1   109.8000471 387.438400
   1642   1641   1662     1   110.1100470 384.091200
   1643   1645   1647     1   109.8000471 387.438400
   1643   1645   1648     1   109.8000471 387.438400
   1643   1641   1662     1   110.1100470 384.091200
   1644   1643   1645     1   110.5600475 386.601600
   1644   1643   1646     1   109.7500473 328.025600
   1645   1643   1646     1   110.5600475 386.601600
   1647   1645   1649     1   108.7700466 392.459200
   1647   1645   1648     1   107.5800459 329.699200
   1648   1645   1649     1   108.7700466 392.459200
   1649   1650   1660     1   106.5500460 417.563200
   1652   1642   1654     1   110.5600475 386.601600
   1652   1642   1653     1   109.7500473 328.025600
   1653   1642   1654     1   110.5600475 386.601600
   1655   1654   1657     1   108.7700466 392.459200
   1655   1654   1656     1   107.5800459 329.699200
   1656   1654   1657     1   108.7700466 392.459200
   1657   1659   1661     1   106.5500460 417.563200
   1663   1665   1666     1   108.8800464 416.726400
   1663   1665   1668     1   108.8800464 416.726400
   1664   1663   1665     1   117.6800502 383.254400
   1665   1667   1669     1   110.5600475 386.601600
   1665   1667   1670     1   110.5600475 386.601600
   1666   1665   1667     1   109.5600471 388.275200
   1666   1665   1668     1   108.4600466 328.025600
   1667   1665   1668     1   109.5600471 388.275200
   1667   1671   1692     1   110.1100470 384.091200
   1669   1667   1671     1   108.0100461 406.684800
   1669   1667   1670     1   109.7500473 328.025600
   1670   1667   1671     1   108.0100461 406.684800
   1671   1672   1682     1   108.0100461 406.684800
   1671   1672   1683     1   108.0100461 406.684800
   1671   1673   1674     1   108.0100461 406.684800
   1671   1673   1676     1   108.0100461 406.684800
   1672   1671   1692     1   110.1100470 384.091200
   1672   1684   1685     1   109.8000471 387.438400
   1672   1684   1686     1   109.8000471 387.438400
   1673   1671   1692     1   110.1100470 384.091200
   1673   1675   1677     1   109.8000471 387.438400
   1673   1675   1678     1   109.8000471 387.438400
   1674   1673   1675     1   110.5600475 386.601600
   1674   1673   1676     1   109.7500473 328.025600
   1675   1673   1676     1   110.5600475 386.601600
   1677   1675   1679     1   108.7700466 392.459200
   1677   1675   1678     1   107.5800459 329.699200
   1678   1675   1679     1   108.7700466 392.459200
   1679   1680   1690     1   106.5500460 417.563200
   1682   1672   1684     1   110.5600475 386.601600
   1682   1672   1683     1   109.7500473 328.025600
   1683   1672   1684     1   110.5600475 386.601600
   1685   1684   1687     1   108.7700466 392.459200
   1685   1684   1686     1   107.5800459 329.699200
   1686   1684   1687     1   108.7700466 392.459200
   1687   1689   1691     1   106.5500460 417.563200
   1693   1695   1696     1   108.8800464 416.726400
   1693   1695   1698     1   108.8800464 416.726400
   1694   1693   1695     1   117.6800502 383.254400
   1695   1697   1699     1   110.5600475 386.601600
   1695   1697   1700     1   110.5600475 386.601600
   1696   1695   1697     1   109.5600471 388.275200
   1696   1695   1698     1   108.4600466 328.025600
   1697   1701   1722     1   110.1100470 384.091200
   1697   1695   1698     1   109.5600471 388.275200
   1699   1697   1701     1   108.0100461 406.684800
   1699   1697   1700     1   109.7500473 328.025600
   1700   1697   1701     1   108.0100461 406.684800
   1701   1702   1712     1   108.0100461 406.684800
   1701   1702   1713     1   108.0100461 406.684800
   1701   1703   1704     1   108.0100461 406.684800
   1701   1703   1706     1   108.0100461 406.684800
   1702   1714   1715     1   109.8000471 387.438400
   1702   1714   1716     1   109.8000471 387.438400
   1702   1701   1722     1   110.1100470 384.091200
   1703   1705   1707     1   109.8000471 387.438400
   1703   1705   1708     1   109.8000471 387.438400
   1703   1701   1722     1   110.1100470 384.091200
   1704   1703   1705     1   110.5600475 386.601600
   1704   1703   1706     1   109.7500473 328.025600
   1705   1703   1706     1   110.5600475 386.601600
   1707   1705   1709     1   108.7700466 392.459200
   1707   1705   1708     1   107.5800459 329.699200
   1708   1705   1709     1   108.7700466 392.459200
   1709   1710   1720     1   106.5500460 417.563200
   1712   1702   1714     1   110.5600475 386.601600
   1712   1702   1713     1   109.7500473 328.025600
   1713   1702   1714     1   110.5600475 386.601600
   1715   1714   1717     1   108.7700466 392.459200
   1715   1714   1716     1   107.5800459 329.699200
   1716   1714   1717     1   108.7700466 392.459200
   1717   1719   1721     1   106.5500460 417.563200
   1723   1725   1726     1   108.8800464 416.726400
   1723   1725   1728     1   108.8800464 416.726400
   1724   1723   1725     1   117.6800502 383.254400
   1725   1727   1729     1   110.5600475 386.601600
   1725   1727   1730     1   110.5600475 386.601600
   1726   1725   1727     1   109.5600471 388.275200
   1726   1725   1728     1   108.4600466 328.025600
   1727   1725   1728     1   109.5600471 388.275200
   1727   1731   1752     1   110.1100470 384.091200
   1729   1727   1731     1   108.0100461 406.684800
   1729   1727   1730     1   109.7500473 328.025600
   1730   1727   1731     1   108.0100461 406.684800
   1731   1732   1742     1   108.0100461 406.684800
   1731   1732   1743     1   108.0100461 406.684800
   1731   1733   1734     1   108.0100461 406.684800
   1731   1733   1736     1   108.0100461 406.684800
   1732   1731   1752     1   110.1100470 384.091200
   1732   1744   1745     1   109.8000471 387.438400
   1732   1744   1746     1   109.8000471 387.438400
   1733   1731   1752     1   110.1100470 384.091200
   1733   1735   1737     1   109.8000471 387.438400
   1733   1735   1738     1   109.8000471 387.438400
   1734   1733   1735     1   110.5600475 386.601600
   1734   1733   1736     1   109.7500473 328.025600
   1735   1733   1736     1   110.5600475 386.601600
   1737   1735   1739     1   108.7700466 392.459200
   1737   1735   1738     1   107.5800459 329.699200
   1738   1735   1739     1   108.7700466 392.459200
   1739   1740   1750     1   106.5500460 417.563200
   1742   1732   1744     1   110.5600475 386.601600
   1742   1732   1743     1   109.7500473 328.025600
   1743   1732   1744     1   110.5600475 386.601600
   1745   1744   1747     1   108.7700466 392.459200
   1745   1744   1746     1   107.5800459 329.699200
   1746   1744   1747     1   108.7700466 392.459200
   1747   1749   1751     1   106.5500460 417.563200
   1753   1755   1756     1   108.8800464 416.726400
   1753   1755   1758     1   108.8800464 416.726400
   1754   1753   1755     1   117.6800502 383.254400
   1755   1757   1759     1   110.5600475 386.601600
   1755   1757   1760     1   110.5600475 386.601600
   1756   1755   1757     1   109.5600471 388.275200
   1756   1755   1758     1   108.4600466 328.025600
   1757   1761   1782     1   110.1100470 384.091200
   1757   1755   1758     1   109.5600471 388.275200
   1759   1757   1761     1   108.0100461 406.684800
   1759   1757   1760     1   109.7500473 328.025600
   1760   1757   1761     1   108.0100461 406.684800
   1761   1762   1772     1   108.0100461 406.684800
   1761   1762   1773     1   108.0100461 406.684800
   1761   1763   1764     1   108.0100461 406.684800
   1761   1763   1766     1   108.0100461 406.684800
   1762   1774   1775     1   109.8000471 387.438400
   1762   1774   1776     1   109.8000471 387.438400
   1762   1761   1782     1   110.1100470 384.091200
   1763   1765   1767     1   109.8000471 387.438400
   1763   1765   1768     1   109.8000471 387.438400
   1763   1761   1782     1   110.1100470 384.091200
   1764   1763   1765     1   110.5600475 386.601600
   1764   1763   1766     1   109.7500473 328.025600
   1765   1763   1766     1   110.5600475 386.601600
   1767   1765   1769     1   108.7700466 392.459200
   1767   1765   1768     1   107.5800459 329.699200
   1768   1765   1769     1   108.7700466 392.459200
   1769   1770   1780     1   106.5500460 417.563200
   1772   1762   1774     1   110.5600475 386.601600
   1772   1762   1773     1   109.7500473 328.025600
   1773   1762   1774     1   110.5600475 386.601600
   1775   1774   1777     1   108.7700466 392.459200
   1775   1774   1776     1   107.5800459 329.699200
   1776   1774   1777     1   108.7700466 392.459200
   1777   1779   1781     1   106.5500460 417.563200
   1783   1785   1786     1   108.8800464 416.726400
   1783   1785   1788     1   108.8800464 416.726400
   1784   1783   1785     1   117.6800502 383.254400
   1785   1787   1789     1   110.5600475 386.601600
   1785   1787   1790     1   110.5600475 386.601600
   1786   1785   1787     1   109.5600471 388.275200
   1786   1785   1788     1   108.4600466 328.025600
   1787   1785   1788     1   109.5600471 388.275200
   1787   1791   1812     1   110.1100470 384.091200
   1789   1787   1791     1   108.0100461 406.684800
   1789   1787   1790     1   109.7500473 328.025600
   1790   1787   1791     1   108.0100461 406.684800
   1791   1792   1802     1   108.0100461 406.684800
   1791   1792   1803     1   108.0100461 406.684800
   1791   1793   1794     1   108.0100461 406.684800
   1791   1793   1796     1   108.0100461 406.684800
   1792   1791   1812     1   110.1100470 384.091200
   1792   1804   1805     1   109.8000471 387.438400
   1792   1804   1806     1   109.8000471 387.438400
   1793   1791   1812     1   110.1100470 384.091200
   1793   1795   1797     1   109.8000471 387.438400
   1793   1795   1798     1   109.8000471 387.438400
   1794   1793   1795     1   110.5600475 386.601600
   1794   1793   1796     1   109.7500473 328.025600
   1795   1793   1796     1   110.5600475 386.601600
   1797   1795   1799     1   108.7700466 392.459200
   1797   1795   1798     1   107.5800459 329.699200
   1798   1795   1799     1   108.7700466 392.459200
   1799   1800   1810     1   106.5500460 417.563200
   1802   1792   1804     1   110.5600475 386.601600
   1802   1792   1803     1   109.7500473 328.025600
   1803   1792   1804     1   110.5600475 386.601600
   1805   1804   1807     1   108.7700466 392.459200
   1805   1804   1806     1   107.5800459 329.699200
   1806   1804   1807     1   108.7700466 392.459200
   1807   1809   1811     1   106.5500460 417.563200
   1813   1815   1816     1   108.8800464 416.726400
   1813   1815   1818     1   108.8800464 416.726400
   1814   1813   1815     1   117.6800502 383.254400
   1815   1817   1819     1   110.5600475 386.601600
   1815   1817   1820     1   110.5600475 386.601600
   1816   1815   1817     1   109.5600471 388.275200
   1816   1815   1818     1   108.4600466 328.025600
   1817   1821   1842     1   110.1100470 384.091200
   1817   1815   1818     1   109.5600471 388.275200
   1819   1817   1821     1   108.0100461 406.684800
   1819   1817   1820     1   109.7500473 328.025600
   1820   1817   1821     1   108.0100461 406.684800
   1821   1822   1832     1   108.0100461 406.684800
   1821   1822   1833     1   108.0100461 406.684800
   1821   1823   1824     1   108.0100461 406.684800
   1821   1823   1826     1   108.0100461 406.684800
   1822   1834   1835     1   109.8000471 387.438400
   1822   1834   1836     1   109.8000471 387.438400
   1822   1821   1842     1   110.1100470 384.091200
   1823   1825   1827     1   109.8000471 387.438400
   1823   1825   1828     1   109.8000471 387.438400
   1823   1821   1842     1   110.1100470 384.091200
   1824   1823   1825     1   110.5600475 386.601600
   1824   1823   1826     1   109.7500473 328.025600
   1825   1823   1826     1   110.5600475 386.601600
   1827   1825   1829     1   108.7700466 392.459200
   1827   1825   1828     1   107.5800459 329.699200
   1828   1825   1829     1   108.7700466 392.459200
   1829   1830   1840     1   106.5500460 417.563200
   1832   1822   1834     1   110.5600475 386.601600
   1832   1822   1833     1   109.7500473 328.025600
   1833   1822   1834     1   110.5600475 386.601600
   1835   1834   1837     1   108.7700466 392.459200
   1835   1834   1836     1   107.5800459 329.699200
   1836   1834   1837     1   108.7700466 392.459200
   1837   1839   1841     1   106.5500460 417.563200
   1843   1845   1846     1   108.8800464 416.726400
   1843   1845   1848     1   108.8800464 416.726400
   1844   1843   1845     1   117.6800502 383.254400
   1845   1847   1849     1   110.5600475 386.601600
   1845   1847   1850     1   110.5600475 386.601600
   1846   1845   1847     1   109.5600471 388.275200
   1846   1845   1848     1   108.4600466 328.025600
   1847   1845   1848     1   109.5600471 388.275200
   1847   1851   1872     1   110.1100470 384.091200
   1849   1847   1851     1   108.0100461 406.684800
   1849   1847   1850     1   109.7500473 328.025600
   1850   1847   1851     1   108.0100461 406.684800
   1851   1852   1862     1   108.0100461 406.684800
   1851   1852   1863     1   108.0100461 406.684800
   1851   1853   1854     1   108.0100461 406.684800
   1851   1853   1856     1   108.0100461 406.684800
   1852   1851   1872     1   110.1100470 384.091200
   1852   1864   1865     1   109.8000471 387.438400
   1852   1864   1866     1   109.8000471 387.438400
   1853   1851   1872     1   110.1100470 384.091200
   1853   1855   1857     1   109.8000471 387.438400
   1853   1855   1858     1   109.8000471 387.438400
   1854   1853   1855     1   110.5600475 386.601600
   1854   1853   1856     1   109.7500473 328.025600
   1855   1853   1856     1   110.5600475 386.601600
   1857   1855   1859     1   108.7700466 392.459200
   1857   1855   1858     1   107.5800459 329.699200
   1858   1855   1859     1   108.7700466 392.459200
   1859   1860   1870     1   106.5500460 417.563200
   1862   1852   1864     1   110.5600475 386.601600
   1862   1852   1863     1   109.7500473 328.025600
   1863   1852   1864     1   110.5600475 386.601600
   1865   1864   1867     1   108.7700466 392.459200
   1865   1864   1866     1   107.5800459 329.699200
   1866   1864   1867     1   108.7700466 392.459200
   1867   1869   1871     1   106.5500460 417.563200
   1873   1875   1876     1   108.8800464 416.726400
   1873   1875   1878     1   108.8800464 416.726400
   1874   1873   1875     1   117.6800502 383.254400
   1875   1877   1879     1   110.5600475 386.601600
   1875   1877   1880     1   110.5600475 386.601600
   1876   1875   1877     1   109.5600471 388.275200
   1876   1875   1878     1   108.4600466 328.025600
   1877   1881   1902     1   110.1100470 384.091200
   1877   1875   1878     1   109.5600471 388.275200
   1879   1877   1881     1   108.0100461 406.684800
   1879   1877   1880     1   109.7500473 328.025600
   1880   1877   1881     1   108.0100461 406.684800
   1881   1882   1892     1   108.0100461 406.684800
   1881   1882   1893     1   108.0100461 406.684800
   1881   1883   1884     1   108.0100461 406.684800
   1881   1883   1886     1   108.0100461 406.684800
   1882   1894   1895     1   109.8000471 387.438400
   1882   1894   1896     1   109.8000471 387.438400
   1882   1881   1902     1   110.1100470 384.091200
   1883   1885   1887     1   109.8000471 387.438400
   1883   1885   1888     1   109.8000471 387.438400
   1883   1881   1902     1   110.1100470 384.091200
   1884   1883   1885     1   110.5600475 386.601600
   1884   1883   1886     1   109.7500473 328.025600
   1885   1883   1886     1   110.5600475 386.601600
   1887   1885   1889     1   108.7700466 392.459200
   1887   1885   1888     1   107.5800459 329.699200
   1888   1885   1889     1   108.7700466 392.459200
   1889   1890   1900     1   106.5500460 417.563200
   1892   1882   1894     1   110.5600475 386.601600
   1892   1882   1893     1   109.7500473 328.025600
   1893   1882   1894     1   110.5600475 386.601600
   1895   1894   1897     1   108.7700466 392.459200
   1895   1894   1896     1   107.5800459 329.699200
   1896   1894   1897     1   108.7700466 392.459200
   1897   1899   1901     1   106.5500460 417.563200
   1903   1905   1906     1   108.8800464 416.726400
   1903   1905   1908     1   108.8800464 416.726400
   1904   1903   1905     1   117.6800502 383.254400
   1905   1907   1909     1   110.5600475 386.601600
   1905   1907   1910     1   110.5600475 386.601600
   1906   1905   1907     1   109.5600471 388.275200
   1906   1905   1908     1   108.4600466 328.025600
   1907   1905   1908     1   109.5600471 388.275200
   1907   1911   1932     1   110.1100470 384.091200
   1909   1907   1911     1   108.0100461 406.684800
   1909   1907   1910     1   109.7500473 328.025600
   1910   1907   1911     1   108.0100461 406.684800
   1911   1912   1922     1   108.0100461 406.684800
   1911   1912   1923     1   108.0100461 406.684800
   1911   1913   1914     1   108.0100461 406.684800
   1911   1913   1916     1   108.0100461 406.684800
   1912   1911   1932     1   110.1100470 384.091200
   1912   1924   1925     1   109.8000471 387.438400
   1912   1924   1926     1   109.8000471 387.438400
   1913   1911   1932     1   110.1100470 384.091200
   1913   1915   1917     1   109.8000471 387.438400
   1913   1915   1918     1   109.8000471 387.438400
   1914   1913   1915     1   110.5600475 386.601600
   1914   1913   1916     1   109.7500473 328.025600
   1915   1913   1916     1   110.5600475 386.601600
   1917   1915   1919     1   108.7700466 392.459200
   1917   1915   1918     1   107.5800459 329.699200
   1918   1915   1919     1   108.7700466 392.459200
   1919   1920   1930     1   106.5500460 417.563200
   1922   1912   1924     1   110.5600475 386.601600
   1922   1912   1923     1   109.7500473 328.025600
   1923   1912   1924     1   110.5600475 386.601600
   1925   1924   1927     1   108.7700466 392.459200
   1925   1924   1926     1   107.5800459 329.699200
   1926   1924   1927     1   108.7700466 392.459200
   1927   1929   1931     1   106.5500460 417.563200
   1933   1935   1936     1   108.8800464 416.726400
   1933   1935   1938     1   108.8800464 416.726400
   1934   1933   1935     1   117.6800502 383.254400
   1935   1937   1939     1   110.5600475 386.601600
   1935   1937   1940     1   110.5600475 386.601600
   1936   1935   1937     1   109.5600471 388.275200
   1936   1935   1938     1   108.4600466 328.025600
   1937   1941   1962     1   110.1100470 384.091200
   1937   1935   1938     1   109.5600471 388.275200
   1939   1937   1941     1   108.0100461 406.684800
   1939   1937   1940     1   109.7500473 328.025600
   1940   1937   1941     1   108.0100461 406.684800
   1941   1942   1952     1   108.0100461 406.684800
   1941   1942   1953     1   108.0100461 406.684800
   1941   1943   1944     1   108.0100461 406.684800
   1941   1943   1946     1   108.0100461 406.684800
   1942   1954   1955     1   109.8000471 387.438400
   1942   1954   1956     1   109.8000471 387.438400
   1942   1941   1962     1   110.1100470 384.091200
   1943   1945   1947     1   109.8000471 387.438400
   1943   1945   1948     1   109.8000471 387.438400
   1943   1941   1962     1   110.1100470 384.091200
   1944   1943   1945     1   110.5600475 386.601600
   1944   1943   1946     1   109.7500473 328.025600
   1945   1943   1946     1   110.5600475 386.601600
   1947   1945   1949     1   108.7700466 392.459200
   1947   1945   1948     1   107.5800459 329.699200
   1948   1945   1949     1   108.7700466 392.459200
   1949   1950   1960     1   106.5500460 417.563200
   1952   1942   1954     1   110.5600475 386.601600
   1952   1942   1953     1   109.7500473 328.025600
   1953   1942   1954     1   110.5600475 386.601600
   1955   1954   1957     1   108.7700466 392.459200
   1955   1954   1956     1   107.5800459 329.699200
   1956   1954   1957     1   108.7700466 392.459200
   1957   1959   1961     1   106.5500460 417.563200
   1963   1965   1966     1   108.8800464 416.726400
   1963   1965   1968     1   108.8800464 416.726400
   1964   1963   1965     1   117.6800502 383.254400
   1965   1967   1969     1   110.5600475 386.601600
   1965   1967   1970     1   110.5600475 386.601600
   1966   1965   1967     1   109.5600471 388.275200
   1966   1965   1968     1   108.4600466 328.025600
   1967   1965   1968     1   109.5600471 388.275200
   1967   1971   1992     1   110.1100470 384.091200
   1969   1967   1971     1   108.0100461 406.684800
   1969   1967   1970     1   109.7500473 328.025600
   1970   1967   1971     1   108.0100461 406.684800
   1971   1972   1982     1   108.0100461 406.684800
   1971   1972   1983     1   108.0100461 406.684800
   1971   1973   1974     1   108.0100461 406.684800
   1971   1973   1976     1   108.0100461 406.684800
   1972   1971   1992     1   110.1100470 384.091200
   1972   1984   1985     1   109.8000471 387.438400
   1972   1984   1986     1   109.8000471 387.438400
   1973   1971   1992     1   110.1100470 384.091200
   1973   1975   1977     1   109.8000471 387.438400
   1973   1975   1978     1   109.8000471 387.438400
   1974   1973   1975     1   110.5600475 386.601600
   1974   1973   1976     1   109.7500473 328.025600
   1975   1973   1976     1   110.5600475 386.601600
   1977   1975   1979     1   108.7700466 392.459200
   1977   1975   1978     1   107.5800459 329.699200
   1978   1975   1979     1   108.7700466 392.459200
   1979   1980   1990     1   106.5500460 417.563200
   1982   1972   1984     1   110.5600475 386.601600
   1982   1972   1983     1   109.7500473 328.025600
   1983   1972   1984     1   110.5600475 386.601600
   1985   1984   1987     1   108.7700466 392.459200
   1985   1984   1986     1   107.5800459 329.699200
   1986   1984   1987     1   108.7700466 392.459200
   1987   1989   1991     1   106.5500460 417.563200
   1993   1995   1996     1   108.8800464 416.726400
   1993   1995   1998     1   108.8800464 416.726400
   1994   1993   1995     1   117.6800502 383.254400
   1995   1997   1999     1   110.5600475 386.601600
   1995   1997   2000     1   110.5600475 386.601600
   1996   1995   1997     1   109.5600471 388.275200
   1996   1995   1998     1   108.4600466 328.025600
   1997   2001   2022     1   110.1100470 384.091200
   1997   1995   1998     1   109.5600471 388.275200
   1999   1997   2001     1   108.0100461 406.684800
   1999   1997   2000     1   109.7500473 328.025600
   2000   1997   2001     1   108.0100461 406.684800
   2001   2002   2012     1   108.0100461 406.684800
   2001   2002   2013     1   108.0100461 406.684800
   2001   2003   2004     1   108.0100461 406.684800
   2001   2003   2006     1   108.0100461 406.684800
   2002   2014   2015     1   109.8000471 387.438400
   2002   2014   2016     1   109.8000471 387.438400
   2002   2001   2022     1   110.1100470 384.091200
   2003   2005   2007     1   109.8000471 387.438400
   2003   2005   2008     1   109.8000471 387.438400
   2003   2001   2022     1   110.1100470 384.091200
   2004   2003   2005     1   110.5600475 386.601600
   2004   2003   2006     1   109.7500473 328.025600
   2005   2003   2006     1   110.5600475 386.601600
   2007   2005   2009     1   108.7700466 392.459200
   2007   2005   2008     1   107.5800459 329.699200
   2008   2005   2009     1   108.7700466 392.459200
   2009   2010   2020     1   106.5500460 417.563200
   2012   2002   2014     1   110.5600475 386.601600
   2012   2002   2013     1   109.7500473 328.025600
   2013   2002   2014     1   110.5600475 386.601600
   2015   2014   2017     1   108.7700466 392.459200
   2015   2014   2016     1   107.5800459 329.699200
   2016   2014   2017     1   108.7700466 392.459200
   2017   2019   2021     1   106.5500460 417.563200
   2023   2025   2026     1   108.8800464 416.726400
   2023   2025   2028     1   108.8800464 416.726400
   2024   2023   2025     1   117.6800502 383.254400
   2025   2027   2029     1   110.5600475 386.601600
   2025   2027   2030     1   110.5600475 386.601600
   2026   2025   2027     1   109.5600471 388.275200
   2026   2025   2028     1   108.4600466 328.025600
   2027   2025   2028     1   109.5600471 388.275200
   2027   2031   2052     1   110.1100470 384.091200
   2029   2027   2031     1   108.0100461 406.684800
   2029   2027   2030     1   109.7500473 328.025600
   2030   2027   2031     1   108.0100461 406.684800
   2031   2032   2042     1   108.0100461 406.684800
   2031   2032   2043     1   108.0100461 406.684800
   2031   2033   2034     1   108.0100461 406.684800
   2031   2033   2036     1   108.0100461 406.684800
   2032   2031   2052     1   110.1100470 384.091200
   2032   2044   2045     1   109.8000471 387.438400
   2032   2044   2046     1   109.8000471 387.438400
   2033   2031   2052     1   110.1100470 384.091200
   2033   2035   2037     1   109.8000471 387.438400
   2033   2035   2038     1   109.8000471 387.438400
   2034   2033   2035     1   110.5600475 386.601600
   2034   2033   2036     1   109.7500473 328.025600
   2035   2033   2036     1   110.5600475 386.601600
   2037   2035   2039     1   108.7700466 392.459200
   2037   2035   2038     1   107.5800459 329.699200
   2038   2035   2039     1   108.7700466 392.459200
   2039   2040   2050     1   106.5500460 417.563200
   2042   2032   2044     1   110.5600475 386.601600
   2042   2032   2043     1   109.7500473 328.025600
   2043   2032   2044     1   110.5600475 386.601600
   2045   2044   2047     1   108.7700466 392.459200
   2045   2044   2046     1   107.5800459 329.699200
   2046   2044   2047     1   108.7700466 392.459200
   2047   2049   2051     1   106.5500460 417.563200
   2053   2055   2056     1   108.8800464 416.726400
   2053   2055   2058     1   108.8800464 416.726400
   2054   2053   2055     1   117.6800502 383.254400
   2055   2057   2059     1   110.5600475 386.601600
   2055   2057   2060     1   110.5600475 386.601600
   2056   2055   2057     1   109.5600471 388.275200
   2056   2055   2058     1   108.4600466 328.025600
   2057   2061   2082     1   110.1100470 384.091200
   2057   2055   2058     1   109.5600471 388.275200
   2059   2057   2061     1   108.0100461 406.684800
   2059   2057   2060     1   109.7500473 328.025600
   2060   2057   2061     1   108.0100461 406.684800
   2061   2062   2072     1   108.0100461 406.684800
   2061   2062   2073     1   108.0100461 406.684800
   2061   2063   2064     1   108.0100461 406.684800
   2061   2063   2066     1   108.0100461 406.684800
   2062   2074   2075     1   109.8000471 387.438400
   2062   2074   2076     1   109.8000471 387.438400
   2062   2061   2082     1   110.1100470 384.091200
   2063   2065   2067     1   109.8000471 387.438400
   2063   2065   2068     1   109.8000471 387.438400
   2063   2061   2082     1   110.1100470 384.091200
   2064   2063   2065     1   110.5600475 386.601600
   2064   2063   2066     1   109.7500473 328.025600
   2065   2063   2066     1   110.5600475 386.601600
   2067   2065   2069     1   108.7700466 392.459200
   2067   2065   2068     1   107.5800459 329.699200
   2068   2065   2069     1   108.7700466 392.459200
   2069   2070   2080     1   106.5500460 417.563200
   2072   2062   2074     1   110.5600475 386.601600
   2072   2062   2073     1   109.7500473 328.025600
   2073   2062   2074     1   110.5600475 386.601600
   2075   2074   2077     1   108.7700466 392.459200
   2075   2074   2076     1   107.5800459 329.699200
   2076   2074   2077     1   108.7700466 392.459200
   2077   2079   2081     1   106.5500460 417.563200
   2083   2085   2086     1   108.8800464 416.726400
   2083   2085   2088     1   108.8800464 416.726400
   2084   2083   2085     1   117.6800502 383.254400
   2085   2087   2089     1   110.5600475 386.601600
   2085   2087   2090     1   110.5600475 386.601600
   2086   2085   2087     1   109.5600471 388.275200
   2086   2085   2088     1   108.4600466 328.025600
   2087   2085   2088     1   109.5600471 388.275200
   2087   2091   2112     1   110.1100470 384.091200
   2089   2087   2091     1   108.0100461 406.684800
   2089   2087   2090     1   109.7500473 328.025600
   2090   2087   2091     1   108.0100461 406.684800
   2091   2092   2102     1   108.0100461 406.684800
   2091   2092   2103     1   108.0100461 406.684800
   2091   2093   2094     1   108.0100461 406.684800
   2091   2093   2096     1   108.0100461 406.684800
   2092   2091   2112     1   110.1100470 384.091200
   2092   2104   2105     1   109.8000471 387.438400
   2092   2104   2106     1   109.8000471 387.438400
   2093   2091   2112     1   110.1100470 384.091200
   2093   2095   2097     1   109.8000471 387.438400
   2093   2095   2098     1   109.8000471 387.438400
   2094   2093   2095     1   110.5600475 386.601600
   2094   2093   2096     1   109.7500473 328.025600
   2095   2093   2096     1   110.5600475 386.601600
   2097   2095   2099     1   108.7700466 392.459200
   2097   2095   2098     1   107.5800459 329.699200
   2098   2095   2099     1   108.7700466 392.459200
   2099   2100   2110     1   106.5500460 417.563200
   2102   2092   2104     1   110.5600475 386.601600
   2102   2092   2103     1   109.7500473 328.025600
   2103   2092   2104     1   110.5600475 386.601600
   2105   2104   2107     1   108.7700466 392.459200
   2105   2104   2106     1   107.5800459 329.699200
   2106   2104   2107     1   108.7700466 392.459200
   2107   2109   2111     1   106.5500460 417.563200
   2113   2115   2116     1   108.8800464 416.726400
   2113   2115   2118     1   108.8800464 416.726400
   2114   2113   2115     1   117.6800502 383.254400
   2115   2117   2119     1   110.5600475 386.601600
   2115   2117   2120     1   110.5600475 386.601600
   2116   2115   2117     1   109.5600471 388.275200
   2116   2115   2118     1   108.4600466 328.025600
   2117   2121   2142     1   110.1100470 384.091200
   2117   2115   2118     1   109.5600471 388.275200
   2119   2117   2121     1   108.0100461 406.684800
   2119   2117   2120     1   109.7500473 328.025600
   2120   2117   2121     1   108.0100461 406.684800
   2121   2122   2132     1   108.0100461 406.684800
   2121   2122   2133     1   108.0100461 406.684800
   2121   2123   2124     1   108.0100461 406.684800
   2121   2123   2126     1   108.0100461 406.684800
   2122   2134   2135     1   109.8000471 387.438400
   2122   2134   2136     1   109.8000471 387.438400
   2122   2121   2142     1   110.1100470 384.091200
   2123   2125   2127     1   109.8000471 387.438400
   2123   2125   2128     1   109.8000471 387.438400
   2123   2121   2142     1   110.1100470 384.091200
   2124   2123   2125     1   110.5600475 386.601600
   2124   2123   2126     1   109.7500473 328.025600
   2125   2123   2126     1   110.5600475 386.601600
   2127   2125   2129     1   108.7700466 392.459200
   2127   2125   2128     1   107.5800459 329.699200
   2128   2125   2129     1   108.7700466 392.459200
   2129   2130   2140     1   106.5500460 417.563200
   2132   2122   2134     1   110.5600475 386.601600
   2132   2122   2133     1   109.7500473 328.025600
   2133   2122   2134     1   110.5600475 386.601600
   2135   2134   2137     1   108.7700466 392.459200
   2135   2134   2136     1   107.5800459 329.699200
   2136   2134   2137     1   108.7700466 392.459200
   2137   2139   2141     1   106.5500460 417.563200
   2143   2145   2146     1   108.8800464 416.726400
   2143   2145   2148     1   108.8800464 416.726400
   2144   2143   2145     1   117.6800502 383.254400
   2145   2147   2149     1   110.5600475 386.601600
   2145   2147   2150     1   110.5600475 386.601600
   2146   2145   2147     1   109.5600471 388.275200
   2146   2145   2148     1   108.4600466 328.025600
   2147   2145   2148     1   109.5600471 388.275200
   2147   2151   2172     1   110.1100470 384.091200
   2149   2147   2151     1   108.0100461 406.684800
   2149   2147   2150     1   109.7500473 328.025600
   2150   2147   2151     1   108.0100461 406.684800
   2151   2152   2162     1   108.0100461 406.684800
   2151   2152   2163     1   108.0100461 406.684800
   2151   2153   2154     1   108.0100461 406.684800
   2151   2153   2156     1   108.0100461 406.684800
   2152   2151   2172     1   110.1100470 384.091200
   2152   2164   2165     1   109.8000471 387.438400
   2152   2164   2166     1   109.8000471 387.438400
   2153   2151   2172     1   110.1100470 384.091200
   2153   2155   2157     1   109.8000471 387.438400
   2153   2155   2158     1   109.8000471 387.438400
   2154   2153   2155     1   110.5600475 386.601600
   2154   2153   2156     1   109.7500473 328.025600
   2155   2153   2156     1   110.5600475 386.601600
   2157   2155   2159     1   108.7700466 392.459200
   2157   2155   2158     1   107.5800459 329.699200
   2158   2155   2159     1   108.7700466 392.459200
   2159   2160   2170     1   106.5500460 417.563200
   2162   2152   2164     1   110.5600475 386.601600
   2162   2152   2163     1   109.7500473 328.025600
   2163   2152   2164     1   110.5600475 386.601600
   2165   2164   2167     1   108.7700466 392.459200
   2165   2164   2166     1   107.5800459 329.699200
   2166   2164   2167     1   108.7700466 392.459200
   2167   2169   2171     1   106.5500460 417.563200
   2173   2175   2176     1   108.8800464 416.726400
   2173   2175   2178     1   108.8800464 416.726400
   2174   2173   2175     1   117.6800502 383.254400
   2175   2177   2179     1   110.5600475 386.601600
   2175   2177   2180     1   110.5600475 386.601600
   2176   2175   2177     1   109.5600471 388.275200
   2176   2175   2178     1   108.4600466 328.025600
   2177   2181   2202     1   110.1100470 384.091200
   2177   2175   2178     1   109.5600471 388.275200
   2179   2177   2181     1   108.0100461 406.684800
   2179   2177   2180     1   109.7500473 328.025600
   2180   2177   2181     1   108.0100461 406.684800
   2181   2182   2192     1   108.0100461 406.684800
   2181   2182   2193     1   108.0100461 406.684800
   2181   2183   2184     1   108.0100461 406.684800
   2181   2183   2186     1   108.0100461 406.684800
   2182   2194   2195     1   109.8000471 387.438400
   2182   2194   2196     1   109.8000471 387.438400
   2182   2181   2202     1   110.1100470 384.091200
   2183   2185   2187     1   109.8000471 387.438400
   2183   2185   2188     1   109.8000471 387.438400
   2183   2181   2202     1   110.1100470 384.091200
   2184   2183   2185     1   110.5600475 386.601600
   2184   2183   2186     1   109.7500473 328.025600
   2185   2183   2186     1   110.5600475 386.601600
   2187   2185   2189     1   108.7700466 392.459200
   2187   2185   2188     1   107.5800459 329.699200
   2188   2185   2189     1   108.7700466 392.459200
   2189   2190   2200     1   106.5500460 417.563200
   2192   2182   2194     1   110.5600475 386.601600
   2192   2182   2193     1   109.7500473 328.025600
   2193   2182   2194     1   110.5600475 386.601600
   2195   2194   2197     1   108.7700466 392.459200
   2195   2194   2196     1   107.5800459 329.699200
   2196   2194   2197     1   108.7700466 392.459200
   2197   2199   2201     1   106.5500460 417.563200
   2203   2205   2206     1   108.8800464 416.726400
   2203   2205   2208     1   108.8800464 416.726400
   2204   2203   2205     1   117.6800502 383.254400
   2205   2207   2209     1   110.5600475 386.601600
   2205   2207   2210     1   110.5600475 386.601600
   2206   2205   2207     1   109.5600471 388.275200
   2206   2205   2208     1   108.4600466 328.025600
   2207   2205   2208     1   109.5600471 388.275200
   2207   2211   2232     1   110.1100470 384.091200
   2209   2207   2211     1   108.0100461 406.684800
   2209   2207   2210     1   109.7500473 328.025600
   2210   2207   2211     1   108.0100461 406.684800
   2211   2212   2222     1   108.0100461 406.684800
   2211   2212   2223     1   108.0100461 406.684800
   2211   2213   2214     1   108.0100461 406.684800
   2211   2213   2216     1   108.0100461 406.684800
   2212   2211   2232     1   110.1100470 384.091200
   2212   2224   2225     1   109.8000471 387.438400
   2212   2224   2226     1   109.8000471 387.438400
   2213   2211   2232     1   110.1100470 384.091200
   2213   2215   2217     1   109.8000471 387.438400
   2213   2215   2218     1   109.8000471 387.438400
   2214   2213   2215     1   110.5600475 386.601600
   2214   2213   2216     1   109.7500473 328.025600
   2215   2213   2216     1   110.5600475 386.601600
   2217   2215   2219     1   108.7700466 392.459200
   2217   2215   2218     1   107.5800459 329.699200
   2218   2215   2219     1   108.7700466 392.459200
   2219   2220   2230     1   106.5500460 417.563200
   2222   2212   2224     1   110.5600475 386.601600
   2222   2212   2223     1   109.7500473 328.025600
   2223   2212   2224     1   110.5600475 386.601600
   2225   2224   2227     1   108.7700466 392.459200
   2225   2224   2226     1   107.5800459 329.699200
   2226   2224   2227     1   108.7700466 392.459200
   2227   2229   2231     1   106.5500460 417.563200
   2233   2235   2236     1   108.8800464 416.726400
   2233   2235   2238     1   108.8800464 416.726400
   2234   2233   2235     1   117.6800502 383.254400
   2235   2237   2239     1   110.5600475 386.601600
   2235   2237   2240     1   110.5600475 386.601600
   2236   2235   2237     1   109.5600471 388.275200
   2236   2235   2238     1   108.4600466 328.025600
   2237   2241   2262     1   110.1100470 384.091200
   2237   2235   2238     1   109.5600471 388.275200
   2239   2237   2241     1   108.0100461 406.684800
   2239   2237   2240     1   109.7500473 328.025600
   2240   2237   2241     1   108.0100461 406.684800
   2241   2242   2252     1   108.0100461 406.684800
   2241   2242   2253     1   108.0100461 406.684800
   2241   2243   2244     1   108.0100461 406.684800
   2241   2243   2246     1   108.0100461 406.684800
   2242   2254   2255     1   109.8000471 387.438400
   2242   2254   2256     1   109.8000471 387.438400
   2242   2241   2262     1   110.1100470 384.091200
   2243   2245   2247     1   109.8000471 387.438400
   2243   2245   2248     1   109.8000471 387.438400
   2243   2241   2262     1   110.1100470 384.091200
   2244   2243   2245     1   110.5600475 386.601600
   2244   2243   2246     1   109.7500473 328.025600
   2245   2243   2246     1   110.5600475 386.601600
   2247   2245   2249     1   108.7700466 392.459200
   2247   2245   2248     1   107.5800459 329.699200
   2248   2245   2249     1   108.7700466 392.459200
   2249   2250   2260     1   106.5500460 417.563200
   2252   2242   2254     1   110.5600475 386.601600
   2252   2242   2253     1   109.7500473 328.025600
   2253   2242   2254     1   110.5600475 386.601600
   2255   2254   2257     1   108.7700466 392.459200
   2255   2254   2256     1   107.5800459 329.699200
   2256   2254   2257     1   108.7700466 392.459200
   2257   2259   2261     1   106.5500460 417.563200
   2263   2265   2266     1   108.8800464 416.726400
   2263   2265   2268     1   108.8800464 416.726400
   2264   2263   2265     1   117.6800502 383.254400
   2265   2267   2269     1   110.5600475 386.601600
   2265   2267   2270     1   110.5600475 386.601600
   2266   2265   2267     1   109.5600471 388.275200
   2266   2265   2268     1   108.4600466 328.025600
   2267   2265   2268     1   109.5600471 388.275200
   2267   2271   2292     1   110.1100470 384.091200
   2269   2267   2271     1   108.0100461 406.684800
   2269   2267   2270     1   109.7500473 328.025600
   2270   2267   2271     1   108.0100461 406.684800
   2271   2272   2282     1   108.0100461 406.684800
   2271   2272   2283     1   108.0100461 406.684800
   2271   2273   2274     1   108.0100461 406.684800
   2271   2273   2276     1   108.0100461 406.684800
   2272   2271   2292     1   110.1100470 384.091200
   2272   2284   2285     1   109.8000471 387.438400
   2272   2284   2286     1   109.8000471 387.438400
   2273   2271   2292     1   110.1100470 384.091200
   2273   2275   2277     1   109.8000471 387.438400
   2273   2275   2278     1   109.8000471 387.438400
   2274   2273   2275     1   110.5600475 386.601600
   2274   2273   2276     1   109.7500473 328.025600
   2275   2273   2276     1   110.5600475 386.601600
   2277   2275   2279     1   108.7700466 392.459200
   2277   2275   2278     1   107.5800459 329.699200
   2278   2275   2279     1   108.7700466 392.459200
   2279   2280   2290     1   106.5500460 417.563200
   2282   2272   2284     1   110.5600475 386.601600
   2282   2272   2283     1   109.7500473 328.025600
   2283   2272   2284     1   110.5600475 386.601600
   2285   2284   2287     1   108.7700466 392.459200
   2285   2284   2286     1   107.5800459 329.699200
   2286   2284   2287     1   108.7700466 392.459200
   2287   2289   2291     1   106.5500460 417.563200
   2293   2295   2296     1   108.8800464 416.726400
   2293   2295   2298     1   108.8800464 416.726400
   2294   2293   2295     1   117.6800502 383.254400
   2295   2297   2299     1   110.5600475 386.601600
   2295   2297   2300     1   110.5600475 386.601600
   2296   2295   2297     1   109.5600471 388.275200
   2296   2295   2298     1   108.4600466 328.025600
   2297   2301   2322     1   110.1100470 384.091200
   2297   2295   2298     1   109.5600471 388.275200
   2299   2297   2301     1   108.0100461 406.684800
   2299   2297   2300     1   109.7500473 328.025600
   2300   2297   2301     1   108.0100461 406.684800
   2301   2302   2312     1   108.0100461 406.684800
   2301   2302   2313     1   108.0100461 406.684800
   2301   2303   2304     1   108.0100461 406.684800
   2301   2303   2306     1   108.0100461 406.684800
   2302   2314   2315     1   109.8000471 387.438400
   2302   2314   2316     1   109.8000471 387.438400
   2302   2301   2322     1   110.1100470 384.091200
   2303   2305   2307     1   109.8000471 387.438400
   2303   2305   2308     1   109.8000471 387.438400
   2303   2301   2322     1   110.1100470 384.091200
   2304   2303   2305     1   110.5600475 386.601600
   2304   2303   2306     1   109.7500473 328.025600
   2305   2303   2306     1   110.5600475 386.601600
   2307   2305   2309     1   108.7700466 392.459200
   2307   2305   2308     1   107.5800459 329.699200
   2308   2305   2309     1   108.7700466 392.459200
   2309   2310   2320     1   106.5500460 417.563200
   2312   2302   2314     1   110.5600475 386.601600
   2312   2302   2313     1   109.7500473 328.025600
   2313   2302   2314     1   110.5600475 386.601600
   2315   2314   2317     1   108.7700466 392.459200
   2315   2314   2316     1   107.5800459 329.699200
   2316   2314   2317     1   108.7700466 392.459200
   2317   2319   2321     1   106.5500460 417.563200
   2323   2325   2326     1   108.8800464 416.726400
   2323   2325   2328     1   108.8800464 416.726400
   2324   2323   2325     1   117.6800502 383.254400
   2325   2327   2329     1   110.5600475 386.601600
   2325   2327   2330     1   110.5600475 386.601600
   2326   2325   2327     1   109.5600471 388.275200
   2326   2325   2328     1   108.4600466 328.025600
   2327   2325   2328     1   109.5600471 388.275200
   2327   2331   2352     1   110.1100470 384.091200
   2329   2327   2331     1   108.0100461 406.684800
   2329   2327   2330     1   109.7500473 328.025600
   2330   2327   2331     1   108.0100461 406.684800
   2331   2332   2342     1   108.0100461 406.684800
   2331   2332   2343     1   108.0100461 406.684800
   2331   2333   2334     1   108.0100461 406.684800
   2331   2333   2336     1   108.0100461 406.684800
   2332   2331   2352     1   110.1100470 384.091200
   2332   2344   2345     1   109.8000471 387.438400
   2332   2344   2346     1   109.8000471 387.438400
   2333   2331   2352     1   110.1100470 384.091200
   2333   2335   2337     1   109.8000471 387.438400
   2333   2335   2338     1   109.8000471 387.438400
   2334   2333   2335     1   110.5600475 386.601600
   2334   2333   2336     1   109.7500473 328.025600
   2335   2333   2336     1   110.5600475 386.601600
   2337   2335   2339     1   108.7700466 392.459200
   2337   2335   2338     1   107.5800459 329.699200
   2338   2335   2339     1   108.7700466 392.459200
   2339   2340   2350     1   106.5500460 417.563200
   2342   2332   2344     1   110.5600475 386.601600
   2342   2332   2343     1   109.7500473 328.025600
   2343   2332   2344     1   110.5600475 386.601600
   2345   2344   2347     1   108.7700466 392.459200
   2345   2344   2346     1   107.5800459 329.699200
   2346   2344   2347     1   108.7700466 392.459200
   2347   2349   2351     1   106.5500460 417.563200
   2353   2355   2356     1   108.8800464 416.726400
   2353   2355   2358     1   108.8800464 416.726400
   2354   2353   2355     1   117.6800502 383.254400
   2355   2357   2359     1   110.5600475 386.601600
   2355   2357   2360     1   110.5600475 386.601600
   2356   2355   2357     1   109.5600471 388.275200
   2356   2355   2358     1   108.4600466 328.025600
   2357   2361   2382     1   110.1100470 384.091200
   2357   2355   2358     1   109.5600471 388.275200
   2359   2357   2361     1   108.0100461 406.684800
   2359   2357   2360     1   109.7500473 328.025600
   2360   2357   2361     1   108.0100461 406.684800
   2361   2362   2372     1   108.0100461 406.684800
   2361   2362   2373     1   108.0100461 406.684800
   2361   2363   2364     1   108.0100461 406.684800
   2361   2363   2366     1   108.0100461 406.684800
   2362   2374   2375     1   109.8000471 387.438400
   2362   2374   2376     1   109.8000471 387.438400
   2362   2361   2382     1   110.1100470 384.091200
   2363   2365   2367     1   109.8000471 387.438400
   2363   2365   2368     1   109.8000471 387.438400
   2363   2361   2382     1   110.1100470 384.091200
   2364   2363   2365     1   110.5600475 386.601600
   2364   2363   2366     1   109.7500473 328.025600
   2365   2363   2366     1   110.5600475 386.601600
   2367   2365   2369     1   108.7700466 392.459200
   2367   2365   2368     1   107.5800459 329.699200
   2368   2365   2369     1   108.7700466 392.459200
   2369   2370   2380     1   106.5500460 417.563200
   2372   2362   2374     1   110.5600475 386.601600
   2372   2362   2373     1   109.7500473 328.025600
   2373   2362   2374     1   110.5600475 386.601600
   2375   2374   2377     1   108.7700466 392.459200
   2375   2374   2376     1   107.5800459 329.699200
   2376   2374   2377     1   108.7700466 392.459200
   2377   2379   2381     1   106.5500460 417.563200
   2383   2385   2386     1   108.8800464 416.726400
   2383   2385   2388     1   108.8800464 416.726400
   2384   2383   2385     1   117.6800502 383.254400
   2385   2387   2389     1   110.5600475 386.601600
   2385   2387   2390     1   110.5600475 386.601600
   2386   2385   2387     1   109.5600471 388.275200
   2386   2385   2388     1   108.4600466 328.025600
   2387   2385   2388     1   109.5600471 388.275200
   2387   2391   2412     1   110.1100470 384.091200
   2389   2387   2391     1   108.0100461 406.684800
   2389   2387   2390     1   109.7500473 328.025600
   2390   2387   2391     1   108.0100461 406.684800
   2391   2392   2402     1   108.0100461 406.684800
   2391   2392   2403     1   108.0100461 406.684800
   2391   2393   2394     1   108.0100461 406.684800
   2391   2393   2396     1   108.0100461 406.684800
   2392   2391   2412     1   110.1100470 384.091200
   2392   2404   2405     1   109.8000471 387.438400
   2392   2404   2406     1   109.8000471 387.438400
   2393   2391   2412     1   110.1100470 384.091200
   2393   2395   2397     1   109.8000471 387.438400
   2393   2395   2398     1   109.8000471 387.438400
   2394   2393   2395     1   110.5600475 386.601600
   2394   2393   2396     1   109.7500473 328.025600
   2395   2393   2396     1   110.5600475 386.601600
   2397   2395   2399     1   108.7700466 392.459200
   2397   2395   2398     1   107.5800459 329.699200
   2398   2395   2399     1   108.7700466 392.459200
   2399   2400   2410     1   106.5500460 417.563200
   2402   2392   2404     1   110.5600475 386.601600
   2402   2392   2403     1   109.7500473 328.025600
   2403   2392   2404     1   110.5600475 386.601600
   2405   2404   2407     1   108.7700466 392.459200
   2405   2404   2406     1   107.5800459 329.699200
   2406   2404   2407     1   108.7700466 392.459200
   2407   2409   2411     1   106.5500460 417.563200
   2413   2415   2416     1   108.8800464 416.726400
   2413   2415   2418     1   108.8800464 416.726400
   2414   2413   2415     1   117.6800502 383.254400
   2415   2417   2419     1   110.5600475 386.601600
   2415   2417   2420     1   110.5600475 386.601600
   2416   2415   2417     1   109.5600471 388.275200
   2416   2415   2418     1   108.4600466 328.025600
   2417   2421   2442     1   110.1100470 384.091200
   2417   2415   2418     1   109.5600471 388.275200
   2419   2417   2421     1   108.0100461 406.684800
   2419   2417   2420     1   109.7500473 328.025600
   2420   2417   2421     1   108.0100461 406.684800
   2421   2422   2432     1   108.0100461 406.684800
   2421   2422   2433     1   108.0100461 406.684800
   2421   2423   2424     1   108.0100461 406.684800
   2421   2423   2426     1   108.0100461 406.684800
   2422   2434   2435     1   109.8000471 387.438400
   2422   2434   2436     1   109.8000471 387.438400
   2422   2421   2442     1   110.1100470 384.091200
   2423   2425   2427     1   109.8000471 387.438400
   2423   2425   2428     1   109.8000471 387.438400
   2423   2421   2442     1   110.1100470 384.091200
   2424   2423   2425     1   110.5600475 386.601600
   2424   2423   2426     1   109.7500473 328.025600
   2425   2423   2426     1   110.5600475 386.601600
   2427   2425   2429     1   108.7700466 392.459200
   2427   2425   2428     1   107.5800459 329.699200
   2428   2425   2429     1   108.7700466 392.459200
   2429   2430   2440     1   106.5500460 417.563200
   2432   2422   2434     1   110.5600475 386.601600
   2432   2422   2433     1   109.7500473 328.025600
   2433   2422   2434     1   110.5600475 386.601600
   2435   2434   2437     1   108.7700466 392.459200
   2435   2434   2436     1   107.5800459 329.699200
   2436   2434   2437     1   108.7700466 392.459200
   2437   2439   2441     1   106.5500460 417.563200
   2443   2445   2446     1   108.8800464 416.726400
   2443   2445   2448     1   108.8800464 416.726400
   2444   2443   2445     1   117.6800502 383.254400
   2445   2447   2449     1   110.5600475 386.601600
   2445   2447   2450     1   110.5600475 386.601600
   2446   2445   2447     1   109.5600471 388.275200
   2446   2445   2448     1   108.4600466 328.025600
   2447   2445   2448     1   109.5600471 388.275200
   2447   2451   2472     1   110.1100470 384.091200
   2449   2447   2451     1   108.0100461 406.684800
   2449   2447   2450     1   109.7500473 328.025600
   2450   2447   2451     1   108.0100461 406.684800
   2451   2452   2462     1   108.0100461 406.684800
   2451   2452   2463     1   108.0100461 406.684800
   2451   2453   2454     1   108.0100461 406.684800
   2451   2453   2456     1   108.0100461 406.684800
   2452   2451   2472     1   110.1100470 384.091200
   2452   2464   2465     1   109.8000471 387.438400
   2452   2464   2466     1   109.8000471 387.438400
   2453   2451   2472     1   110.1100470 384.091200
   2453   2455   2457     1   109.8000471 387.438400
   2453   2455   2458     1   109.8000471 387.438400
   2454   2453   2455     1   110.5600475 386.601600
   2454   2453   2456     1   109.7500473 328.025600
   2455   2453   2456     1   110.5600475 386.601600
   2457   2455   2459     1   108.7700466 392.459200
   2457   2455   2458     1   107.5800459 329.699200
   2458   2455   2459     1   108.7700466 392.459200
   2459   2460   2470     1   106.5500460 417.563200
   2462   2452   2464     1   110.5600475 386.601600
   2462   2452   2463     1   109.7500473 328.025600
   2463   2452   2464     1   110.5600475 386.601600
   2465   2464   2467     1   108.7700466 392.459200
   2465   2464   2466     1   107.5800459 329.699200
   2466   2464   2467     1   108.7700466 392.459200
   2467   2469   2471     1   106.5500460 417.563200
   2473   2475   2476     1   108.8800464 416.726400
   2473   2475   2478     1   108.8800464 416.726400
   2474   2473   2475     1   117.6800502 383.254400
   2475   2477   2479     1   110.5600475 386.601600
   2475   2477   2480     1   110.5600475 386.601600
   2476   2475   2477     1   109.5600471 388.275200
   2476   2475   2478     1   108.4600466 328.025600
   2477   2481   2502     1   110.1100470 384.091200
   2477   2475   2478     1   109.5600471 388.275200
   2479   2477   2481     1   108.0100461 406.684800
   2479   2477   2480     1   109.7500473 328.025600
   2480   2477   2481     1   108.0100461 406.684800
   2481   2482   2492     1   108.0100461 406.684800
   2481   2482   2493     1   108.0100461 406.684800
   2481   2483   2484     1   108.0100461 406.684800
   2481   2483   2486     1   108.0100461 406.684800
   2482   2494   2495     1   109.8000471 387.438400
   2482   2494   2496     1   109.8000471 387.438400
   2482   2481   2502     1   110.1100470 384.091200
   2483   2485   2487     1   109.8000471 387.438400
   2483   2485   2488     1   109.8000471 387.438400
   2483   2481   2502     1   110.1100470 384.091200
   2484   2483   2485     1   110.5600475 386.601600
   2484   2483   2486     1   109.7500473 328.025600
   2485   2483   2486     1   110.5600475 386.601600
   2487   2485   2489     1   108.7700466 392.459200
   2487   2485   2488     1   107.5800459 329.699200
   2488   2485   2489     1   108.7700466 392.459200
   2489   2490   2500     1   106.5500460 417.563200
   2492   2482   2494     1   110.5600475 386.601600
   2492   2482   2493     1   109.7500473 328.025600
   2493   2482   2494     1   110.5600475 386.601600
   2495   2494   2497     1   108.7700466 392.459200
   2495   2494   2496     1   107.5800459 329.699200
   2496   2494   2497     1   108.7700466 392.459200
   2497   2499   2501     1   106.5500460 417.563200
   2503   2505   2506     1   108.8800464 416.726400
   2503   2505   2508     1   108.8800464 416.726400
   2504   2503   2505     1   117.6800502 383.254400
   2505   2507   2509     1   110.5600475 386.601600
   2505   2507   2510     1   110.5600475 386.601600
   2506   2505   2507     1   109.5600471 388.275200
   2506   2505   2508     1   108.4600466 328.025600
   2507   2505   2508     1   109.5600471 388.275200
   2507   2511   2532     1   110.1100470 384.091200
   2509   2507   2511     1   108.0100461 406.684800
   2509   2507   2510     1   109.7500473 328.025600
   2510   2507   2511     1   108.0100461 406.684800
   2511   2512   2522     1   108.0100461 406.684800
   2511   2512   2523     1   108.0100461 406.684800
   2511   2513   2514     1   108.0100461 406.684800
   2511   2513   2516     1   108.0100461 406.684800
   2512   2511   2532     1   110.1100470 384.091200
   2512   2524   2525     1   109.8000471 387.438400
   2512   2524   2526     1   109.8000471 387.438400
   2513   2511   2532     1   110.1100470 384.091200
   2513   2515   2517     1   109.8000471 387.438400
   2513   2515   2518     1   109.8000471 387.438400
   2514   2513   2515     1   110.5600475 386.601600
   2514   2513   2516     1   109.7500473 328.025600
   2515   2513   2516     1   110.5600475 386.601600
   2517   2515   2519     1   108.7700466 392.459200
   2517   2515   2518     1   107.5800459 329.699200
   2518   2515   2519     1   108.7700466 392.459200
   2519   2520   2530     1   106.5500460 417.563200
   2522   2512   2524     1   110.5600475 386.601600
   2522   2512   2523     1   109.7500473 328.025600
   2523   2512   2524     1   110.5600475 386.601600
   2525   2524   2527     1   108.7700466 392.459200
   2525   2524   2526     1   107.5800459 329.699200
   2526   2524   2527     1   108.7700466 392.459200
   2527   2529   2531     1   106.5500460 417.563200
   2533   2535   2536     1   108.8800464 416.726400
   2533   2535   2538     1   108.8800464 416.726400
   2534   2533   2535     1   117.6800502 383.254400
   2535   2537   2539     1   110.5600475 386.601600
   2535   2537   2540     1   110.5600475 386.601600
   2536   2535   2537     1   109.5600471 388.275200
   2536   2535   2538     1   108.4600466 328.025600
   2537   2541   2562     1   110.1100470 384.091200
   2537   2535   2538     1   109.5600471 388.275200
   2539   2537   2541     1   108.0100461 406.684800
   2539   2537   2540     1   109.7500473 328.025600
   2540   2537   2541     1   108.0100461 406.684800
   2541   2542   2552     1   108.0100461 406.684800
   2541   2542   2553     1   108.0100461 406.684800
   2541   2543   2544     1   108.0100461 406.684800
   2541   2543   2546     1   108.0100461 406.684800
   2542   2554   2555     1   109.8000471 387.438400
   2542   2554   2556     1   109.8000471 387.438400
   2542   2541   2562     1   110.1100470 384.091200
   2543   2545   2547     1   109.8000471 387.438400
   2543   2545   2548     1   109.8000471 387.438400
   2543   2541   2562     1   110.1100470 384.091200
   2544   2543   2545     1   110.5600475 386.601600
   2544   2543   2546     1   109.7500473 328.025600
   2545   2543   2546     1   110.5600475 386.601600
   2547   2545   2549     1   108.7700466 392.459200
   2547   2545   2548     1   107.5800459 329.699200
   2548   2545   2549     1   108.7700466 392.459200
   2549   2550   2560     1   106.5500460 417.563200
   2552   2542   2554     1   110.5600475 386.601600
   2552   2542   2553     1   109.7500473 328.025600
   2553   2542   2554     1   110.5600475 386.601600
   2555   2554   2557     1   108.7700466 392.459200
   2555   2554   2556     1   107.5800459 329.699200
   2556   2554   2557     1   108.7700466 392.459200
   2557   2559   2561     1   106.5500460 417.563200
   2563   2565   2566     1   108.8800464 416.726400
   2563   2565   2568     1   108.8800464 416.726400
   2564   2563   2565     1   117.6800502 383.254400
   2565   2567   2569     1   110.5600475 386.601600
   2565   2567   2570     1   110.5600475 386.601600
   2566   2565   2567     1   109.5600471 388.275200
   2566   2565   2568     1   108.4600466 328.025600
   2567   2565   2568     1   109.5600471 388.275200
   2567   2571   2592     1   110.1100470 384.091200
   2569   2567   2571     1   108.0100461 406.684800
   2569   2567   2570     1   109.7500473 328.025600
   2570   2567   2571     1   108.0100461 406.684800
   2571   2572   2582     1   108.0100461 406.684800
   2571   2572   2583     1   108.0100461 406.684800
   2571   2573   2574     1   108.0100461 406.684800
   2571   2573   2576     1   108.0100461 406.684800
   2572   2571   2592     1   110.1100470 384.091200
   2572   2584   2585     1   109.8000471 387.438400
   2572   2584   2586     1   109.8000471 387.438400
   2573   2571   2592     1   110.1100470 384.091200
   2573   2575   2577     1   109.8000471 387.438400
   2573   2575   2578     1   109.8000471 387.438400
   2574   2573   2575     1   110.5600475 386.601600
   2574   2573   2576     1   109.7500473 328.025600
   2575   2573   2576     1   110.5600475 386.601600
   2577   2575   2579     1   108.7700466 392.459200
   2577   2575   2578     1   107.5800459 329.699200
   2578   2575   2579     1   108.7700466 392.459200
   2579   2580   2590     1   106.5500460 417.563200
   2582   2572   2584     1   110.5600475 386.601600
   2582   2572   2583     1   109.7500473 328.025600
   2583   2572   2584     1   110.5600475 386.601600
   2585   2584   2587     1   108.7700466 392.459200
   2585   2584   2586     1   107.5800459 329.699200
   2586   2584   2587     1   108.7700466 392.459200
   2587   2589   2591     1   106.5500460 417.563200
   2593   2595   2596     1   108.8800464 416.726400
   2593   2595   2598     1   108.8800464 416.726400
   2594   2593   2595     1   117.6800502 383.254400
   2595   2597   2599     1   110.5600475 386.601600
   2595   2597   2600     1   110.5600475 386.601600
   2596   2595   2597     1   109.5600471 388.275200
   2596   2595   2598     1   108.4600466 328.025600
   2597   2601   2622     1   110.1100470 384.091200
   2597   2595   2598     1   109.5600471 388.275200
   2599   2597   2601     1   108.0100461 406.684800
   2599   2597   2600     1   109.7500473 328.025600
   2600   2597   2601     1   108.0100461 406.684800
   2601   2602   2612     1   108.0100461 406.684800
   2601   2602   2613     1   108.0100461 406.684800
   2601   2603   2604     1   108.0100461 406.684800
   2601   2603   2606     1   108.0100461 406.684800
   2602   2614   2615     1   109.8000471 387.438400
   2602   2614   2616     1   109.8000471 387.438400
   2602   2601   2622     1   110.1100470 384.091200
   2603   2605   2607     1   109.8000471 387.438400
   2603   2605   2608     1   109.8000471 387.438400
   2603   2601   2622     1   110.1100470 384.091200
   2604   2603   2605     1   110.5600475 386.601600
   2604   2603   2606     1   109.7500473 328.025600
   2605   2603   2606     1   110.5600475 386.601600
   2607   2605   2609     1   108.7700466 392.459200
   2607   2605   2608     1   107.5800459 329.699200
   2608   2605   2609     1   108.7700466 392.459200
   2609   2610   2620     1   106.5500460 417.563200
   2612   2602   2614     1   110.5600475 386.601600
   2612   2602   2613     1   109.7500473 328.025600
   2613   2602   2614     1   110.5600475 386.601600
   2615   2614   2617     1   108.7700466 392.459200
   2615   2614   2616     1   107.5800459 329.699200
   2616   2614   2617     1   108.7700466 392.459200
   2617   2619   2621     1   106.5500460 417.563200
   2623   2625   2626     1   108.8800464 416.726400
   2623   2625   2628     1   108.8800464 416.726400
   2624   2623   2625     1   117.6800502 383.254400
   2625   2627   2629     1   110.5600475 386.601600
   2625   2627   2630     1   110.5600475 386.601600
   2626   2625   2627     1   109.5600471 388.275200
   2626   2625   2628     1   108.4600466 328.025600
   2627   2625   2628     1   109.5600471 388.275200
   2627   2631   2652     1   110.1100470 384.091200
   2629   2627   2631     1   108.0100461 406.684800
   2629   2627   2630     1   109.7500473 328.025600
   2630   2627   2631     1   108.0100461 406.684800
   2631   2632   2642     1   108.0100461 406.684800
   2631   2632   2643     1   108.0100461 406.684800
   2631   2633   2634     1   108.0100461 406.684800
   2631   2633   2636     1   108.0100461 406.684800
   2632   2631   2652     1   110.1100470 384.091200
   2632   2644   2645     1   109.8000471 387.438400
   2632   2644   2646     1   109.8000471 387.438400
   2633   2631   2652     1   110.1100470 384.091200
   2633   2635   2637     1   109.8000471 387.438400
   2633   2635   2638     1   109.8000471 387.438400
   2634   2633   2635     1   110.5600475 386.601600
   2634   2633   2636     1   109.7500473 328.025600
   2635   2633   2636     1   110.5600475 386.601600
   2637   2635   2639     1   108.7700466 392.459200
   2637   2635   2638     1   107.5800459 329.699200
   2638   2635   2639     1   108.7700466 392.459200
   2639   2640   2650     1   106.5500460 417.563200
   2642   2632   2644     1   110.5600475 386.601600
   2642   2632   2643     1   109.7500473 328.025600
   2643   2632   2644     1   110.5600475 386.601600
   2645   2644   2647     1   108.7700466 392.459200
   2645   2644   2646     1   107.5800459 329.699200
   2646   2644   2647     1   108.7700466 392.459200
   2647   2649   2651     1   106.5500460 417.563200
   2653   2655   2656     1   108.8800464 416.726400
   2653   2655   2658     1   108.8800464 416.726400
   2654   2653   2655     1   117.6800502 383.254400
   2655   2657   2659     1   110.5600475 386.601600
   2655   2657   2660     1   110.5600475 386.601600
   2656   2655   2657     1   109.5600471 388.275200
   2656   2655   2658     1   108.4600466 328.025600
   2657   2661   2682     1   110.1100470 384.091200
   2657   2655   2658     1   109.5600471 388.275200
   2659   2657   2661     1   108.0100461 406.684800
   2659   2657   2660     1   109.7500473 328.025600
   2660   2657   2661     1   108.0100461 406.684800
   2661   2662   2672     1   108.0100461 406.684800
   2661   2662   2673     1   108.0100461 406.684800
   2661   2663   2664     1   108.0100461 406.684800
   2661   2663   2666     1   108.0100461 406.684800
   2662   2674   2675     1   109.8000471 387.438400
   2662   2674   2676     1   109.8000471 387.438400
   2662   2661   2682     1   110.1100470 384.091200
   2663   2665   2667     1   109.8000471 387.438400
   2663   2665   2668     1   109.8000471 387.438400
   2663   2661   2682     1   110.1100470 384.091200
   2664   2663   2665     1   110.5600475 386.601600
   2664   2663   2666     1   109.7500473 328.025600
   2665   2663   2666     1   110.5600475 386.601600
   2667   2665   2669     1   108.7700466 392.459200
   2667   2665   2668     1   107.5800459 329.699200
   2668   2665   2669     1   108.7700466 392.459200
   2669   2670   2680     1   106.5500460 417.563200
   2672   2662   2674     1   110.5600475 386.601600
   2672   2662   2673     1   109.7500473 328.025600
   2673   2662   2674     1   110.5600475 386.601600
   2675   2674   2677     1   108.7700466 392.459200
   2675   2674   2676     1   107.5800459 329.699200
   2676   2674   2677     1   108.7700466 392.459200
   2677   2679   2681     1   106.5500460 417.563200
   2683   2685   2686     1   108.8800464 416.726400
   2683   2685   2688     1   108.8800464 416.726400
   2684   2683   2685     1   117.6800502 383.254400
   2685   2687   2689     1   110.5600475 386.601600
   2685   2687   2690     1   110.5600475 386.601600
   2686   2685   2687     1   109.5600471 388.275200
   2686   2685   2688     1   108.4600466 328.025600
   2687   2685   2688     1   109.5600471 388.275200
   2687   2691   2712     1   110.1100470 384.091200
   2689   2687   2691     1   108.0100461 406.684800
   2689   2687   2690     1   109.7500473 328.025600
   2690   2687   2691     1   108.0100461 406.684800
   2691   2692   2702     1   108.0100461 406.684800
   2691   2692   2703     1   108.0100461 406.684800
   2691   2693   2694     1   108.0100461 406.684800
   2691   2693   2696     1   108.0100461 406.684800
   2692   2691   2712     1   110.1100470 384.091200
   2692   2704   2705     1   109.8000471 387.438400
   2692   2704   2706     1   109.8000471 387.438400
   2693   2691   2712     1   110.1100470 384.091200
   2693   2695   2697     1   109.8000471 387.438400
   2693   2695   2698     1   109.8000471 387.438400
   2694   2693   2695     1   110.5600475 386.601600
   2694   2693   2696     1   109.7500473 328.025600
   2695   2693   2696     1   110.5600475 386.601600
   2697   2695   2699     1   108.7700466 392.459200
   2697   2695   2698     1   107.5800459 329.699200
   2698   2695   2699     1   108.7700466 392.459200
   2699   2700   2710     1   106.5500460 417.563200
   2702   2692   2704     1   110.5600475 386.601600
   2702   2692   2703     1   109.7500473 328.025600
   2703   2692   2704     1   110.5600475 386.601600
   2705   2704   2707     1   108.7700466 392.459200
   2705   2704   2706     1   107.5800459 329.699200
   2706   2704   2707     1   108.7700466 392.459200
   2707   2709   2711     1   106.5500460 417.563200
   2713   2715   2716     1   108.8800464 416.726400
   2713   2715   2718     1   108.8800464 416.726400
   2714   2713   2715     1   117.6800502 383.254400
   2715   2717   2719     1   110.5600475 386.601600
   2715   2717   2720     1   110.5600475 386.601600
   2716   2715   2717     1   109.5600471 388.275200
   2716   2715   2718     1   108.4600466 328.025600
   2717   2721   2742     1   110.1100470 384.091200
   2717   2715   2718     1   109.5600471 388.275200
   2719   2717   2721     1   108.0100461 406.684800
   2719   2717   2720     1   109.7500473 328.025600
   2720   2717   2721     1   108.0100461 406.684800
   2721   2722   2732     1   108.0100461 406.684800
   2721   2722   2733     1   108.0100461 406.684800
   2721   2723   2724     1   108.0100461 406.684800
   2721   2723   2726     1   108.0100461 406.684800
   2722   2734   2735     1   109.8000471 387.438400
   2722   2734   2736     1   109.8000471 387.438400
   2722   2721   2742     1   110.1100470 384.091200
   2723   2725   2727     1   109.8000471 387.438400
   2723   2725   2728     1   109.8000471 387.438400
   2723   2721   2742     1   110.1100470 384.091200
   2724   2723   2725     1   110.5600475 386.601600
   2724   2723   2726     1   109.7500473 328.025600
   2725   2723   2726     1   110.5600475 386.601600
   2727   2725   2729     1   108.7700466 392.459200
   2727   2725   2728     1   107.5800459 329.699200
   2728   2725   2729     1   108.7700466 392.459200
   2729   2730   2740     1   106.5500460 417.563200
   2732   2722   2734     1   110.5600475 386.601600
   2732   2722   2733     1   109.7500473 328.025600
   2733   2722   2734     1   110.5600475 386.601600
   2735   2734   2737     1   108.7700466 392.459200
   2735   2734   2736     1   107.5800459 329.699200
   2736   2734   2737     1   108.7700466 392.459200
   2737   2739   2741     1   106.5500460 417.563200
   2743   2745   2746     1   108.8800464 416.726400
   2743   2745   2748     1   108.8800464 416.726400
   2744   2743   2745     1   117.6800502 383.254400
   2745   2747   2749     1   110.5600475 386.601600
   2745   2747   2750     1   110.5600475 386.601600
   2746   2745   2747     1   109.5600471 388.275200
   2746   2745   2748     1   108.4600466 328.025600
   2747   2745   2748     1   109.5600471 388.275200
   2747   2751   2772     1   110.1100470 384.091200
   2749   2747   2751     1   108.0100461 406.684800
   2749   2747   2750     1   109.7500473 328.025600
   2750   2747   2751     1   108.0100461 406.684800
   2751   2752   2762     1   108.0100461 406.684800
   2751   2752   2763     1   108.0100461 406.684800
   2751   2753   2754     1   108.0100461 406.684800
   2751   2753   2756     1   108.0100461 406.684800
   2752   2751   2772     1   110.1100470 384.091200
   2752   2764   2765     1   109.8000471 387.438400
   2752   2764   2766     1   109.8000471 387.438400
   2753   2751   2772     1   110.1100470 384.091200
   2753   2755   2757     1   109.8000471 387.438400
   2753   2755   2758     1   109.8000471 387.438400
   2754   2753   2755     1   110.5600475 386.601600
   2754   2753   2756     1   109.7500473 328.025600
   2755   2753   2756     1   110.5600475 386.601600
   2757   2755   2759     1   108.7700466 392.459200
   2757   2755   2758     1   107.5800459 329.699200
   2758   2755   2759     1   108.7700466 392.459200
   2759   2760   2770     1   106.5500460 417.563200
   2762   2752   2764     1   110.5600475 386.601600
   2762   2752   2763     1   109.7500473 328.025600
   2763   2752   2764     1   110.5600475 386.601600
   2765   2764   2767     1   108.7700466 392.459200
   2765   2764   2766     1   107.5800459 329.699200
   2766   2764   2767     1   108.7700466 392.459200
   2767   2769   2771     1   106.5500460 417.563200
   2773   2775   2776     1   108.8800464 416.726400
   2773   2775   2778     1   108.8800464 416.726400
   2774   2773   2775     1   117.6800502 383.254400
   2775   2777   2779     1   110.5600475 386.601600
   2775   2777   2780     1   110.5600475 386.601600
   2776   2775   2777     1   109.5600471 388.275200
   2776   2775   2778     1   108.4600466 328.025600
   2777   2781   2802     1   110.1100470 384.091200
   2777   2775   2778     1   109.5600471 388.275200
   2779   2777   2781     1   108.0100461 406.684800
   2779   2777   2780     1   109.7500473 328.025600
   2780   2777   2781     1   108.0100461 406.684800
   2781   2782   2792     1   108.0100461 406.684800
   2781   2782   2793     1   108.0100461 406.684800
   2781   2783   2784     1   108.0100461 406.684800
   2781   2783   2786     1   108.0100461 406.684800
   2782   2794   2795     1   109.8000471 387.438400
   2782   2794   2796     1   109.8000471 387.438400
   2782   2781   2802     1   110.1100470 384.091200
   2783   2785   2787     1   109.8000471 387.438400
   2783   2785   2788     1   109.8000471 387.438400
   2783   2781   2802     1   110.1100470 384.091200
   2784   2783   2785     1   110.5600475 386.601600
   2784   2783   2786     1   109.7500473 328.025600
   2785   2783   2786     1   110.5600475 386.601600
   2787   2785   2789     1   108.7700466 392.459200
   2787   2785   2788     1   107.5800459 329.699200
   2788   2785   2789     1   108.7700466 392.459200
   2789   2790   2800     1   106.5500460 417.563200
   2792   2782   2794     1   110.5600475 386.601600
   2792   2782   2793     1   109.7500473 328.025600
   2793   2782   2794     1   110.5600475 386.601600
   2795   2794   2797     1   108.7700466 392.459200
   2795   2794   2796     1   107.5800459 329.699200
   2796   2794   2797     1   108.7700466 392.459200
   2797   2799   2801     1   106.5500460 417.563200
   2803   2805   2806     1   108.8800464 416.726400
   2803   2805   2808     1   108.8800464 416.726400
   2804   2803   2805     1   117.6800502 383.254400
   2805   2807   2809     1   110.5600475 386.601600
   2805   2807   2810     1   110.5600475 386.601600
   2806   2805   2807     1   109.5600471 388.275200
   2806   2805   2808     1   108.4600466 328.025600
   2807   2805   2808     1   109.5600471 388.275200
   2807   2811   2832     1   110.1100470 384.091200
   2809   2807   2811     1   108.0100461 406.684800
   2809   2807   2810     1   109.7500473 328.025600
   2810   2807   2811     1   108.0100461 406.684800
   2811   2812   2822     1   108.0100461 406.684800
   2811   2812   2823     1   108.0100461 406.684800
   2811   2813   2814     1   108.0100461 406.684800
   2811   2813   2816     1   108.0100461 406.684800
   2812   2811   2832     1   110.1100470 384.091200
   2812   2824   2825     1   109.8000471 387.438400
   2812   2824   2826     1   109.8000471 387.438400
   2813   2811   2832     1   110.1100470 384.091200
   2813   2815   2817     1   109.8000471 387.438400
   2813   2815   2818     1   109.8000471 387.438400
   2814   2813   2815     1   110.5600475 386.601600
   2814   2813   2816     1   109.7500473 328.025600
   2815   2813   2816     1   110.5600475 386.601600
   2817   2815   2819     1   108.7700466 392.459200
   2817   2815   2818     1   107.5800459 329.699200
   2818   2815   2819     1   108.7700466 392.459200
   2819   2820   2830     1   106.5500460 417.563200
   2822   2812   2824     1   110.5600475 386.601600
   2822   2812   2823     1   109.7500473 328.025600
   2823   2812   2824     1   110.5600475 386.601600
   2825   2824   2827     1   108.7700466 392.459200
   2825   2824   2826     1   107.5800459 329.699200
   2826   2824   2827     1   108.7700466 392.459200
   2827   2829   2831     1   106.5500460 417.563200
   2833   2835   2836     1   108.8800464 416.726400
   2833   2835   2838     1   108.8800464 416.726400
   2834   2833   2835     1   117.6800502 383.254400
   2835   2837   2839     1   110.5600475 386.601600
   2835   2837   2840     1   110.5600475 386.601600
   2836   2835   2837     1   109.5600471 388.275200
   2836   2835   2838     1   108.4600466 328.025600
   2837   2841   2862     1   110.1100470 384.091200
   2837   2835   2838     1   109.5600471 388.275200
   2839   2837   2841     1   108.0100461 406.684800
   2839   2837   2840     1   109.7500473 328.025600
   2840   2837   2841     1   108.0100461 406.684800
   2841   2842   2852     1   108.0100461 406.684800
   2841   2842   2853     1   108.0100461 406.684800
   2841   2843   2844     1   108.0100461 406.684800
   2841   2843   2846     1   108.0100461 406.684800
   2842   2854   2855     1   109.8000471 387.438400
   2842   2854   2856     1   109.8000471 387.438400
   2842   2841   2862     1   110.1100470 384.091200
   2843   2845   2847     1   109.8000471 387.438400
   2843   2845   2848     1   109.8000471 387.438400
   2843   2841   2862     1   110.1100470 384.091200
   2844   2843   2845     1   110.5600475 386.601600
   2844   2843   2846     1   109.7500473 328.025600
   2845   2843   2846     1   110.5600475 386.601600
   2847   2845   2849     1   108.7700466 392.459200
   2847   2845   2848     1   107.5800459 329.699200
   2848   2845   2849     1   108.7700466 392.459200
   2849   2850   2860     1   106.5500460 417.563200
   2852   2842   2854     1   110.5600475 386.601600
   2852   2842   2853     1   109.7500473 328.025600
   2853   2842   2854     1   110.5600475 386.601600
   2855   2854   2857     1   108.7700466 392.459200
   2855   2854   2856     1   107.5800459 329.699200
   2856   2854   2857     1   108.7700466 392.459200
   2857   2859   2861     1   106.5500460 417.563200
   2863   2865   2866     1   108.8800464 416.726400
   2863   2865   2868     1   108.8800464 416.726400
   2864   2863   2865     1   117.6800502 383.254400
   2865   2867   2869     1   110.5600475 386.601600
   2865   2867   2870     1   110.5600475 386.601600
   2866   2865   2867     1   109.5600471 388.275200
   2866   2865   2868     1   108.4600466 328.025600
   2867   2865   2868     1   109.5600471 388.275200
   2867   2871   2892     1   110.1100470 384.091200
   2869   2867   2871     1   108.0100461 406.684800
   2869   2867   2870     1   109.7500473 328.025600
   2870   2867   2871     1   108.0100461 406.684800
   2871   2872   2882     1   108.0100461 406.684800
   2871   2872   2883     1   108.0100461 406.684800
   2871   2873   2874     1   108.0100461 406.684800
   2871   2873   2876     1   108.0100461 406.684800
   2872   2871   2892     1   110.1100470 384.091200
   2872   2884   2885     1   109.8000471 387.438400
   2872   2884   2886     1   109.8000471 387.438400
   2873   2871   2892     1   110.1100470 384.091200
   2873   2875   2877     1   109.8000471 387.438400
   2873   2875   2878     1   109.8000471 387.438400
   2874   2873   2875     1   110.5600475 386.601600
   2874   2873   2876     1   109.7500473 328.025600
   2875   2873   2876     1   110.5600475 386.601600
   2877   2875   2879     1   108.7700466 392.459200
   2877   2875   2878     1   107.5800459 329.699200
   2878   2875   2879     1   108.7700466 392.459200
   2879   2880   2890     1   106.5500460 417.563200
   2882   2872   2884     1   110.5600475 386.601600
   2882   2872   2883     1   109.7500473 328.025600
   2883   2872   2884     1   110.5600475 386.601600
   2885   2884   2887     1   108.7700466 392.459200
   2885   2884   2886     1   107.5800459 329.699200
   2886   2884   2887     1   108.7700466 392.459200
   2887   2889   2891     1   106.5500460 417.563200
   2893   2895   2896     1   108.8800464 416.726400
   2893   2895   2898     1   108.8800464 416.726400
   2894   2893   2895     1   117.6800502 383.254400
   2895   2897   2899     1   110.5600475 386.601600
   2895   2897   2900     1   110.5600475 386.601600
   2896   2895   2897     1   109.5600471 388.275200
   2896   2895   2898     1   108.4600466 328.025600
   2897   2901   2922     1   110.1100470 384.091200
   2897   2895   2898     1   109.5600471 388.275200
   2899   2897   2901     1   108.0100461 406.684800
   2899   2897   2900     1   109.7500473 328.025600
   2900   2897   2901     1   108.0100461 406.684800
   2901   2902   2912     1   108.0100461 406.684800
   2901   2902   2913     1   108.0100461 406.684800
   2901   2903   2904     1   108.0100461 406.684800
   2901   2903   2906     1   108.0100461 406.684800
   2902   2914   2915     1   109.8000471 387.438400
   2902   2914   2916     1   109.8000471 387.438400
   2902   2901   2922     1   110.1100470 384.091200
   2903   2905   2907     1   109.8000471 387.438400
   2903   2905   2908     1   109.8000471 387.438400
   2903   2901   2922     1   110.1100470 384.091200
   2904   2903   2905     1   110.5600475 386.601600
   2904   2903   2906     1   109.7500473 328.025600
   2905   2903   2906     1   110.5600475 386.601600
   2907   2905   2909     1   108.7700466 392.459200
   2907   2905   2908     1   107.5800459 329.699200
   2908   2905   2909     1   108.7700466 392.459200
   2909   2910   2920     1   106.5500460 417.563200
   2912   2902   2914     1   110.5600475 386.601600
   2912   2902   2913     1   109.7500473 328.025600
   2913   2902   2914     1   110.5600475 386.601600
   2915   2914   2917     1   108.7700466 392.459200
   2915   2914   2916     1   107.5800459 329.699200
   2916   2914   2917     1   108.7700466 392.459200
   2917   2919   2921     1   106.5500460 417.563200
   2923   2925   2926     1   108.8800464 416.726400
   2923   2925   2928     1   108.8800464 416.726400
   2924   2923   2925     1   117.6800502 383.254400
   2925   2927   2929     1   110.5600475 386.601600
   2925   2927   2930     1   110.5600475 386.601600
   2926   2925   2927     1   109.5600471 388.275200
   2926   2925   2928     1   108.4600466 328.025600
   2927   2925   2928     1   109.5600471 388.275200
   2927   2931   2952     1   110.1100470 384.091200
   2929   2927   2931     1   108.0100461 406.684800
   2929   2927   2930     1   109.7500473 328.025600
   2930   2927   2931     1   108.0100461 406.684800
   2931   2932   2942     1   108.0100461 406.684800
   2931   2932   2943     1   108.0100461 406.684800
   2931   2933   2934     1   108.0100461 406.684800
   2931   2933   2936     1   108.0100461 406.684800
   2932   2931   2952     1   110.1100470 384.091200
   2932   2944   2945     1   109.8000471 387.438400
   2932   2944   2946     1   109.8000471 387.438400
   2933   2931   2952     1   110.1100470 384.091200
   2933   2935   2937     1   109.8000471 387.438400
   2933   2935   2938     1   109.8000471 387.438400
   2934   2933   2935     1   110.5600475 386.601600
   2934   2933   2936     1   109.7500473 328.025600
   2935   2933   2936     1   110.5600475 386.601600
   2937   2935   2939     1   108.7700466 392.459200
   2937   2935   2938     1   107.5800459 329.699200
   2938   2935   2939     1   108.7700466 392.459200
   2939   2940   2950     1   106.5500460 417.563200
   2942   2932   2944     1   110.5600475 386.601600
   2942   2932   2943     1   109.7500473 328.025600
   2943   2932   2944     1   110.5600475 386.601600
   2945   2944   2947     1   108.7700466 392.459200
   2945   2944   2946     1   107.5800459 329.699200
   2946   2944   2947     1   108.7700466 392.459200
   2947   2949   2951     1   106.5500460 417.563200
   2953   2955   2956     1   108.8800464 416.726400
   2953   2955   2958     1   108.8800464 416.726400
   2954   2953   2955     1   117.6800502 383.254400
   2955   2957   2959     1   110.5600475 386.601600
   2955   2957   2960     1   110.5600475 386.601600
   2956   2955   2957     1   109.5600471 388.275200
   2956   2955   2958     1   108.4600466 328.025600
   2957   2961   2982     1   110.1100470 384.091200
   2957   2955   2958     1   109.5600471 388.275200
   2959   2957   2961     1   108.0100461 406.684800
   2959   2957   2960     1   109.7500473 328.025600
   2960   2957   2961     1   108.0100461 406.684800
   2961   2962   2972     1   108.0100461 406.684800
   2961   2962   2973     1   108.0100461 406.684800
   2961   2963   2964     1   108.0100461 406.684800
   2961   2963   2966     1   108.0100461 406.684800
   2962   2974   2975     1   109.8000471 387.438400
   2962   2974   2976     1   109.8000471 387.438400
   2962   2961   2982     1   110.1100470 384.091200
   2963   2965   2967     1   109.8000471 387.438400
   2963   2965   2968     1   109.8000471 387.438400
   2963   2961   2982     1   110.1100470 384.091200
   2964   2963   2965     1   110.5600475 386.601600
   2964   2963   2966     1   109.7500473 328.025600
   2965   2963   2966     1   110.5600475 386.601600
   2967   2965   2969     1   108.7700466 392.459200
   2967   2965   2968     1   107.5800459 329.699200
   2968   2965   2969     1   108.7700466 392.459200
   2969   2970   2980     1   106.5500460 417.563200
   2972   2962   2974     1   110.5600475 386.601600
   2972   2962   2973     1   109.7500473 328.025600
   2973   2962   2974     1   110.5600475 386.601600
   2975   2974   2977     1   108.7700466 392.459200
   2975   2974   2976     1   107.5800459 329.699200
   2976   2974   2977     1   108.7700466 392.459200
   2977   2979   2981     1   106.5500460 417.563200
   2983   2985   2986     1   108.8800464 416.726400
   2983   2985   2988     1   108.8800464 416.726400
   2984   2983   2985     1   117.6800502 383.254400
   2985   2987   2989     1   110.5600475 386.601600
   2985   2987   2990     1   110.5600475 386.601600
   2986   2985   2987     1   109.5600471 388.275200
   2986   2985   2988     1   108.4600466 328.025600
   2987   2985   2988     1   109.5600471 388.275200
   2987   2991   3012     1   110.1100470 384.091200
   2989   2987   2991     1   108.0100461 406.684800
   2989   2987   2990     1   109.7500473 328.025600
   2990   2987   2991     1   108.0100461 406.684800
   2991   2992   3002     1   108.0100461 406.684800
   2991   2992   3003     1   108.0100461 406.684800
   2991   2993   2994     1   108.0100461 406.684800
   2991   2993   2996     1   108.0100461 406.684800
   2992   2991   3012     1   110.1100470 384.091200
   2992   3004   3005     1   109.8000471 387.438400
   2992   3004   3006     1   109.8000471 387.438400
   2993   2991   3012     1   110.1100470 384.091200
   2993   2995   2997     1   109.8000471 387.438400
   2993   2995   2998     1   109.8000471 387.438400
   2994   2993   2995     1   110.5600475 386.601600
   2994   2993   2996     1   109.7500473 328.025600
   2995   2993   2996     1   110.5600475 386.601600
   2997   2995   2999     1   108.7700466 392.459200
   2997   2995   2998     1   107.5800459 329.699200
   2998   2995   2999     1   108.7700466 392.459200
   2999   3000   3010     1   106.5500460 417.563200
   3002   2992   3004     1   110.5600475 386.601600
   3002   2992   3003     1   109.7500473 328.025600
   3003   2992   3004     1   110.5600475 386.601600
   3005   3004   3007     1   108.7700466 392.459200
   3005   3004   3006     1   107.5800459 329.699200
   3006   3004   3007     1   108.7700466 392.459200
   3007   3009   3011     1   106.5500460 417.563200
   3013   3015   3016     1   108.8800464 416.726400
   3013   3015   3018     1   108.8800464 416.726400
   3014   3013   3015     1   117.6800502 383.254400
   3015   3017   3019     1   110.5600475 386.601600
   3015   3017   3020     1   110.5600475 386.601600
   3016   3015   3017     1   109.5600471 388.275200
   3016   3015   3018     1   108.4600466 328.025600
   3017   3021   3042     1   110.1100470 384.091200
   3017   3015   3018     1   109.5600471 388.275200
   3019   3017   3021     1   108.0100461 406.684800
   3019   3017   3020     1   109.7500473 328.025600
   3020   3017   3021     1   108.0100461 406.684800
   3021   3022   3032     1   108.0100461 406.684800
   3021   3022   3033     1   108.0100461 406.684800
   3021   3023   3024     1   108.0100461 406.684800
   3021   3023   3026     1   108.0100461 406.684800
   3022   3034   3035     1   109.8000471 387.438400
   3022   3034   3036     1   109.8000471 387.438400
   3022   3021   3042     1   110.1100470 384.091200
   3023   3025   3027     1   109.8000471 387.438400
   3023   3025   3028     1   109.8000471 387.438400
   3023   3021   3042     1   110.1100470 384.091200
   3024   3023   3025     1   110.5600475 386.601600
   3024   3023   3026     1   109.7500473 328.025600
   3025   3023   3026     1   110.5600475 386.601600
   3027   3025   3029     1   108.7700466 392.459200
   3027   3025   3028     1   107.5800459 329.699200
   3028   3025   3029     1   108.7700466 392.459200
   3029   3030   3040     1   106.5500460 417.563200
   3032   3022   3034     1   110.5600475 386.601600
   3032   3022   3033     1   109.7500473 328.025600
   3033   3022   3034     1   110.5600475 386.601600
   3035   3034   3037     1   108.7700466 392.459200
   3035   3034   3036     1   107.5800459 329.699200
   3036   3034   3037     1   108.7700466 392.459200
   3037   3039   3041     1   106.5500460 417.563200
   3043   3045   3046     1   108.8800464 416.726400
   3043   3045   3048     1   108.8800464 416.726400
   3044   3043   3045     1   117.6800502 383.254400
   3045   3047   3049     1   110.5600475 386.601600
   3045   3047   3050     1   110.5600475 386.601600
   3046   3045   3047     1   109.5600471 388.275200
   3046   3045   3048     1   108.4600466 328.025600
   3047   3045   3048     1   109.5600471 388.275200
   3047   3051   3072     1   110.1100470 384.091200
   3049   3047   3051     1   108.0100461 406.684800
   3049   3047   3050     1   109.7500473 328.025600
   3050   3047   3051     1   108.0100461 406.684800
   3051   3052   3062     1   108.0100461 406.684800
   3051   3052   3063     1   108.0100461 406.684800
   3051   3053   3054     1   108.0100461 406.684800
   3051   3053   3056     1   108.0100461 406.684800
   3052   3051   3072     1   110.1100470 384.091200
   3052   3064   3065     1   109.8000471 387.438400
   3052   3064   3066     1   109.8000471 387.438400
   3053   3051   3072     1   110.1100470 384.091200
   3053   3055   3057     1   109.8000471 387.438400
   3053   3055   3058     1   109.8000471 387.438400
   3054   3053   3055     1   110.5600475 386.601600
   3054   3053   3056     1   109.7500473 328.025600
   3055   3053   3056     1   110.5600475 386.601600
   3057   3055   3059     1   108.7700466 392.459200
   3057   3055   3058     1   107.5800459 329.699200
   3058   3055   3059     1   108.7700466 392.459200
   3059   3060   3070     1   106.5500460 417.563200
   3062   3052   3064     1   110.5600475 386.601600
   3062   3052   3063     1   109.7500473 328.025600
   3063   3052   3064     1   110.5600475 386.601600
   3065   3064   3067     1   108.7700466 392.459200
   3065   3064   3066     1   107.5800459 329.699200
   3066   3064   3067     1   108.7700466 392.459200
   3067   3069   3071     1   106.5500460 417.563200
   3073   3075   3076     1   108.8800464 416.726400
   3073   3075   3078     1   108.8800464 416.726400
   3074   3073   3075     1   117.6800502 383.254400
   3075   3077   3079     1   110.5600475 386.601600
   3075   3077   3080     1   110.5600475 386.601600
   3076   3075   3077     1   109.5600471 388.275200
   3076   3075   3078     1   108.4600466 328.025600
   3077   3081   3102     1   110.1100470 384.091200
   3077   3075   3078     1   109.5600471 388.275200
   3079   3077   3081     1   108.0100461 406.684800
   3079   3077   3080     1   109.7500473 328.025600
   3080   3077   3081     1   108.0100461 406.684800
   3081   3082   3092     1   108.0100461 406.684800
   3081   3082   3093     1   108.0100461 406.684800
   3081   3083   3084     1   108.0100461 406.684800
   3081   3083   3086     1   108.0100461 406.684800
   3082   3094   3095     1   109.8000471 387.438400
   3082   3094   3096     1   109.8000471 387.438400
   3082   3081   3102     1   110.1100470 384.091200
   3083   3085   3087     1   109.8000471 387.438400
   3083   3085   3088     1   109.8000471 387.438400
   3083   3081   3102     1   110.1100470 384.091200
   3084   3083   3085     1   110.5600475 386.601600
   3084   3083   3086     1   109.7500473 328.025600
   3085   3083   3086     1   110.5600475 386.601600
   3087   3085   3089     1   108.7700466 392.459200
   3087   3085   3088     1   107.5800459 329.699200
   3088   3085   3089     1   108.7700466 392.459200
   3089   3090   3100     1   106.5500460 417.563200
   3092   3082   3094     1   110.5600475 386.601600
   3092   3082   3093     1   109.7500473 328.025600
   3093   3082   3094     1   110.5600475 386.601600
   3095   3094   3097     1   108.7700466 392.459200
   3095   3094   3096     1   107.5800459 329.699200
   3096   3094   3097     1   108.7700466 392.459200
   3097   3099   3101     1   106.5500460 417.563200
   3103   3105   3106     1   108.8800464 416.726400
   3103   3105   3108     1   108.8800464 416.726400
   3104   3103   3105     1   117.6800502 383.254400
   3105   3107   3109     1   110.5600475 386.601600
   3105   3107   3110     1   110.5600475 386.601600
   3106   3105   3107     1   109.5600471 388.275200
   3106   3105   3108     1   108.4600466 328.025600
   3107   3105   3108     1   109.5600471 388.275200
   3107   3111   3132     1   110.1100470 384.091200
   3109   3107   3111     1   108.0100461 406.684800
   3109   3107   3110     1   109.7500473 328.025600
   3110   3107   3111     1   108.0100461 406.684800
   3111   3112   3122     1   108.0100461 406.684800
   3111   3112   3123     1   108.0100461 406.684800
   3111   3113   3114     1   108.0100461 406.684800
   3111   3113   3116     1   108.0100461 406.684800
   3112   3111   3132     1   110.1100470 384.091200
   3112   3124   3125     1   109.8000471 387.438400
   3112   3124   3126     1   109.8000471 387.438400
   3113   3111   3132     1   110.1100470 384.091200
   3113   3115   3117     1   109.8000471 387.438400
   3113   3115   3118     1   109.8000471 387.438400
   3114   3113   3115     1   110.5600475 386.601600
   3114   3113   3116     1   109.7500473 328.025600
   3115   3113   3116     1   110.5600475 386.601600
   3117   3115   3119     1   108.7700466 392.459200
   3117   3115   3118     1   107.5800459 329.699200
   3118   3115   3119     1   108.7700466 392.459200
   3119   3120   3130     1   106.5500460 417.563200
   3122   3112   3124     1   110.5600475 386.601600
   3122   3112   3123     1   109.7500473 328.025600
   3123   3112   3124     1   110.5600475 386.601600
   3125   3124   3127     1   108.7700466 392.459200
   3125   3124   3126     1   107.5800459 329.699200
   3126   3124   3127     1   108.7700466 392.459200
   3127   3129   3131     1   106.5500460 417.563200
   3133   3135   3136     1   108.8800464 416.726400
   3133   3135   3138     1   108.8800464 416.726400
   3134   3133   3135     1   117.6800502 383.254400
   3135   3137   3139     1   110.5600475 386.601600
   3135   3137   3140     1   110.5600475 386.601600
   3136   3135   3137     1   109.5600471 388.275200
   3136   3135   3138     1   108.4600466 328.025600
   3137   3141   3162     1   110.1100470 384.091200
   3137   3135   3138     1   109.5600471 388.275200
   3139   3137   3141     1   108.0100461 406.684800
   3139   3137   3140     1   109.7500473 328.025600
   3140   3137   3141     1   108.0100461 406.684800
   3141   3142   3152     1   108.0100461 406.684800
   3141   3142   3153     1   108.0100461 406.684800
   3141   3143   3144     1   108.0100461 406.684800
   3141   3143   3146     1   108.0100461 406.684800
   3142   3154   3155     1   109.8000471 387.438400
   3142   3154   3156     1   109.8000471 387.438400
   3142   3141   3162     1   110.1100470 384.091200
   3143   3145   3147     1   109.8000471 387.438400
   3143   3145   3148     1   109.8000471 387.438400
   3143   3141   3162     1   110.1100470 384.091200
   3144   3143   3145     1   110.5600475 386.601600
   3144   3143   3146     1   109.7500473 328.025600
   3145   3143   3146     1   110.5600475 386.601600
   3147   3145   3149     1   108.7700466 392.459200
   3147   3145   3148     1   107.5800459 329.699200
   3148   3145   3149     1   108.7700466 392.459200
   3149   3150   3160     1   106.5500460 417.563200
   3152   3142   3154     1   110.5600475 386.601600
   3152   3142   3153     1   109.7500473 328.025600
   3153   3142   3154     1   110.5600475 386.601600
   3155   3154   3157     1   108.7700466 392.459200
   3155   3154   3156     1   107.5800459 329.699200
   3156   3154   3157     1   108.7700466 392.459200
   3157   3159   3161     1   106.5500460 417.563200
   3163   3165   3166     1   108.8800464 416.726400
   3163   3165   3168     1   108.8800464 416.726400
   3164   3163   3165     1   117.6800502 383.254400
   3165   3167   3169     1   110.5600475 386.601600
   3165   3167   3170     1   110.5600475 386.601600
   3166   3165   3167     1   109.5600471 388.275200
   3166   3165   3168     1   108.4600466 328.025600
   3167   3165   3168     1   109.5600471 388.275200
   3167   3171   3192     1   110.1100470 384.091200
   3169   3167   3171     1   108.0100461 406.684800
   3169   3167   3170     1   109.7500473 328.025600
   3170   3167   3171     1   108.0100461 406.684800
   3171   3172   3182     1   108.0100461 406.684800
   3171   3172   3183     1   108.0100461 406.684800
   3171   3173   3174     1   108.0100461 406.684800
   3171   3173   3176     1   108.0100461 406.684800
   3172   3171   3192     1   110.1100470 384.091200
   3172   3184   3185     1   109.8000471 387.438400
   3172   3184   3186     1   109.8000471 387.438400
   3173   3171   3192     1   110.1100470 384.091200
   3173   3175   3177     1   109.8000471 387.438400
   3173   3175   3178     1   109.8000471 387.438400
   3174   3173   3175     1   110.5600475 386.601600
   3174   3173   3176     1   109.7500473 328.025600
   3175   3173   3176     1   110.5600475 386.601600
   3177   3175   3179     1   108.7700466 392.459200
   3177   3175   3178     1   107.5800459 329.699200
   3178   3175   3179     1   108.7700466 392.459200
   3179   3180   3190     1   106.5500460 417.563200
   3182   3172   3184     1   110.5600475 386.601600
   3182   3172   3183     1   109.7500473 328.025600
   3183   3172   3184     1   110.5600475 386.601600
   3185   3184   3187     1   108.7700466 392.459200
   3185   3184   3186     1   107.5800459 329.699200
   3186   3184   3187     1   108.7700466 392.459200
   3187   3189   3191     1   106.5500460 417.563200
   3193   3195   3196     1   108.8800464 416.726400
   3193   3195   3198     1   108.8800464 416.726400
   3194   3193   3195     1   117.6800502 383.254400
   3195   3197   3199     1   110.5600475 386.601600
   3195   3197   3200     1   110.5600475 386.601600
   3196   3195   3197     1   109.5600471 388.275200
   3196   3195   3198     1   108.4600466 328.025600
   3197   3201   3222     1   110.1100470 384.091200
   3197   3195   3198     1   109.5600471 388.275200
   3199   3197   3201     1   108.0100461 406.684800
   3199   3197   3200     1   109.7500473 328.025600
   3200   3197   3201     1   108.0100461 406.684800
   3201   3202   3212     1   108.0100461 406.684800
   3201   3202   3213     1   108.0100461 406.684800
   3201   3203   3204     1   108.0100461 406.684800
   3201   3203   3206     1   108.0100461 406.684800
   3202   3214   3215     1   109.8000471 387.438400
   3202   3214   3216     1   109.8000471 387.438400
   3202   3201   3222     1   110.1100470 384.091200
   3203   3205   3207     1   109.8000471 387.438400
   3203   3205   3208     1   109.8000471 387.438400
   3203   3201   3222     1   110.1100470 384.091200
   3204   3203   3205     1   110.5600475 386.601600
   3204   3203   3206     1   109.7500473 328.025600
   3205   3203   3206     1   110.5600475 386.601600
   3207   3205   3209     1   108.7700466 392.459200
   3207   3205   3208     1   107.5800459 329.699200
   3208   3205   3209     1   108.7700466 392.459200
   3209   3210   3220     1   106.5500460 417.563200
   3212   3202   3214     1   110.5600475 386.601600
   3212   3202   3213     1   109.7500473 328.025600
   3213   3202   3214     1   110.5600475 386.601600
   3215   3214   3217     1   108.7700466 392.459200
   3215   3214   3216     1   107.5800459 329.699200
   3216   3214   3217     1   108.7700466 392.459200
   3217   3219   3221     1   106.5500460 417.563200
   3223   3225   3226     1   108.8800464 416.726400
   3223   3225   3228     1   108.8800464 416.726400
   3224   3223   3225     1   117.6800502 383.254400
   3225   3227   3229     1   110.5600475 386.601600
   3225   3227   3230     1   110.5600475 386.601600
   3226   3225   3227     1   109.5600471 388.275200
   3226   3225   3228     1   108.4600466 328.025600
   3227   3225   3228     1   109.5600471 388.275200
   3227   3231   3252     1   110.1100470 384.091200
   3229   3227   3231     1   108.0100461 406.684800
   3229   3227   3230     1   109.7500473 328.025600
   3230   3227   3231     1   108.0100461 406.684800
   3231   3232   3242     1   108.0100461 406.684800
   3231   3232   3243     1   108.0100461 406.684800
   3231   3233   3234     1   108.0100461 406.684800
   3231   3233   3236     1   108.0100461 406.684800
   3232   3231   3252     1   110.1100470 384.091200
   3232   3244   3245     1   109.8000471 387.438400
   3232   3244   3246     1   109.8000471 387.438400
   3233   3231   3252     1   110.1100470 384.091200
   3233   3235   3237     1   109.8000471 387.438400
   3233   3235   3238     1   109.8000471 387.438400
   3234   3233   3235     1   110.5600475 386.601600
   3234   3233   3236     1   109.7500473 328.025600
   3235   3233   3236     1   110.5600475 386.601600
   3237   3235   3239     1   108.7700466 392.459200
   3237   3235   3238     1   107.5800459 329.699200
   3238   3235   3239     1   108.7700466 392.459200
   3239   3240   3250     1   106.5500460 417.563200
   3242   3232   3244     1   110.5600475 386.601600
   3242   3232   3243     1   109.7500473 328.025600
   3243   3232   3244     1   110.5600475 386.601600
   3245   3244   3247     1   108.7700466 392.459200
   3245   3244   3246     1   107.5800459 329.699200
   3246   3244   3247     1   108.7700466 392.459200
   3247   3249   3251     1   106.5500460 417.563200
   3253   3255   3256     1   108.8800464 416.726400
   3253   3255   3258     1   108.8800464 416.726400
   3254   3253   3255     1   117.6800502 383.254400
   3255   3257   3259     1   110.5600475 386.601600
   3255   3257   3260     1   110.5600475 386.601600
   3256   3255   3257     1   109.5600471 388.275200
   3256   3255   3258     1   108.4600466 328.025600
   3257   3261   3282     1   110.1100470 384.091200
   3257   3255   3258     1   109.5600471 388.275200
   3259   3257   3261     1   108.0100461 406.684800
   3259   3257   3260     1   109.7500473 328.025600
   3260   3257   3261     1   108.0100461 406.684800
   3261   3262   3272     1   108.0100461 406.684800
   3261   3262   3273     1   108.0100461 406.684800
   3261   3263   3264     1   108.0100461 406.684800
   3261   3263   3266     1   108.0100461 406.684800
   3262   3274   3275     1   109.8000471 387.438400
   3262   3274   3276     1   109.8000471 387.438400
   3262   3261   3282     1   110.1100470 384.091200
   3263   3265   3267     1   109.8000471 387.438400
   3263   3265   3268     1   109.8000471 387.438400
   3263   3261   3282     1   110.1100470 384.091200
   3264   3263   3265     1   110.5600475 386.601600
   3264   3263   3266     1   109.7500473 328.025600
   3265   3263   3266     1   110.5600475 386.601600
   3267   3265   3269     1   108.7700466 392.459200
   3267   3265   3268     1   107.5800459 329.699200
   3268   3265   3269     1   108.7700466 392.459200
   3269   3270   3280     1   106.5500460 417.563200
   3272   3262   3274     1   110.5600475 386.601600
   3272   3262   3273     1   109.7500473 328.025600
   3273   3262   3274     1   110.5600475 386.601600
   3275   3274   3277     1   108.7700466 392.459200
   3275   3274   3276     1   107.5800459 329.699200
   3276   3274   3277     1   108.7700466 392.459200
   3277   3279   3281     1   106.5500460 417.563200
   3283   3285   3286     1   108.8800464 416.726400
   3283   3285   3288     1   108.8800464 416.726400
   3284   3283   3285     1   117.6800502 383.254400
   3285   3287   3289     1   110.5600475 386.601600
   3285   3287   3290     1   110.5600475 386.601600
   3286   3285   3287     1   109.5600471 388.275200
   3286   3285   3288     1   108.4600466 328.025600
   3287   3285   3288     1   109.5600471 388.275200
   3287   3291   3312     1   110.1100470 384.091200
   3289   3287   3291     1   108.0100461 406.684800
   3289   3287   3290     1   109.7500473 328.025600
   3290   3287   3291     1   108.0100461 406.684800
   3291   3292   3302     1   108.0100461 406.684800
   3291   3292   3303     1   108.0100461 406.684800
   3291   3293   3294     1   108.0100461 406.684800
   3291   3293   3296     1   108.0100461 406.684800
   3292   3291   3312     1   110.1100470 384.091200
   3292   3304   3305     1   109.8000471 387.438400
   3292   3304   3306     1   109.8000471 387.438400
   3293   3291   3312     1   110.1100470 384.091200
   3293   3295   3297     1   109.8000471 387.438400
   3293   3295   3298     1   109.8000471 387.438400
   3294   3293   3295     1   110.5600475 386.601600
   3294   3293   3296     1   109.7500473 328.025600
   3295   3293   3296     1   110.5600475 386.601600
   3297   3295   3299     1   108.7700466 392.459200
   3297   3295   3298     1   107.5800459 329.699200
   3298   3295   3299     1   108.7700466 392.459200
   3299   3300   3310     1   106.5500460 417.563200
   3302   3292   3304     1   110.5600475 386.601600
   3302   3292   3303     1   109.7500473 328.025600
   3303   3292   3304     1   110.5600475 386.601600
   3305   3304   3307     1   108.7700466 392.459200
   3305   3304   3306     1   107.5800459 329.699200
   3306   3304   3307     1   108.7700466 392.459200
   3307   3309   3311     1   106.5500460 417.563200
   3313   3315   3316     1   108.8800464 416.726400
   3313   3315   3318     1   108.8800464 416.726400
   3314   3313   3315     1   117.6800502 383.254400
   3315   3317   3319     1   110.5600475 386.601600
   3315   3317   3320     1   110.5600475 386.601600
   3316   3315   3317     1   109.5600471 388.275200
   3316   3315   3318     1   108.4600466 328.025600
   3317   3321   3342     1   110.1100470 384.091200
   3317   3315   3318     1   109.5600471 388.275200
   3319   3317   3321     1   108.0100461 406.684800
   3319   3317   3320     1   109.7500473 328.025600
   3320   3317   3321     1   108.0100461 406.684800
   3321   3322   3332     1   108.0100461 406.684800
   3321   3322   3333     1   108.0100461 406.684800
   3321   3323   3324     1   108.0100461 406.684800
   3321   3323   3326     1   108.0100461 406.684800
   3322   3334   3335     1   109.8000471 387.438400
   3322   3334   3336     1   109.8000471 387.438400
   3322   3321   3342     1   110.1100470 384.091200
   3323   3325   3327     1   109.8000471 387.438400
   3323   3325   3328     1   109.8000471 387.438400
   3323   3321   3342     1   110.1100470 384.091200
   3324   3323   3325     1   110.5600475 386.601600
   3324   3323   3326     1   109.7500473 328.025600
   3325   3323   3326     1   110.5600475 386.601600
   3327   3325   3329     1   108.7700466 392.459200
   3327   3325   3328     1   107.5800459 329.699200
   3328   3325   3329     1   108.7700466 392.459200
   3329   3330   3340     1   106.5500460 417.563200
   3332   3322   3334     1   110.5600475 386.601600
   3332   3322   3333     1   109.7500473 328.025600
   3333   3322   3334     1   110.5600475 386.601600
   3335   3334   3337     1   108.7700466 392.459200
   3335   3334   3336     1   107.5800459 329.699200
   3336   3334   3337     1   108.7700466 392.459200
   3337   3339   3341     1   106.5500460 417.563200
   3343   3345   3346     1   108.8800464 416.726400
   3343   3345   3348     1   108.8800464 416.726400
   3344   3343   3345     1   117.6800502 383.254400
   3345   3347   3349     1   110.5600475 386.601600
   3345   3347   3350     1   110.5600475 386.601600
   3346   3345   3347     1   109.5600471 388.275200
   3346   3345   3348     1   108.4600466 328.025600
   3347   3345   3348     1   109.5600471 388.275200
   3347   3351   3372     1   110.1100470 384.091200
   3349   3347   3351     1   108.0100461 406.684800
   3349   3347   3350     1   109.7500473 328.025600
   3350   3347   3351     1   108.0100461 406.684800
   3351   3352   3362     1   108.0100461 406.684800
   3351   3352   3363     1   108.0100461 406.684800
   3351   3353   3354     1   108.0100461 406.684800
   3351   3353   3356     1   108.0100461 406.684800
   3352   3351   3372     1   110.1100470 384.091200
   3352   3364   3365     1   109.8000471 387.438400
   3352   3364   3366     1   109.8000471 387.438400
   3353   3351   3372     1   110.1100470 384.091200
   3353   3355   3357     1   109.8000471 387.438400
   3353   3355   3358     1   109.8000471 387.438400
   3354   3353   3355     1   110.5600475 386.601600
   3354   3353   3356     1   109.7500473 328.025600
   3355   3353   3356     1   110.5600475 386.601600
   3357   3355   3359     1   108.7700466 392.459200
   3357   3355   3358     1   107.5800459 329.699200
   3358   3355   3359     1   108.7700466 392.459200
   3359   3360   3370     1   106.5500460 417.563200
   3362   3352   3364     1   110.5600475 386.601600
   3362   3352   3363     1   109.7500473 328.025600
   3363   3352   3364     1   110.5600475 386.601600
   3365   3364   3367     1   108.7700466 392.459200
   3365   3364   3366     1   107.5800459 329.699200
   3366   3364   3367     1   108.7700466 392.459200
   3367   3369   3371     1   106.5500460 417.563200
   3373   3375   3376     1   108.8800464 416.726400
   3373   3375   3378     1   108.8800464 416.726400
   3374   3373   3375     1   117.6800502 383.254400
   3375   3377   3379     1   110.5600475 386.601600
   3375   3377   3380     1   110.5600475 386.601600
   3376   3375   3377     1   109.5600471 388.275200
   3376   3375   3378     1   108.4600466 328.025600
   3377   3381   3402     1   110.1100470 384.091200
   3377   3375   3378     1   109.5600471 388.275200
   3379   3377   3381     1   108.0100461 406.684800
   3379   3377   3380     1   109.7500473 328.025600
   3380   3377   3381     1   108.0100461 406.684800
   3381   3382   3392     1   108.0100461 406.684800
   3381   3382   3393     1   108.0100461 406.684800
   3381   3383   3384     1   108.0100461 406.684800
   3381   3383   3386     1   108.0100461 406.684800
   3382   3394   3395     1   109.8000471 387.438400
   3382   3394   3396     1   109.8000471 387.438400
   3382   3381   3402     1   110.1100470 384.091200
   3383   3385   3387     1   109.8000471 387.438400
   3383   3385   3388     1   109.8000471 387.438400
   3383   3381   3402     1   110.1100470 384.091200
   3384   3383   3385     1   110.5600475 386.601600
   3384   3383   3386     1   109.7500473 328.025600
   3385   3383   3386     1   110.5600475 386.601600
   3387   3385   3389     1   108.7700466 392.459200
   3387   3385   3388     1   107.5800459 329.699200
   3388   3385   3389     1   108.7700466 392.459200
   3389   3390   3400     1   106.5500460 417.563200
   3392   3382   3394     1   110.5600475 386.601600
   3392   3382   3393     1   109.7500473 328.025600
   3393   3382   3394     1   110.5600475 386.601600
   3395   3394   3397     1   108.7700466 392.459200
   3395   3394   3396     1   107.5800459 329.699200
   3396   3394   3397     1   108.7700466 392.459200
   3397   3399   3401     1   106.5500460 417.563200
   3403   3405   3406     1   108.8800464 416.726400
   3403   3405   3408     1   108.8800464 416.726400
   3404   3403   3405     1   117.6800502 383.254400
   3405   3407   3409     1   110.5600475 386.601600
   3405   3407   3410     1   110.5600475 386.601600
   3406   3405   3407     1   109.5600471 388.275200
   3406   3405   3408     1   108.4600466 328.025600
   3407   3405   3408     1   109.5600471 388.275200
   3407   3411   3432     1   110.1100470 384.091200
   3409   3407   3411     1   108.0100461 406.684800
   3409   3407   3410     1   109.7500473 328.025600
   3410   3407   3411     1   108.0100461 406.684800
   3411   3412   3422     1   108.0100461 406.684800
   3411   3412   3423     1   108.0100461 406.684800
   3411   3413   3414     1   108.0100461 406.684800
   3411   3413   3416     1   108.0100461 406.684800
   3412   3411   3432     1   110.1100470 384.091200
   3412   3424   3425     1   109.8000471 387.438400
   3412   3424   3426     1   109.8000471 387.438400
   3413   3411   3432     1   110.1100470 384.091200
   3413   3415   3417     1   109.8000471 387.438400
   3413   3415   3418     1   109.8000471 387.438400
   3414   3413   3415     1   110.5600475 386.601600
   3414   3413   3416     1   109.7500473 328.025600
   3415   3413   3416     1   110.5600475 386.601600
   3417   3415   3419     1   108.7700466 392.459200
   3417   3415   3418     1   107.5800459 329.699200
   3418   3415   3419     1   108.7700466 392.459200
   3419   3420   3430     1   106.5500460 417.563200
   3422   3412   3424     1   110.5600475 386.601600
   3422   3412   3423     1   109.7500473 328.025600
   3423   3412   3424     1   110.5600475 386.601600
   3425   3424   3427     1   108.7700466 392.459200
   3425   3424   3426     1   107.5800459 329.699200
   3426   3424   3427     1   108.7700466 392.459200
   3427   3429   3431     1   106.5500460 417.563200
   3433   3435   3436     1   108.8800464 416.726400
   3433   3435   3438     1   108.8800464 416.726400
   3434   3433   3435     1   117.6800502 383.254400
   3435   3437   3439     1   110.5600475 386.601600
   3435   3437   3440     1   110.5600475 386.601600
   3436   3435   3437     1   109.5600471 388.275200
   3436   3435   3438     1   108.4600466 328.025600
   3437   3441   3462     1   110.1100470 384.091200
   3437   3435   3438     1   109.5600471 388.275200
   3439   3437   3441     1   108.0100461 406.684800
   3439   3437   3440     1   109.7500473 328.025600
   3440   3437   3441     1   108.0100461 406.684800
   3441   3442   3452     1   108.0100461 406.684800
   3441   3442   3453     1   108.0100461 406.684800
   3441   3443   3444     1   108.0100461 406.684800
   3441   3443   3446     1   108.0100461 406.684800
   3442   3454   3455     1   109.8000471 387.438400
   3442   3454   3456     1   109.8000471 387.438400
   3442   3441   3462     1   110.1100470 384.091200
   3443   3445   3447     1   109.8000471 387.438400
   3443   3445   3448     1   109.8000471 387.438400
   3443   3441   3462     1   110.1100470 384.091200
   3444   3443   3445     1   110.5600475 386.601600
   3444   3443   3446     1   109.7500473 328.025600
   3445   3443   3446     1   110.5600475 386.601600
   3447   3445   3449     1   108.7700466 392.459200
   3447   3445   3448     1   107.5800459 329.699200
   3448   3445   3449     1   108.7700466 392.459200
   3449   3450   3460     1   106.5500460 417.563200
   3452   3442   3454     1   110.5600475 386.601600
   3452   3442   3453     1   109.7500473 328.025600
   3453   3442   3454     1   110.5600475 386.601600
   3455   3454   3457     1   108.7700466 392.459200
   3455   3454   3456     1   107.5800459 329.699200
   3456   3454   3457     1   108.7700466 392.459200
   3457   3459   3461     1   106.5500460 417.563200
   3463   3465   3466     1   108.8800464 416.726400
   3463   3465   3468     1   108.8800464 416.726400
   3464   3463   3465     1   117.6800502 383.254400
   3465   3467   3469     1   110.5600475 386.601600
   3465   3467   3470     1   110.5600475 386.601600
   3466   3465   3467     1   109.5600471 388.275200
   3466   3465   3468     1   108.4600466 328.025600
   3467   3465   3468     1   109.5600471 388.275200
   3467   3471   3492     1   110.1100470 384.091200
   3469   3467   3471     1   108.0100461 406.684800
   3469   3467   3470     1   109.7500473 328.025600
   3470   3467   3471     1   108.0100461 406.684800
   3471   3472   3482     1   108.0100461 406.684800
   3471   3472   3483     1   108.0100461 406.684800
   3471   3473   3474     1   108.0100461 406.684800
   3471   3473   3476     1   108.0100461 406.684800
   3472   3471   3492     1   110.1100470 384.091200
   3472   3484   3485     1   109.8000471 387.438400
   3472   3484   3486     1   109.8000471 387.438400
   3473   3471   3492     1   110.1100470 384.091200
   3473   3475   3477     1   109.8000471 387.438400
   3473   3475   3478     1   109.8000471 387.438400
   3474   3473   3475     1   110.5600475 386.601600
   3474   3473   3476     1   109.7500473 328.025600
   3475   3473   3476     1   110.5600475 386.601600
   3477   3475   3479     1   108.7700466 392.459200
   3477   3475   3478     1   107.5800459 329.699200
   3478   3475   3479     1   108.7700466 392.459200
   3479   3480   3490     1   106.5500460 417.563200
   3482   3472   3484     1   110.5600475 386.601600
   3482   3472   3483     1   109.7500473 328.025600
   3483   3472   3484     1   110.5600475 386.601600
   3485   3484   3487     1   108.7700466 392.459200
   3485   3484   3486     1   107.5800459 329.699200
   3486   3484   3487     1   108.7700466 392.459200
   3487   3489   3491     1   106.5500460 417.563200
   3493   3495   3496     1   108.8800464 416.726400
   3493   3495   3498     1   108.8800464 416.726400
   3494   3493   3495     1   117.6800502 383.254400
   3495   3497   3499     1   110.5600475 386.601600
   3495   3497   3500     1   110.5600475 386.601600
   3496   3495   3497     1   109.5600471 388.275200
   3496   3495   3498     1   108.4600466 328.025600
   3497   3501   3522     1   110.1100470 384.091200
   3497   3495   3498     1   109.5600471 388.275200
   3499   3497   3501     1   108.0100461 406.684800
   3499   3497   3500     1   109.7500473 328.025600
   3500   3497   3501     1   108.0100461 406.684800
   3501   3502   3512     1   108.0100461 406.684800
   3501   3502   3513     1   108.0100461 406.684800
   3501   3503   3504     1   108.0100461 406.684800
   3501   3503   3506     1   108.0100461 406.684800
   3502   3514   3515     1   109.8000471 387.438400
   3502   3514   3516     1   109.8000471 387.438400
   3502   3501   3522     1   110.1100470 384.091200
   3503   3505   3507     1   109.8000471 387.438400
   3503   3505   3508     1   109.8000471 387.438400
   3503   3501   3522     1   110.1100470 384.091200
   3504   3503   3505     1   110.5600475 386.601600
   3504   3503   3506     1   109.7500473 328.025600
   3505   3503   3506     1   110.5600475 386.601600
   3507   3505   3509     1   108.7700466 392.459200
   3507   3505   3508     1   107.5800459 329.699200
   3508   3505   3509     1   108.7700466 392.459200
   3509   3510   3520     1   106.5500460 417.563200
   3512   3502   3514     1   110.5600475 386.601600
   3512   3502   3513     1   109.7500473 328.025600
   3513   3502   3514     1   110.5600475 386.601600
   3515   3514   3517     1   108.7700466 392.459200
   3515   3514   3516     1   107.5800459 329.699200
   3516   3514   3517     1   108.7700466 392.459200
   3517   3519   3521     1   106.5500460 417.563200

[ dihedrals ]
;    ai     aj     ak     al funct         c0         c1         c2         c3         c4         c5
      1      2      3      4     1  0.0000000  0.6508444  3
      1      7     13     14     1  0.0000000  0.6508444  3
      1      8     15     16     1  0.0000000  0.6508444  3
      2      1      7     13     1  0.0000000  0.6508444  3
      2      1      8     15     1  0.0000000  0.6508444  3
      2      3      4      5     1  0.0000000  0.6508444  3
      2      3      4      6     1  0.0000000  0.6508444  3
      7      1      2      3     1  0.0000000  0.6508444  3
      8      1      2      3     1  0.0000000  0.6508444  3
      3      4      5     11     1  0.0000000  0.6508444  3
      3      4      6      9     1  0.0000000  0.6508444  3
      4      5     11     12     1  0.0000000  0.6508444  3
      4      6      9     10     1  0.0000000  0.6508444  3
      5      4      6      9     1  0.0000000  0.6508444  3
      5     11     12     17     1  180.0000771  0.0000000  2
      5     11     12     78     1  0.0000000  0.2928800  2
      5     11     12     78     1  0.0000000  0.4184000  4
      6      4      5     11     1  0.0000000  0.6508444  3
      6      9     10     18     1  180.0000771  0.0000000  2
      6      9     10     52     1  0.0000000  0.2928800  2
      6      9     10     52     1  0.0000000  0.4184000  4
      7      1      8     15     1  0.0000000  0.6508444  3
      7     13     14     20     1  180.0000771  0.0000000  2
      7     13     14    104     1  0.0000000  0.2928800  2
      7     13     14    104     1  0.0000000  0.4184000  4
      8      1      7     13     1  0.0000000  0.6508444  3
      8     15     16     19     1  180.0000771  0.0000000  2
      8     15     16    130     1  0.0000000  0.2928800  2
      8     15     16    130     1  0.0000000  0.4184000  4
      9     10     52     51     1  180.0000771  6.2760000  1
      9     10     52     51     1  0.0000000  0.0000000  2
     10     52     51     50     1  0.0000000  2.2175200  1
     10     52     51     50     1  0.0000000  0.0000000  2
     10     52     51     50     1  180.0000771  0.6276000  3
     10     52     51     50     1  180.0000771  2.0920000  4
     11     12     78     77     1  180.0000771  6.2760000  1
     11     12     78     77     1  0.0000000  0.0000000  2
     12     78     77     76     1  0.0000000  2.2175200  1
     12     78     77     76     1  0.0000000  0.0000000  2
     12     78     77     76     1  180.0000771  0.6276000  3
     12     78     77     76     1  180.0000771  2.0920000  4
     13     14    104    103     1  180.0000771  6.2760000  1
     13     14    104    103     1  0.0000000  0.0000000  2
     14    104    103    102     1  0.0000000  2.2175200  1
     14    104    103    102     1  0.0000000  0.0000000  2
     14    104    103    102     1  180.0000771  0.6276000  3
     14    104    103    102     1  180.0000771  2.0920000  4
     15     16    130    129     1  180.0000771  6.2760000  1
     15     16    130    129     1  0.0000000  0.0000000  2
     16    130    129    128     1  0.0000000  2.2175200  1
     16    130    129    128     1  0.0000000  0.0000000  2
     16    130    129    128     1  180.0000771  0.6276000  3
     16    130    129    128     1  180.0000771  2.0920000  4
     17     12     78     77     1  180.0000771  10.4600000  2
     18     10     52     51     1  180.0000771  10.4600000  2
     19     16    130    129     1  180.0000771  10.4600000  2
     20     14    104    103     1  180.0000771  10.4600000  2
     43     44     46     47     1  0.0000000  0.6508444  3
     43     45     48     49     1  0.0000000  0.6508444  3
     43     50     51     52     1  0.0000000  0.6508444  3
     44     43     45     48     1  0.0000000  0.6508444  3
     44     43     50     51     1  0.0000000  0.6508444  3
     44     46     47     53     1  180.0000771  0.0000000  2
     44     46     47    156     1  0.0000000  0.2928800  2
     44     46     47    156     1  0.0000000  0.4184000  4
     45     43     44     46     1  0.0000000  0.6508444  3
     45     43     50     51     1  0.0000000  0.6508444  3
     45     48     49     54     1  180.0000771  0.0000000  2
     45     48     49    182     1  0.0000000  0.2928800  2
     45     48     49    182     1  0.0000000  0.4184000  4
     46     44     43     50     1  0.0000000  0.6508444  3
     46     47    156    155     1  180.0000771  6.2760000  1
     46     47    156    155     1  0.0000000  0.0000000  2
     47    156    155    154     1  0.0000000  2.2175200  1
     47    156    155    154     1  0.0000000  0.0000000  2
     47    156    155    154     1  180.0000771  0.6276000  3
     47    156    155    154     1  180.0000771  2.0920000  4
     48     45     43     50     1  0.0000000  0.6508444  3
     48     49    182    181     1  180.0000771  6.2760000  1
     48     49    182    181     1  0.0000000  0.0000000  2
     49    182    181    180     1  0.0000000  2.2175200  1
     49    182    181    180     1  0.0000000  0.0000000  2
     49    182    181    180     1  180.0000771  0.6276000  3
     49    182    181    180     1  180.0000771  2.0920000  4
     53     47    156    155     1  180.0000771  10.4600000  2
     54     49    182    181     1  180.0000771  10.4600000  2
     69     70     72     73     1  0.0000000  0.6508444  3
     69     71     74     75     1  0.0000000  0.6508444  3
     69     76     77     78     1  0.0000000  0.6508444  3
     70     69     71     74     1  0.0000000  0.6508444  3
     70     69     76     77     1  0.0000000  0.6508444  3
     70     72     73     79     1  180.0000771  0.0000000  2
     70     72     73    208     1  0.0000000  0.2928800  2
     70     72     73    208     1  0.0000000  0.4184000  4
     71     69     70     72     1  0.0000000  0.6508444  3
     71     69     76     77     1  0.0000000  0.6508444  3
     71     74     75     80     1  180.0000771  0.0000000  2
     71     74     75    234     1  0.0000000  0.2928800  2
     71     74     75    234     1  0.0000000  0.4184000  4
     72     70     69     76     1  0.0000000  0.6508444  3
     72     73    208    207     1  180.0000771  6.2760000  1
     72     73    208    207     1  0.0000000  0.0000000  2
     73    208    207    206     1  0.0000000  2.2175200  1
     73    208    207    206     1  0.0000000  0.0000000  2
     73    208    207    206     1  180.0000771  0.6276000  3
     73    208    207    206     1  180.0000771  2.0920000  4
     74     71     69     76     1  0.0000000  0.6508444  3
     74     75    234    233     1  180.0000771  6.2760000  1
     74     75    234    233     1  0.0000000  0.0000000  2
     75    234    233    232     1  0.0000000  2.2175200  1
     75    234    233    232     1  0.0000000  0.0000000  2
     75    234    233    232     1  180.0000771  0.6276000  3
     75    234    233    232     1  180.0000771  2.0920000  4
     79     73    208    207     1  180.0000771  10.4600000  2
     80     75    234    233     1  180.0000771  10.4600000  2
     95     96     98     99     1  0.0000000  0.6508444  3
     95     97    100    101     1  0.0000000  0.6508444  3
     95    102    103    104     1  0.0000000  0.6508444  3
     96     95     97    100     1  0.0000000  0.6508444  3
     96     95    102    103     1  0.0000000  0.6508444  3
     96     98     99    105     1  180.0000771  0.0000000  2
     96     98     99    260     1  0.0000000  0.2928800  2
     96     98     99    260     1  0.0000000  0.4184000  4
     97     95     96     98     1  0.0000000  0.6508444  3
     97     95    102    103     1  0.0000000  0.6508444  3
     97    100    101    106     1  180.0000771  0.0000000  2
     97    100    101    286     1  0.0000000  0.2928800  2
     97    100    101    286     1  0.0000000  0.4184000  4
     98     96     95    102     1  0.0000000  0.6508444  3
     98     99    260    259     1  180.0000771  6.2760000  1
     98     99    260    259     1  0.0000000  0.0000000  2
     99    260    259    258     1  0.0000000  2.2175200  1
     99    260    259    258     1  0.0000000  0.0000000  2
     99    260    259    258     1  180.0000771  0.6276000  3
     99    260    259    258     1  180.0000771  2.0920000  4
    100     97     95    102     1  0.0000000  0.6508444  3
    100    101    286    285     1  180.0000771  6.2760000  1
    100    101    286    285     1  0.0000000  0.0000000  2
    101    286    285    284     1  0.0000000  2.2175200  1
    101    286    285    284     1  0.0000000  0.0000000  2
    101    286    285    284     1  180.0000771  0.6276000  3
    101    286    285    284     1  180.0000771  2.0920000  4
    105     99    260    259     1  180.0000771  10.4600000  2
    106    101    286    285     1  180.0000771  10.4600000  2
    121    122    124    125     1  0.0000000  0.6508444  3
    121    123    126    127     1  0.0000000  0.6508444  3
    121    128    129    130     1  0.0000000  0.6508444  3
    122    121    123    126     1  0.0000000  0.6508444  3
    122    121    128    129     1  0.0000000  0.6508444  3
    122    124    125    131     1  180.0000771  0.0000000  2
    122    124    125    312     1  0.0000000  0.2928800  2
    122    124    125    312     1  0.0000000  0.4184000  4
    123    121    122    124     1  0.0000000  0.6508444  3
    123    121    128    129     1  0.0000000  0.6508444  3
    123    126    127    132     1  180.0000771  0.0000000  2
    123    126    127    338     1  0.0000000  0.2928800  2
    123    126    127    338     1  0.0000000  0.4184000  4
    124    122    121    128     1  0.0000000  0.6508444  3
    124    125    312    311     1  180.0000771  6.2760000  1
    124    125    312    311     1  0.0000000  0.0000000  2
    125    312    311    310     1  0.0000000  2.2175200  1
    125    312    311    310     1  0.0000000  0.0000000  2
    125    312    311    310     1  180.0000771  0.6276000  3
    125    312    311    310     1  180.0000771  2.0920000  4
    126    123    121    128     1  0.0000000  0.6508444  3
    126    127    338    337     1  180.0000771  6.2760000  1
    126    127    338    337     1  0.0000000  0.0000000  2
    127    338    337    336     1  0.0000000  2.2175200  1
    127    338    337    336     1  0.0000000  0.0000000  2
    127    338    337    336     1  180.0000771  0.6276000  3
    127    338    337    336     1  180.0000771  2.0920000  4
    131    125    312    311     1  180.0000771  10.4600000  2
    132    127    338    337     1  180.0000771  10.4600000  2
    147    148    150    151     1  0.0000000  0.6508444  3
    147    149    152    153     1  0.0000000  0.6508444  3
    147    154    155    156     1  0.0000000  0.6508444  3
    148    147    149    152     1  0.0000000  0.6508444  3
    148    147    154    155     1  0.0000000  0.6508444  3
    148    150    151    157     1  180.0000771  0.0000000  2
    148    150    151    364     1  0.0000000  0.2928800  2
    148    150    151    364     1  0.0000000  0.4184000  4
    149    147    148    150     1  0.0000000  0.6508444  3
    149    147    154    155     1  0.0000000  0.6508444  3
    149    152    153    158     1  180.0000771  0.0000000  2
    149    152    153    390     1  0.0000000  0.2928800  2
    149    152    153    390     1  0.0000000  0.4184000  4
    150    148    147    154     1  0.0000000  0.6508444  3
    150    151    364    363     1  180.0000771  6.2760000  1
    150    151    364    363     1  0.0000000  0.0000000  2
    151    364    363    362     1  0.0000000  2.2175200  1
    151    364    363    362     1  0.0000000  0.0000000  2
    151    364    363    362     1  180.0000771  0.6276000  3
    151    364    363    362     1  180.0000771  2.0920000  4
    152    149    147    154     1  0.0000000  0.6508444  3
    152    153    390    389     1  180.0000771  6.2760000  1
    152    153    390    389     1  0.0000000  0.0000000  2
    153    390    389    388     1  0.0000000  2.2175200  1
    153    390    389    388     1  0.0000000  0.0000000  2
    153    390    389    388     1  180.0000771  0.6276000  3
    153    390    389    388     1  180.0000771  2.0920000  4
    157    151    364    363     1  180.0000771  10.4600000  2
    158    153    390    389     1  180.0000771  10.4600000  2
    173    174    176    177     1  0.0000000  0.6508444  3
    173    175    178    179     1  0.0000000  0.6508444  3
    173    180    181    182     1  0.0000000  0.6508444  3
    174    173    175    178     1  0.0000000  0.6508444  3
    174    173    180    181     1  0.0000000  0.6508444  3
    174    176    177    183     1  180.0000771  0.0000000  2
    174    176    177    416     1  0.0000000  0.2928800  2
    174    176    177    416     1  0.0000000  0.4184000  4
    175    173    174    176     1  0.0000000  0.6508444  3
    175    173    180    181     1  0.0000000  0.6508444  3
    175    178    179    184     1  180.0000771  0.0000000  2
    175    178    179    442     1  0.0000000  0.2928800  2
    175    178    179    442     1  0.0000000  0.4184000  4
    176    174    173    180     1  0.0000000  0.6508444  3
    176    177    416    415     1  180.0000771  6.2760000  1
    176    177    416    415     1  0.0000000  0.0000000  2
    177    416    415    414     1  0.0000000  2.2175200  1
    177    416    415    414     1  0.0000000  0.0000000  2
    177    416    415    414     1  180.0000771  0.6276000  3
    177    416    415    414     1  180.0000771  2.0920000  4
    178    175    173    180     1  0.0000000  0.6508444  3
    178    179    442    441     1  180.0000771  6.2760000  1
    178    179    442    441     1  0.0000000  0.0000000  2
    179    442    441    440     1  0.0000000  2.2175200  1
    179    442    441    440     1  0.0000000  0.0000000  2
    179    442    441    440     1  180.0000771  0.6276000  3
    179    442    441    440     1  180.0000771  2.0920000  4
    183    177    416    415     1  180.0000771  10.4600000  2
    184    179    442    441     1  180.0000771  10.4600000  2
    199    200    202    203     1  0.0000000  0.6508444  3
    199    201    204    205     1  0.0000000  0.6508444  3
    199    206    207    208     1  0.0000000  0.6508444  3
    200    199    201    204     1  0.0000000  0.6508444  3
    200    199    206    207     1  0.0000000  0.6508444  3
    200    202    203    209     1  180.0000771  0.0000000  2
    200    202    203    468     1  0.0000000  0.2928800  2
    200    202    203    468     1  0.0000000  0.4184000  4
    201    199    200    202     1  0.0000000  0.6508444  3
    201    199    206    207     1  0.0000000  0.6508444  3
    201    204    205    210     1  180.0000771  0.0000000  2
    201    204    205    494     1  0.0000000  0.2928800  2
    201    204    205    494     1  0.0000000  0.4184000  4
    202    200    199    206     1  0.0000000  0.6508444  3
    202    203    468    467     1  180.0000771  6.2760000  1
    202    203    468    467     1  0.0000000  0.0000000  2
    203    468    467    466     1  0.0000000  2.2175200  1
    203    468    467    466     1  0.0000000  0.0000000  2
    203    468    467    466     1  180.0000771  0.6276000  3
    203    468    467    466     1  180.0000771  2.0920000  4
    204    201    199    206     1  0.0000000  0.6508444  3
    204    205    494    493     1  180.0000771  6.2760000  1
    204    205    494    493     1  0.0000000  0.0000000  2
    205    494    493    492     1  0.0000000  2.2175200  1
    205    494    493    492     1  0.0000000  0.0000000  2
    205    494    493    492     1  180.0000771  0.6276000  3
    205    494    493    492     1  180.0000771  2.0920000  4
    209    203    468    467     1  180.0000771  10.4600000  2
    210    205    494    493     1  180.0000771  10.4600000  2
    225    226    228    229     1  0.0000000  0.6508444  3
    225    227    230    231     1  0.0000000  0.6508444  3
    225    232    233    234     1  0.0000000  0.6508444  3
    226    225    227    230     1  0.0000000  0.6508444  3
    226    225    232    233     1  0.0000000  0.6508444  3
    226    228    229    235     1  180.0000771  0.0000000  2
    226    228    229    520     1  0.0000000  0.2928800  2
    226    228    229    520     1  0.0000000  0.4184000  4
    227    225    226    228     1  0.0000000  0.6508444  3
    227    225    232    233     1  0.0000000  0.6508444  3
    227    230    231    236     1  180.0000771  0.0000000  2
    227    230    231    546     1  0.0000000  0.2928800  2
    227    230    231    546     1  0.0000000  0.4184000  4
    228    226    225    232     1  0.0000000  0.6508444  3
    228    229    520    519     1  180.0000771  6.2760000  1
    228    229    520    519     1  0.0000000  0.0000000  2
    229    520    519    518     1  0.0000000  2.2175200  1
    229    520    519    518     1  0.0000000  0.0000000  2
    229    520    519    518     1  180.0000771  0.6276000  3
    229    520    519    518     1  180.0000771  2.0920000  4
    230    227    225    232     1  0.0000000  0.6508444  3
    230    231    546    545     1  180.0000771  6.2760000  1
    230    231    546    545     1  0.0000000  0.0000000  2
    231    546    545    544     1  0.0000000  2.2175200  1
    231    546    545    544     1  0.0000000  0.0000000  2
    231    546    545    544     1  180.0000771  0.6276000  3
    231    546    545    544     1  180.0000771  2.0920000  4
    235    229    520    519     1  180.0000771  10.4600000  2
    236    231    546    545     1  180.0000771  10.4600000  2
    251    252    254    255     1  0.0000000  0.6508444  3
    251    253    256    257     1  0.0000000  0.6508444  3
    251    258    259    260     1  0.0000000  0.6508444  3
    252    251    253    256     1  0.0000000  0.6508444  3
    252    251    258    259     1  0.0000000  0.6508444  3
    252    254    255    261     1  180.0000771  0.0000000  2
    252    254    255    572     1  0.0000000  0.2928800  2
    252    254    255    572     1  0.0000000  0.4184000  4
    253    251    252    254     1  0.0000000  0.6508444  3
    253    251    258    259     1  0.0000000  0.6508444  3
    253    256    257    262     1  180.0000771  0.0000000  2
    253    256    257    598     1  0.0000000  0.2928800  2
    253    256    257    598     1  0.0000000  0.4184000  4
    254    252    251    258     1  0.0000000  0.6508444  3
    254    255    572    571     1  180.0000771  6.2760000  1
    254    255    572    571     1  0.0000000  0.0000000  2
    255    572    571    570     1  0.0000000  2.2175200  1
    255    572    571    570     1  0.0000000  0.0000000  2
    255    572    571    570     1  180.0000771  0.6276000  3
    255    572    571    570     1  180.0000771  2.0920000  4
    256    253    251    258     1  0.0000000  0.6508444  3
    256    257    598    597     1  180.0000771  6.2760000  1
    256    257    598    597     1  0.0000000  0.0000000  2
    257    598    597    596     1  0.0000000  2.2175200  1
    257    598    597    596     1  0.0000000  0.0000000  2
    257    598    597    596     1  180.0000771  0.6276000  3
    257    598    597    596     1  180.0000771  2.0920000  4
    261    255    572    571     1  180.0000771  10.4600000  2
    262    257    598    597     1  180.0000771  10.4600000  2
    277    278    280    281     1  0.0000000  0.6508444  3
    277    279    282    283     1  0.0000000  0.6508444  3
    277    284    285    286     1  0.0000000  0.6508444  3
    278    277    279    282     1  0.0000000  0.6508444  3
    278    277    284    285     1  0.0000000  0.6508444  3
    278    280    281    287     1  180.0000771  0.0000000  2
    278    280    281    624     1  0.0000000  0.2928800  2
    278    280    281    624     1  0.0000000  0.4184000  4
    279    277    278    280     1  0.0000000  0.6508444  3
    279    277    284    285     1  0.0000000  0.6508444  3
    279    282    283    288     1  180.0000771  0.0000000  2
    279    282    283    650     1  0.0000000  0.2928800  2
    279    282    283    650     1  0.0000000  0.4184000  4
    280    278    277    284     1  0.0000000  0.6508444  3
    280    281    624    623     1  180.0000771  6.2760000  1
    280    281    624    623     1  0.0000000  0.0000000  2
    281    624    623    622     1  0.0000000  2.2175200  1
    281    624    623    622     1  0.0000000  0.0000000  2
    281    624    623    622     1  180.0000771  0.6276000  3
    281    624    623    622     1  180.0000771  2.0920000  4
    282    279    277    284     1  0.0000000  0.6508444  3
    282    283    650    649     1  180.0000771  6.2760000  1
    282    283    650    649     1  0.0000000  0.0000000  2
    283    650    649    648     1  0.0000000  2.2175200  1
    283    650    649    648     1  0.0000000  0.0000000  2
    283    650    649    648     1  180.0000771  0.6276000  3
    283    650    649    648     1  180.0000771  2.0920000  4
    287    281    624    623     1  180.0000771  10.4600000  2
    288    283    650    649     1  180.0000771  10.4600000  2
    303    304    306    307     1  0.0000000  0.6508444  3
    303    305    308    309     1  0.0000000  0.6508444  3
    303    310    311    312     1  0.0000000  0.6508444  3
    304    303    305    308     1  0.0000000  0.6508444  3
    304    303    310    311     1  0.0000000  0.6508444  3
    304    306    307    313     1  180.0000771  0.0000000  2
    304    306    307    676     1  0.0000000  0.2928800  2
    304    306    307    676     1  0.0000000  0.4184000  4
    305    303    304    306     1  0.0000000  0.6508444  3
    305    303    310    311     1  0.0000000  0.6508444  3
    305    308    309    314     1  180.0000771  0.0000000  2
    305    308    309    702     1  0.0000000  0.2928800  2
    305    308    309    702     1  0.0000000  0.4184000  4
    306    304    303    310     1  0.0000000  0.6508444  3
    306    307    676    675     1  180.0000771  6.2760000  1
    306    307    676    675     1  0.0000000  0.0000000  2
    307    676    675    674     1  0.0000000  2.2175200  1
    307    676    675    674     1  0.0000000  0.0000000  2
    307    676    675    674     1  180.0000771  0.6276000  3
    307    676    675    674     1  180.0000771  2.0920000  4
    308    305    303    310     1  0.0000000  0.6508444  3
    308    309    702    701     1  180.0000771  6.2760000  1
    308    309    702    701     1  0.0000000  0.0000000  2
    309    702    701    700     1  0.0000000  2.2175200  1
    309    702    701    700     1  0.0000000  0.0000000  2
    309    702    701    700     1  180.0000771  0.6276000  3
    309    702    701    700     1  180.0000771  2.0920000  4
    313    307    676    675     1  180.0000771  10.4600000  2
    314    309    702    701     1  180.0000771  10.4600000  2
    329    330    332    333     1  0.0000000  0.6508444  3
    329    331    334    335     1  0.0000000  0.6508444  3
    329    336    337    338     1  0.0000000  0.6508444  3
    330    329    331    334     1  0.0000000  0.6508444  3
    330    329    336    337     1  0.0000000  0.6508444  3
    330    332    333    339     1  180.0000771  0.0000000  2
    330    332    333    728     1  0.0000000  0.2928800  2
    330    332    333    728     1  0.0000000  0.4184000  4
    331    329    330    332     1  0.0000000  0.6508444  3
    331    329    336    337     1  0.0000000  0.6508444  3
    331    334    335    340     1  180.0000771  0.0000000  2
    331    334    335    754     1  0.0000000  0.2928800  2
    331    334    335    754     1  0.0000000  0.4184000  4
    332    330    329    336     1  0.0000000  0.6508444  3
    332    333    728    727     1  180.0000771  6.2760000  1
    332    333    728    727     1  0.0000000  0.0000000  2
    333    728    727    726     1  0.0000000  2.2175200  1
    333    728    727    726     1  0.0000000  0.0000000  2
    333    728    727    726     1  180.0000771  0.6276000  3
    333    728    727    726     1  180.0000771  2.0920000  4
    334    331    329    336     1  0.0000000  0.6508444  3
    334    335    754    753     1  180.0000771  6.2760000  1
    334    335    754    753     1  0.0000000  0.0000000  2
    335    754    753    752     1  0.0000000  2.2175200  1
    335    754    753    752     1  0.0000000  0.0000000  2
    335    754    753    752     1  180.0000771  0.6276000  3
    335    754    753    752     1  180.0000771  2.0920000  4
    339    333    728    727     1  180.0000771  10.4600000  2
    340    335    754    753     1  180.0000771  10.4600000  2
    355    356    358    359     1  0.0000000  0.6508444  3
    355    357    360    361     1  0.0000000  0.6508444  3
    355    362    363    364     1  0.0000000  0.6508444  3
    356    355    357    360     1  0.0000000  0.6508444  3
    356    355    362    363     1  0.0000000  0.6508444  3
    356    358    359    365     1  180.0000771  0.0000000  2
    356    358    359    780     1  0.0000000  0.2928800  2
    356    358    359    780     1  0.0000000  0.4184000  4
    357    355    356    358     1  0.0000000  0.6508444  3
    357    355    362    363     1  0.0000000  0.6508444  3
    357    360    361    366     1  180.0000771  0.0000000  2
    357    360    361    806     1  0.0000000  0.2928800  2
    357    360    361    806     1  0.0000000  0.4184000  4
    358    356    355    362     1  0.0000000  0.6508444  3
    358    359    780    779     1  180.0000771  6.2760000  1
    358    359    780    779     1  0.0000000  0.0000000  2
    359    780    779    778     1  0.0000000  2.2175200  1
    359    780    779    778     1  0.0000000  0.0000000  2
    359    780    779    778     1  180.0000771  0.6276000  3
    359    780    779    778     1  180.0000771  2.0920000  4
    360    357    355    362     1  0.0000000  0.6508444  3
    360    361    806    805     1  180.0000771  6.2760000  1
    360    361    806    805     1  0.0000000  0.0000000  2
    361    806    805    804     1  0.0000000  2.2175200  1
    361    806    805    804     1  0.0000000  0.0000000  2
    361    806    805    804     1  180.0000771  0.6276000  3
    361    806    805    804     1  180.0000771  2.0920000  4
    365    359    780    779     1  180.0000771  10.4600000  2
    366    361    806    805     1  180.0000771  10.4600000  2
    381    382    384    385     1  0.0000000  0.6508444  3
    381    383    386    387     1  0.0000000  0.6508444  3
    381    388    389    390     1  0.0000000  0.6508444  3
    382    381    383    386     1  0.0000000  0.6508444  3
    382    381    388    389     1  0.0000000  0.6508444  3
    382    384    385    391     1  180.0000771  0.0000000  2
    382    384    385    832     1  0.0000000  0.2928800  2
    382    384    385    832     1  0.0000000  0.4184000  4
    383    381    382    384     1  0.0000000  0.6508444  3
    383    381    388    389     1  0.0000000  0.6508444  3
    383    386    387    392     1  180.0000771  0.0000000  2
    383    386    387    858     1  0.0000000  0.2928800  2
    383    386    387    858     1  0.0000000  0.4184000  4
    384    382    381    388     1  0.0000000  0.6508444  3
    384    385    832    831     1  180.0000771  6.2760000  1
    384    385    832    831     1  0.0000000  0.0000000  2
    385    832    831    830     1  0.0000000  2.2175200  1
    385    832    831    830     1  0.0000000  0.0000000  2
    385    832    831    830     1  180.0000771  0.6276000  3
    385    832    831    830     1  180.0000771  2.0920000  4
    386    383    381    388     1  0.0000000  0.6508444  3
    386    387    858    857     1  180.0000771  6.2760000  1
    386    387    858    857     1  0.0000000  0.0000000  2
    387    858    857    856     1  0.0000000  2.2175200  1
    387    858    857    856     1  0.0000000  0.0000000  2
    387    858    857    856     1  180.0000771  0.6276000  3
    387    858    857    856     1  180.0000771  2.0920000  4
    391    385    832    831     1  180.0000771  10.4600000  2
    392    387    858    857     1  180.0000771  10.4600000  2
    407    408    410    411     1  0.0000000  0.6508444  3
    407    409    412    413     1  0.0000000  0.6508444  3
    407    414    415    416     1  0.0000000  0.6508444  3
    408    407    409    412     1  0.0000000  0.6508444  3
    408    407    414    415     1  0.0000000  0.6508444  3
    408    410    411    417     1  180.0000771  0.0000000  2
    408    410    411    884     1  0.0000000  0.2928800  2
    408    410    411    884     1  0.0000000  0.4184000  4
    409    407    408    410     1  0.0000000  0.6508444  3
    409    407    414    415     1  0.0000000  0.6508444  3
    409    412    413    418     1  180.0000771  0.0000000  2
    409    412    413    910     1  0.0000000  0.2928800  2
    409    412    413    910     1  0.0000000  0.4184000  4
    410    408    407    414     1  0.0000000  0.6508444  3
    410    411    884    883     1  180.0000771  6.2760000  1
    410    411    884    883     1  0.0000000  0.0000000  2
    411    884    883    882     1  0.0000000  2.2175200  1
    411    884    883    882     1  0.0000000  0.0000000  2
    411    884    883    882     1  180.0000771  0.6276000  3
    411    884    883    882     1  180.0000771  2.0920000  4
    412    409    407    414     1  0.0000000  0.6508444  3
    412    413    910    909     1  180.0000771  6.2760000  1
    412    413    910    909     1  0.0000000  0.0000000  2
    413    910    909    908     1  0.0000000  2.2175200  1
    413    910    909    908     1  0.0000000  0.0000000  2
    413    910    909    908     1  180.0000771  0.6276000  3
    413    910    909    908     1  180.0000771  2.0920000  4
    417    411    884    883     1  180.0000771  10.4600000  2
    418    413    910    909     1  180.0000771  10.4600000  2
    433    434    436    437     1  0.0000000  0.6508444  3
    433    435    438    439     1  0.0000000  0.6508444  3
    433    440    441    442     1  0.0000000  0.6508444  3
    434    433    435    438     1  0.0000000  0.6508444  3
    434    433    440    441     1  0.0000000  0.6508444  3
    434    436    437    443     1  180.0000771  0.0000000  2
    434    436    437    936     1  0.0000000  0.2928800  2
    434    436    437    936     1  0.0000000  0.4184000  4
    435    433    434    436     1  0.0000000  0.6508444  3
    435    433    440    441     1  0.0000000  0.6508444  3
    435    438    439    444     1  180.0000771  0.0000000  2
    435    438    439    962     1  0.0000000  0.2928800  2
    435    438    439    962     1  0.0000000  0.4184000  4
    436    434    433    440     1  0.0000000  0.6508444  3
    436    437    936    935     1  180.0000771  6.2760000  1
    436    437    936    935     1  0.0000000  0.0000000  2
    437    936    935    934     1  0.0000000  2.2175200  1
    437    936    935    934     1  0.0000000  0.0000000  2
    437    936    935    934     1  180.0000771  0.6276000  3
    437    936    935    934     1  180.0000771  2.0920000  4
    438    435    433    440     1  0.0000000  0.6508444  3
    438    439    962    961     1  180.0000771  6.2760000  1
    438    439    962    961     1  0.0000000  0.0000000  2
    439    962    961    960     1  0.0000000  2.2175200  1
    439    962    961    960     1  0.0000000  0.0000000  2
    439    962    961    960     1  180.0000771  0.6276000  3
    439    962    961    960     1  180.0000771  2.0920000  4
    443    437    936    935     1  180.0000771  10.4600000  2
    444    439    962    961     1  180.0000771  10.4600000  2
    459    460    462    463     1  0.0000000  0.6508444  3
    459    461    464    465     1  0.0000000  0.6508444  3
    459    466    467    468     1  0.0000000  0.6508444  3
    460    459    461    464     1  0.0000000  0.6508444  3
    460    459    466    467     1  0.0000000  0.6508444  3
    460    462    463    469     1  180.0000771  0.0000000  2
    460    462    463    988     1  0.0000000  0.2928800  2
    460    462    463    988     1  0.0000000  0.4184000  4
    461    459    460    462     1  0.0000000  0.6508444  3
    461    459    466    467     1  0.0000000  0.6508444  3
    461    464    465    470     1  180.0000771  0.0000000  2
    461    464    465   1014     1  0.0000000  0.2928800  2
    461    464    465   1014     1  0.0000000  0.4184000  4
    462    460    459    466     1  0.0000000  0.6508444  3
    462    463    988    987     1  180.0000771  6.2760000  1
    462    463    988    987     1  0.0000000  0.0000000  2
    463    988    987    986     1  0.0000000  2.2175200  1
    463    988    987    986     1  0.0000000  0.0000000  2
    463    988    987    986     1  180.0000771  0.6276000  3
    463    988    987    986     1  180.0000771  2.0920000  4
    464    461    459    466     1  0.0000000  0.6508444  3
    464    465   1014   1013     1  180.0000771  6.2760000  1
    464    465   1014   1013     1  0.0000000  0.0000000  2
    465   1014   1013   1012     1  0.0000000  2.2175200  1
    465   1014   1013   1012     1  0.0000000  0.0000000  2
    465   1014   1013   1012     1  180.0000771  0.6276000  3
    465   1014   1013   1012     1  180.0000771  2.0920000  4
    469    463    988    987     1  180.0000771  10.4600000  2
    470    465   1014   1013     1  180.0000771  10.4600000  2
    485    486    488    489     1  0.0000000  0.6508444  3
    485    487    490    491     1  0.0000000  0.6508444  3
    485    492    493    494     1  0.0000000  0.6508444  3
    486    485    487    490     1  0.0000000  0.6508444  3
    486    485    492    493     1  0.0000000  0.6508444  3
    486    488    489    495     1  180.0000771  0.0000000  2
    486    488    489   1040     1  0.0000000  0.2928800  2
    486    488    489   1040     1  0.0000000  0.4184000  4
    487    485    486    488     1  0.0000000  0.6508444  3
    487    485    492    493     1  0.0000000  0.6508444  3
    487    490    491    496     1  180.0000771  0.0000000  2
    487    490    491   1066     1  0.0000000  0.2928800  2
    487    490    491   1066     1  0.0000000  0.4184000  4
    488    486    485    492     1  0.0000000  0.6508444  3
    488    489   1040   1039     1  180.0000771  6.2760000  1
    488    489   1040   1039     1  0.0000000  0.0000000  2
    489   1040   1039   1038     1  0.0000000  2.2175200  1
    489   1040   1039   1038     1  0.0000000  0.0000000  2
    489   1040   1039   1038     1  180.0000771  0.6276000  3
    489   1040   1039   1038     1  180.0000771  2.0920000  4
    490    487    485    492     1  0.0000000  0.6508444  3
    490    491   1066   1065     1  180.0000771  6.2760000  1
    490    491   1066   1065     1  0.0000000  0.0000000  2
    491   1066   1065   1064     1  0.0000000  2.2175200  1
    491   1066   1065   1064     1  0.0000000  0.0000000  2
    491   1066   1065   1064     1  180.0000771  0.6276000  3
    491   1066   1065   1064     1  180.0000771  2.0920000  4
    495    489   1040   1039     1  180.0000771  10.4600000  2
    496    491   1066   1065     1  180.0000771  10.4600000  2
    511    512    514    515     1  0.0000000  0.6508444  3
    511    513    516    517     1  0.0000000  0.6508444  3
    511    518    519    520     1  0.0000000  0.6508444  3
    512    511    513    516     1  0.0000000  0.6508444  3
    512    511    518    519     1  0.0000000  0.6508444  3
    512    514    515    521     1  180.0000771  0.0000000  2
    512    514    515   1092     1  0.0000000  0.2928800  2
    512    514    515   1092     1  0.0000000  0.4184000  4
    513    511    512    514     1  0.0000000  0.6508444  3
    513    511    518    519     1  0.0000000  0.6508444  3
    513    516    517    522     1  180.0000771  0.0000000  2
    513    516    517   1118     1  0.0000000  0.2928800  2
    513    516    517   1118     1  0.0000000  0.4184000  4
    514    512    511    518     1  0.0000000  0.6508444  3
    514    515   1092   1091     1  180.0000771  6.2760000  1
    514    515   1092   1091     1  0.0000000  0.0000000  2
    515   1092   1091   1090     1  0.0000000  2.2175200  1
    515   1092   1091   1090     1  0.0000000  0.0000000  2
    515   1092   1091   1090     1  180.0000771  0.6276000  3
    515   1092   1091   1090     1  180.0000771  2.0920000  4
    516    513    511    518     1  0.0000000  0.6508444  3
    516    517   1118   1117     1  180.0000771  6.2760000  1
    516    517   1118   1117     1  0.0000000  0.0000000  2
    517   1118   1117   1116     1  0.0000000  2.2175200  1
    517   1118   1117   1116     1  0.0000000  0.0000000  2
    517   1118   1117   1116     1  180.0000771  0.6276000  3
    517   1118   1117   1116     1  180.0000771  2.0920000  4
    521    515   1092   1091     1  180.0000771  10.4600000  2
    522    517   1118   1117     1  180.0000771  10.4600000  2
    537    538    540    541     1  0.0000000  0.6508444  3
    537    539    542    543     1  0.0000000  0.6508444  3
    537    544    545    546     1  0.0000000  0.6508444  3
    538    537    539    542     1  0.0000000  0.6508444  3
    538    537    544    545     1  0.0000000  0.6508444  3
    538    540    541    547     1  180.0000771  0.0000000  2
    538    540    541   1144     1  0.0000000  0.2928800  2
    538    540    541   1144     1  0.0000000  0.4184000  4
    539    537    538    540     1  0.0000000  0.6508444  3
    539    537    544    545     1  0.0000000  0.6508444  3
    539    542    543    548     1  180.0000771  0.0000000  2
    539    542    543   1170     1  0.0000000  0.2928800  2
    539    542    543   1170     1  0.0000000  0.4184000  4
    540    538    537    544     1  0.0000000  0.6508444  3
    540    541   1144   1143     1  180.0000771  6.2760000  1
    540    541   1144   1143     1  0.0000000  0.0000000  2
    541   1144   1143   1142     1  0.0000000  2.2175200  1
    541   1144   1143   1142     1  0.0000000  0.0000000  2
    541   1144   1143   1142     1  180.0000771  0.6276000  3
    541   1144   1143   1142     1  180.0000771  2.0920000  4
    542    539    537    544     1  0.0000000  0.6508444  3
    542    543   1170   1169     1  180.0000771  6.2760000  1
    542    543   1170   1169     1  0.0000000  0.0000000  2
    543   1170   1169   1168     1  0.0000000  2.2175200  1
    543   1170   1169   1168     1  0.0000000  0.0000000  2
    543   1170   1169   1168     1  180.0000771  0.6276000  3
    543   1170   1169   1168     1  180.0000771  2.0920000  4
    547    541   1144   1143     1  180.0000771  10.4600000  2
    548    543   1170   1169     1  180.0000771  10.4600000  2
    563    564    566    567     1  0.0000000  0.6508444  3
    563    565    568    569     1  0.0000000  0.6508444  3
    563    570    571    572     1  0.0000000  0.6508444  3
    564    563    565    568     1  0.0000000  0.6508444  3
    564    563    570    571     1  0.0000000  0.6508444  3
    564    566    567    573     1  180.0000771  0.0000000  2
    564    566    567   1196     1  0.0000000  0.2928800  2
    564    566    567   1196     1  0.0000000  0.4184000  4
    565    563    564    566     1  0.0000000  0.6508444  3
    565    563    570    571     1  0.0000000  0.6508444  3
    565    568    569    574     1  180.0000771  0.0000000  2
    565    568    569   1222     1  0.0000000  0.2928800  2
    565    568    569   1222     1  0.0000000  0.4184000  4
    566    564    563    570     1  0.0000000  0.6508444  3
    566    567   1196   1195     1  180.0000771  6.2760000  1
    566    567   1196   1195     1  0.0000000  0.0000000  2
    567   1196   1195   1194     1  0.0000000  2.2175200  1
    567   1196   1195   1194     1  0.0000000  0.0000000  2
    567   1196   1195   1194     1  180.0000771  0.6276000  3
    567   1196   1195   1194     1  180.0000771  2.0920000  4
    568    565    563    570     1  0.0000000  0.6508444  3
    568    569   1222   1221     1  180.0000771  6.2760000  1
    568    569   1222   1221     1  0.0000000  0.0000000  2
    569   1222   1221   1220     1  0.0000000  2.2175200  1
    569   1222   1221   1220     1  0.0000000  0.0000000  2
    569   1222   1221   1220     1  180.0000771  0.6276000  3
    569   1222   1221   1220     1  180.0000771  2.0920000  4
    573    567   1196   1195     1  180.0000771  10.4600000  2
    574    569   1222   1221     1  180.0000771  10.4600000  2
    589    590    592    593     1  0.0000000  0.6508444  3
    589    591    594    595     1  0.0000000  0.6508444  3
    589    596    597    598     1  0.0000000  0.6508444  3
    590    589    591    594     1  0.0000000  0.6508444  3
    590    589    596    597     1  0.0000000  0.6508444  3
    590    592    593    599     1  180.0000771  0.0000000  2
    590    592    593   1248     1  0.0000000  0.2928800  2
    590    592    593   1248     1  0.0000000  0.4184000  4
    591    589    590    592     1  0.0000000  0.6508444  3
    591    589    596    597     1  0.0000000  0.6508444  3
    591    594    595    600     1  180.0000771  0.0000000  2
    591    594    595   1274     1  0.0000000  0.2928800  2
    591    594    595   1274     1  0.0000000  0.4184000  4
    592    590    589    596     1  0.0000000  0.6508444  3
    592    593   1248   1247     1  180.0000771  6.2760000  1
    592    593   1248   1247     1  0.0000000  0.0000000  2
    593   1248   1247   1246     1  0.0000000  2.2175200  1
    593   1248   1247   1246     1  0.0000000  0.0000000  2
    593   1248   1247   1246     1  180.0000771  0.6276000  3
    593   1248   1247   1246     1  180.0000771  2.0920000  4
    594    591    589    596     1  0.0000000  0.6508444  3
    594    595   1274   1273     1  180.0000771  6.2760000  1
    594    595   1274   1273     1  0.0000000  0.0000000  2
    595   1274   1273   1272     1  0.0000000  2.2175200  1
    595   1274   1273   1272     1  0.0000000  0.0000000  2
    595   1274   1273   1272     1  180.0000771  0.6276000  3
    595   1274   1273   1272     1  180.0000771  2.0920000  4
    599    593   1248   1247     1  180.0000771  10.4600000  2
    600    595   1274   1273     1  180.0000771  10.4600000  2
    615    616    618    619     1  0.0000000  0.6508444  3
    615    617    620    621     1  0.0000000  0.6508444  3
    615    622    623    624     1  0.0000000  0.6508444  3
    616    615    617    620     1  0.0000000  0.6508444  3
    616    615    622    623     1  0.0000000  0.6508444  3
    616    618    619    625     1  180.0000771  0.0000000  2
    616    618    619   1300     1  0.0000000  0.2928800  2
    616    618    619   1300     1  0.0000000  0.4184000  4
    617    615    616    618     1  0.0000000  0.6508444  3
    617    615    622    623     1  0.0000000  0.6508444  3
    617    620    621    626     1  180.0000771  0.0000000  2
    617    620    621   1326     1  0.0000000  0.2928800  2
    617    620    621   1326     1  0.0000000  0.4184000  4
    618    616    615    622     1  0.0000000  0.6508444  3
    618    619   1300   1299     1  180.0000771  6.2760000  1
    618    619   1300   1299     1  0.0000000  0.0000000  2
    619   1300   1299   1298     1  0.0000000  2.2175200  1
    619   1300   1299   1298     1  0.0000000  0.0000000  2
    619   1300   1299   1298     1  180.0000771  0.6276000  3
    619   1300   1299   1298     1  180.0000771  2.0920000  4
    620    617    615    622     1  0.0000000  0.6508444  3
    620    621   1326   1325     1  180.0000771  6.2760000  1
    620    621   1326   1325     1  0.0000000  0.0000000  2
    621   1326   1325   1324     1  0.0000000  2.2175200  1
    621   1326   1325   1324     1  0.0000000  0.0000000  2
    621   1326   1325   1324     1  180.0000771  0.6276000  3
    621   1326   1325   1324     1  180.0000771  2.0920000  4
    625    619   1300   1299     1  180.0000771  10.4600000  2
    626    621   1326   1325     1  180.0000771  10.4600000  2
    641    642    644    645     1  0.0000000  0.6508444  3
    641    643    646    647     1  0.0000000  0.6508444  3
    641    648    649    650     1  0.0000000  0.6508444  3
    642    641    643    646     1  0.0000000  0.6508444  3
    642    641    648    649     1  0.0000000  0.6508444  3
    642    644    645    651     1  180.0000771  0.0000000  2
    642    644    645   1352     1  0.0000000  0.2928800  2
    642    644    645   1352     1  0.0000000  0.4184000  4
    643    641    642    644     1  0.0000000  0.6508444  3
    643    641    648    649     1  0.0000000  0.6508444  3
    643    646    647    652     1  180.0000771  0.0000000  2
    643    646    647   1378     1  0.0000000  0.2928800  2
    643    646    647   1378     1  0.0000000  0.4184000  4
    644    642    641    648     1  0.0000000  0.6508444  3
    644    645   1352   1351     1  180.0000771  6.2760000  1
    644    645   1352   1351     1  0.0000000  0.0000000  2
    645   1352   1351   1350     1  0.0000000  2.2175200  1
    645   1352   1351   1350     1  0.0000000  0.0000000  2
    645   1352   1351   1350     1  180.0000771  0.6276000  3
    645   1352   1351   1350     1  180.0000771  2.0920000  4
    646    643    641    648     1  0.0000000  0.6508444  3
    646    647   1378   1377     1  180.0000771  6.2760000  1
    646    647   1378   1377     1  0.0000000  0.0000000  2
    647   1378   1377   1376     1  0.0000000  2.2175200  1
    647   1378   1377   1376     1  0.0000000  0.0000000  2
    647   1378   1377   1376     1  180.0000771  0.6276000  3
    647   1378   1377   1376     1  180.0000771  2.0920000  4
    651    645   1352   1351     1  180.0000771  10.4600000  2
    652    647   1378   1377     1  180.0000771  10.4600000  2
    667    668    670    671     1  0.0000000  0.6508444  3
    667    669    672    673     1  0.0000000  0.6508444  3
    667    674    675    676     1  0.0000000  0.6508444  3
    668    667    669    672     1  0.0000000  0.6508444  3
    668    667    674    675     1  0.0000000  0.6508444  3
    668    670    671    677     1  180.0000771  0.0000000  2
    668    670    671   1404     1  0.0000000  0.2928800  2
    668    670    671   1404     1  0.0000000  0.4184000  4
    669    667    668    670     1  0.0000000  0.6508444  3
    669    667    674    675     1  0.0000000  0.6508444  3
    669    672    673    678     1  180.0000771  0.0000000  2
    669    672    673   1430     1  0.0000000  0.2928800  2
    669    672    673   1430     1  0.0000000  0.4184000  4
    670    668    667    674     1  0.0000000  0.6508444  3
    670    671   1404   1403     1  180.0000771  6.2760000  1
    670    671   1404   1403     1  0.0000000  0.0000000  2
    671   1404   1403   1402     1  0.0000000  2.2175200  1
    671   1404   1403   1402     1  0.0000000  0.0000000  2
    671   1404   1403   1402     1  180.0000771  0.6276000  3
    671   1404   1403   1402     1  180.0000771  2.0920000  4
    672    669    667    674     1  0.0000000  0.6508444  3
    672    673   1430   1429     1  180.0000771  6.2760000  1
    672    673   1430   1429     1  0.0000000  0.0000000  2
    673   1430   1429   1428     1  0.0000000  2.2175200  1
    673   1430   1429   1428     1  0.0000000  0.0000000  2
    673   1430   1429   1428     1  180.0000771  0.6276000  3
    673   1430   1429   1428     1  180.0000771  2.0920000  4
    677    671   1404   1403     1  180.0000771  10.4600000  2
    678    673   1430   1429     1  180.0000771  10.4600000  2
    693    694    696    697     1  0.0000000  0.6508444  3
    693    695    698    699     1  0.0000000  0.6508444  3
    693    700    701    702     1  0.0000000  0.6508444  3
    694    693    695    698     1  0.0000000  0.6508444  3
    694    693    700    701     1  0.0000000  0.6508444  3
    694    696    697    703     1  180.0000771  0.0000000  2
    694    696    697   1456     1  0.0000000  0.2928800  2
    694    696    697   1456     1  0.0000000  0.4184000  4
    695    693    694    696     1  0.0000000  0.6508444  3
    695    693    700    701     1  0.0000000  0.6508444  3
    695    698    699    704     1  180.0000771  0.0000000  2
    695    698    699   1482     1  0.0000000  0.2928800  2
    695    698    699   1482     1  0.0000000  0.4184000  4
    696    694    693    700     1  0.0000000  0.6508444  3
    696    697   1456   1455     1  180.0000771  6.2760000  1
    696    697   1456   1455     1  0.0000000  0.0000000  2
    697   1456   1455   1454     1  0.0000000  2.2175200  1
    697   1456   1455   1454     1  0.0000000  0.0000000  2
    697   1456   1455   1454     1  180.0000771  0.6276000  3
    697   1456   1455   1454     1  180.0000771  2.0920000  4
    698    695    693    700     1  0.0000000  0.6508444  3
    698    699   1482   1481     1  180.0000771  6.2760000  1
    698    699   1482   1481     1  0.0000000  0.0000000  2
    699   1482   1481   1480     1  0.0000000  2.2175200  1
    699   1482   1481   1480     1  0.0000000  0.0000000  2
    699   1482   1481   1480     1  180.0000771  0.6276000  3
    699   1482   1481   1480     1  180.0000771  2.0920000  4
    703    697   1456   1455     1  180.0000771  10.4600000  2
    704    699   1482   1481     1  180.0000771  10.4600000  2
    719    720    722    723     1  0.0000000  0.6508444  3
    719    721    724    725     1  0.0000000  0.6508444  3
    719    726    727    728     1  0.0000000  0.6508444  3
    720    719    721    724     1  0.0000000  0.6508444  3
    720    719    726    727     1  0.0000000  0.6508444  3
    720    722    723    729     1  180.0000771  0.0000000  2
    720    722    723   1508     1  0.0000000  0.2928800  2
    720    722    723   1508     1  0.0000000  0.4184000  4
    721    719    720    722     1  0.0000000  0.6508444  3
    721    719    726    727     1  0.0000000  0.6508444  3
    721    724    725    730     1  180.0000771  0.0000000  2
    721    724    725   1534     1  0.0000000  0.2928800  2
    721    724    725   1534     1  0.0000000  0.4184000  4
    722    720    719    726     1  0.0000000  0.6508444  3
    722    723   1508   1507     1  180.0000771  6.2760000  1
    722    723   1508   1507     1  0.0000000  0.0000000  2
    723   1508   1507   1506     1  0.0000000  2.2175200  1
    723   1508   1507   1506     1  0.0000000  0.0000000  2
    723   1508   1507   1506     1  180.0000771  0.6276000  3
    723   1508   1507   1506     1  180.0000771  2.0920000  4
    724    721    719    726     1  0.0000000  0.6508444  3
    724    725   1534   1533     1  180.0000771  6.2760000  1
    724    725   1534   1533     1  0.0000000  0.0000000  2
    725   1534   1533   1532     1  0.0000000  2.2175200  1
    725   1534   1533   1532     1  0.0000000  0.0000000  2
    725   1534   1533   1532     1  180.0000771  0.6276000  3
    725   1534   1533   1532     1  180.0000771  2.0920000  4
    729    723   1508   1507     1  180.0000771  10.4600000  2
    730    725   1534   1533     1  180.0000771  10.4600000  2
    745    746    748    749     1  0.0000000  0.6508444  3
    745    747    750    751     1  0.0000000  0.6508444  3
    745    752    753    754     1  0.0000000  0.6508444  3
    746    745    747    750     1  0.0000000  0.6508444  3
    746    745    752    753     1  0.0000000  0.6508444  3
    746    748    749    755     1  180.0000771  0.0000000  2
    746    748    749   1560     1  0.0000000  0.2928800  2
    746    748    749   1560     1  0.0000000  0.4184000  4
    747    745    746    748     1  0.0000000  0.6508444  3
    747    745    752    753     1  0.0000000  0.6508444  3
    747    750    751    756     1  180.0000771  0.0000000  2
    747    750    751   1586     1  0.0000000  0.2928800  2
    747    750    751   1586     1  0.0000000  0.4184000  4
    748    746    745    752     1  0.0000000  0.6508444  3
    748    749   1560   1559     1  180.0000771  6.2760000  1
    748    749   1560   1559     1  0.0000000  0.0000000  2
    749   1560   1559   1558     1  0.0000000  2.2175200  1
    749   1560   1559   1558     1  0.0000000  0.0000000  2
    749   1560   1559   1558     1  180.0000771  0.6276000  3
    749   1560   1559   1558     1  180.0000771  2.0920000  4
    750    747    745    752     1  0.0000000  0.6508444  3
    750    751   1586   1585     1  180.0000771  6.2760000  1
    750    751   1586   1585     1  0.0000000  0.0000000  2
    751   1586   1585   1584     1  0.0000000  2.2175200  1
    751   1586   1585   1584     1  0.0000000  0.0000000  2
    751   1586   1585   1584     1  180.0000771  0.6276000  3
    751   1586   1585   1584     1  180.0000771  2.0920000  4
    755    749   1560   1559     1  180.0000771  10.4600000  2
    756    751   1586   1585     1  180.0000771  10.4600000  2
    771    772    774    775     1  0.0000000  0.6508444  3
    771    773    776    777     1  0.0000000  0.6508444  3
    771    778    779    780     1  0.0000000  0.6508444  3
    772    771    773    776     1  0.0000000  0.6508444  3
    772    771    778    779     1  0.0000000  0.6508444  3
    772    774    775   1603     1  0.0000000  0.2928800  2
    772    774    775   1603     1  0.0000000  0.4184000  4
    772    774    775    781     1  180.0000771  0.0000000  2
    773    771    772    774     1  0.0000000  0.6508444  3
    773    771    778    779     1  0.0000000  0.6508444  3
    773    776    777    782     1  180.0000771  0.0000000  2
    773    776    777   1633     1  0.0000000  0.2928800  2
    773    776    777   1633     1  0.0000000  0.4184000  4
    774    772    771    778     1  0.0000000  0.6508444  3
    774    775   1603   1605     1  180.0000771  6.2760000  1
    774    775   1603   1605     1  0.0000000  0.0000000  2
    775   1603   1605   1607     1  0.0000000  2.2175200  1
    775   1603   1605   1607     1  0.0000000  0.0000000  2
    775   1603   1605   1607     1  180.0000771  0.6276000  3
    775   1603   1605   1607     1  180.0000771  2.0920000  4
    776    773    771    778     1  0.0000000  0.6508444  3
    776    777   1633   1635     1  180.0000771  6.2760000  1
    776    777   1633   1635     1  0.0000000  0.0000000  2
    777   1633   1635   1637     1  0.0000000  2.2175200  1
    777   1633   1635   1637     1  0.0000000  0.0000000  2
    777   1633   1635   1637     1  180.0000771  0.6276000  3
    777   1633   1635   1637     1  180.0000771  2.0920000  4
    781    775   1603   1605     1  180.0000771  10.4600000  2
    782    777   1633   1635     1  180.0000771  10.4600000  2
    797    798    800    801     1  0.0000000  0.6508444  3
    797    799    802    803     1  0.0000000  0.6508444  3
    797    804    805    806     1  0.0000000  0.6508444  3
    798    797    799    802     1  0.0000000  0.6508444  3
    798    797    804    805     1  0.0000000  0.6508444  3
    798    800    801   1663     1  0.0000000  0.2928800  2
    798    800    801   1663     1  0.0000000  0.4184000  4
    798    800    801    807     1  180.0000771  0.0000000  2
    799    797    798    800     1  0.0000000  0.6508444  3
    799    797    804    805     1  0.0000000  0.6508444  3
    799    802    803    808     1  180.0000771  0.0000000  2
    799    802    803   1693     1  0.0000000  0.2928800  2
    799    802    803   1693     1  0.0000000  0.4184000  4
    800    798    797    804     1  0.0000000  0.6508444  3
    800    801   1663   1665     1  180.0000771  6.2760000  1
    800    801   1663   1665     1  0.0000000  0.0000000  2
    801   1663   1665   1667     1  0.0000000  2.2175200  1
    801   1663   1665   1667     1  0.0000000  0.0000000  2
    801   1663   1665   1667     1  180.0000771  0.6276000  3
    801   1663   1665   1667     1  180.0000771  2.0920000  4
    802    799    797    804     1  0.0000000  0.6508444  3
    802    803   1693   1695     1  180.0000771  6.2760000  1
    802    803   1693   1695     1  0.0000000  0.0000000  2
    803   1693   1695   1697     1  0.0000000  2.2175200  1
    803   1693   1695   1697     1  0.0000000  0.0000000  2
    803   1693   1695   1697     1  180.0000771  0.6276000  3
    803   1693   1695   1697     1  180.0000771  2.0920000  4
    807    801   1663   1665     1  180.0000771  10.4600000  2
    808    803   1693   1695     1  180.0000771  10.4600000  2
    823    824    826    827     1  0.0000000  0.6508444  3
    823    825    828    829     1  0.0000000  0.6508444  3
    823    830    831    832     1  0.0000000  0.6508444  3
    824    823    825    828     1  0.0000000  0.6508444  3
    824    823    830    831     1  0.0000000  0.6508444  3
    824    826    827   1723     1  0.0000000  0.2928800  2
    824    826    827   1723     1  0.0000000  0.4184000  4
    824    826    827    833     1  180.0000771  0.0000000  2
    825    823    824    826     1  0.0000000  0.6508444  3
    825    823    830    831     1  0.0000000  0.6508444  3
    825    828    829    834     1  180.0000771  0.0000000  2
    825    828    829   1753     1  0.0000000  0.2928800  2
    825    828    829   1753     1  0.0000000  0.4184000  4
    826    824    823    830     1  0.0000000  0.6508444  3
    826    827   1723   1725     1  180.0000771  6.2760000  1
    826    827   1723   1725     1  0.0000000  0.0000000  2
    827   1723   1725   1727     1  0.0000000  2.2175200  1
    827   1723   1725   1727     1  0.0000000  0.0000000  2
    827   1723   1725   1727     1  180.0000771  0.6276000  3
    827   1723   1725   1727     1  180.0000771  2.0920000  4
    828    825    823    830     1  0.0000000  0.6508444  3
    828    829   1753   1755     1  180.0000771  6.2760000  1
    828    829   1753   1755     1  0.0000000  0.0000000  2
    829   1753   1755   1757     1  0.0000000  2.2175200  1
    829   1753   1755   1757     1  0.0000000  0.0000000  2
    829   1753   1755   1757     1  180.0000771  0.6276000  3
    829   1753   1755   1757     1  180.0000771  2.0920000  4
    833    827   1723   1725     1  180.0000771  10.4600000  2
    834    829   1753   1755     1  180.0000771  10.4600000  2
    849    850    852    853     1  0.0000000  0.6508444  3
    849    851    854    855     1  0.0000000  0.6508444  3
    849    856    857    858     1  0.0000000  0.6508444  3
    850    849    851    854     1  0.0000000  0.6508444  3
    850    849    856    857     1  0.0000000  0.6508444  3
    850    852    853   1783     1  0.0000000  0.2928800  2
    850    852    853   1783     1  0.0000000  0.4184000  4
    850    852    853    859     1  180.0000771  0.0000000  2
    851    849    850    852     1  0.0000000  0.6508444  3
    851    849    856    857     1  0.0000000  0.6508444  3
    851    854    855    860     1  180.0000771  0.0000000  2
    851    854    855   1813     1  0.0000000  0.2928800  2
    851    854    855   1813     1  0.0000000  0.4184000  4
    852    850    849    856     1  0.0000000  0.6508444  3
    852    853   1783   1785     1  180.0000771  6.2760000  1
    852    853   1783   1785     1  0.0000000  0.0000000  2
    853   1783   1785   1787     1  0.0000000  2.2175200  1
    853   1783   1785   1787     1  0.0000000  0.0000000  2
    853   1783   1785   1787     1  180.0000771  0.6276000  3
    853   1783   1785   1787     1  180.0000771  2.0920000  4
    854    851    849    856     1  0.0000000  0.6508444  3
    854    855   1813   1815     1  180.0000771  6.2760000  1
    854    855   1813   1815     1  0.0000000  0.0000000  2
    855   1813   1815   1817     1  0.0000000  2.2175200  1
    855   1813   1815   1817     1  0.0000000  0.0000000  2
    855   1813   1815   1817     1  180.0000771  0.6276000  3
    855   1813   1815   1817     1  180.0000771  2.0920000  4
    859    853   1783   1785     1  180.0000771  10.4600000  2
    860    855   1813   1815     1  180.0000771  10.4600000  2
    875    876    878    879     1  0.0000000  0.6508444  3
    875    877    880    881     1  0.0000000  0.6508444  3
    875    882    883    884     1  0.0000000  0.6508444  3
    876    875    877    880     1  0.0000000  0.6508444  3
    876    875    882    883     1  0.0000000  0.6508444  3
    876    878    879   1843     1  0.0000000  0.2928800  2
    876    878    879   1843     1  0.0000000  0.4184000  4
    876    878    879    885     1  180.0000771  0.0000000  2
    877    875    876    878     1  0.0000000  0.6508444  3
    877    875    882    883     1  0.0000000  0.6508444  3
    877    880    881    886     1  180.0000771  0.0000000  2
    877    880    881   1873     1  0.0000000  0.2928800  2
    877    880    881   1873     1  0.0000000  0.4184000  4
    878    876    875    882     1  0.0000000  0.6508444  3
    878    879   1843   1845     1  180.0000771  6.2760000  1
    878    879   1843   1845     1  0.0000000  0.0000000  2
    879   1843   1845   1847     1  0.0000000  2.2175200  1
    879   1843   1845   1847     1  0.0000000  0.0000000  2
    879   1843   1845   1847     1  180.0000771  0.6276000  3
    879   1843   1845   1847     1  180.0000771  2.0920000  4
    880    877    875    882     1  0.0000000  0.6508444  3
    880    881   1873   1875     1  180.0000771  6.2760000  1
    880    881   1873   1875     1  0.0000000  0.0000000  2
    881   1873   1875   1877     1  0.0000000  2.2175200  1
    881   1873   1875   1877     1  0.0000000  0.0000000  2
    881   1873   1875   1877     1  180.0000771  0.6276000  3
    881   1873   1875   1877     1  180.0000771  2.0920000  4
    885    879   1843   1845     1  180.0000771  10.4600000  2
    886    881   1873   1875     1  180.0000771  10.4600000  2
    901    902    904    905     1  0.0000000  0.6508444  3
    901    903    906    907     1  0.0000000  0.6508444  3
    901    908    909    910     1  0.0000000  0.6508444  3
    902    901    903    906     1  0.0000000  0.6508444  3
    902    901    908    909     1  0.0000000  0.6508444  3
    902    904    905   1903     1  0.0000000  0.2928800  2
    902    904    905   1903     1  0.0000000  0.4184000  4
    902    904    905    911     1  180.0000771  0.0000000  2
    903    901    902    904     1  0.0000000  0.6508444  3
    903    901    908    909     1  0.0000000  0.6508444  3
    903    906    907    912     1  180.0000771  0.0000000  2
    903    906    907   1933     1  0.0000000  0.2928800  2
    903    906    907   1933     1  0.0000000  0.4184000  4
    904    902    901    908     1  0.0000000  0.6508444  3
    904    905   1903   1905     1  180.0000771  6.2760000  1
    904    905   1903   1905     1  0.0000000  0.0000000  2
    905   1903   1905   1907     1  0.0000000  2.2175200  1
    905   1903   1905   1907     1  0.0000000  0.0000000  2
    905   1903   1905   1907     1  180.0000771  0.6276000  3
    905   1903   1905   1907     1  180.0000771  2.0920000  4
    906    903    901    908     1  0.0000000  0.6508444  3
    906    907   1933   1935     1  180.0000771  6.2760000  1
    906    907   1933   1935     1  0.0000000  0.0000000  2
    907   1933   1935   1937     1  0.0000000  2.2175200  1
    907   1933   1935   1937     1  0.0000000  0.0000000  2
    907   1933   1935   1937     1  180.0000771  0.6276000  3
    907   1933   1935   1937     1  180.0000771  2.0920000  4
    911    905   1903   1905     1  180.0000771  10.4600000  2
    912    907   1933   1935     1  180.0000771  10.4600000  2
    927    928    930    931     1  0.0000000  0.6508444  3
    927    929    932    933     1  0.0000000  0.6508444  3
    927    934    935    936     1  0.0000000  0.6508444  3
    928    927    929    932     1  0.0000000  0.6508444  3
    928    927    934    935     1  0.0000000  0.6508444  3
    928    930    931   1963     1  0.0000000  0.2928800  2
    928    930    931   1963     1  0.0000000  0.4184000  4
    928    930    931    937     1  180.0000771  0.0000000  2
    929    927    928    930     1  0.0000000  0.6508444  3
    929    927    934    935     1  0.0000000  0.6508444  3
    929    932    933    938     1  180.0000771  0.0000000  2
    929    932    933   1993     1  0.0000000  0.2928800  2
    929    932    933   1993     1  0.0000000  0.4184000  4
    930    928    927    934     1  0.0000000  0.6508444  3
    930    931   1963   1965     1  180.0000771  6.2760000  1
    930    931   1963   1965     1  0.0000000  0.0000000  2
    931   1963   1965   1967     1  0.0000000  2.2175200  1
    931   1963   1965   1967     1  0.0000000  0.0000000  2
    931   1963   1965   1967     1  180.0000771  0.6276000  3
    931   1963   1965   1967     1  180.0000771  2.0920000  4
    932    929    927    934     1  0.0000000  0.6508444  3
    932    933   1993   1995     1  180.0000771  6.2760000  1
    932    933   1993   1995     1  0.0000000  0.0000000  2
    933   1993   1995   1997     1  0.0000000  2.2175200  1
    933   1993   1995   1997     1  0.0000000  0.0000000  2
    933   1993   1995   1997     1  180.0000771  0.6276000  3
    933   1993   1995   1997     1  180.0000771  2.0920000  4
    937    931   1963   1965     1  180.0000771  10.4600000  2
    938    933   1993   1995     1  180.0000771  10.4600000  2
    953    954    956    957     1  0.0000000  0.6508444  3
    953    955    958    959     1  0.0000000  0.6508444  3
    953    960    961    962     1  0.0000000  0.6508444  3
    954    953    955    958     1  0.0000000  0.6508444  3
    954    953    960    961     1  0.0000000  0.6508444  3
    954    956    957   2023     1  0.0000000  0.2928800  2
    954    956    957   2023     1  0.0000000  0.4184000  4
    954    956    957    963     1  180.0000771  0.0000000  2
    955    953    954    956     1  0.0000000  0.6508444  3
    955    953    960    961     1  0.0000000  0.6508444  3
    955    958    959    964     1  180.0000771  0.0000000  2
    955    958    959   2053     1  0.0000000  0.2928800  2
    955    958    959   2053     1  0.0000000  0.4184000  4
    956    954    953    960     1  0.0000000  0.6508444  3
    956    957   2023   2025     1  180.0000771  6.2760000  1
    956    957   2023   2025     1  0.0000000  0.0000000  2
    957   2023   2025   2027     1  0.0000000  2.2175200  1
    957   2023   2025   2027     1  0.0000000  0.0000000  2
    957   2023   2025   2027     1  180.0000771  0.6276000  3
    957   2023   2025   2027     1  180.0000771  2.0920000  4
    958    955    953    960     1  0.0000000  0.6508444  3
    958    959   2053   2055     1  180.0000771  6.2760000  1
    958    959   2053   2055     1  0.0000000  0.0000000  2
    959   2053   2055   2057     1  0.0000000  2.2175200  1
    959   2053   2055   2057     1  0.0000000  0.0000000  2
    959   2053   2055   2057     1  180.0000771  0.6276000  3
    959   2053   2055   2057     1  180.0000771  2.0920000  4
    963    957   2023   2025     1  180.0000771  10.4600000  2
    964    959   2053   2055     1  180.0000771  10.4600000  2
    979    980    982    983     1  0.0000000  0.6508444  3
    979    981    984    985     1  0.0000000  0.6508444  3
    979    986    987    988     1  0.0000000  0.6508444  3
    980    979    981    984     1  0.0000000  0.6508444  3
    980    979    986    987     1  0.0000000  0.6508444  3
    980    982    983   2083     1  0.0000000  0.2928800  2
    980    982    983   2083     1  0.0000000  0.4184000  4
    980    982    983    989     1  180.0000771  0.0000000  2
    981    979    980    982     1  0.0000000  0.6508444  3
    981    979    986    987     1  0.0000000  0.6508444  3
    981    984    985    990     1  180.0000771  0.0000000  2
    981    984    985   2113     1  0.0000000  0.2928800  2
    981    984    985   2113     1  0.0000000  0.4184000  4
    982    980    979    986     1  0.0000000  0.6508444  3
    982    983   2083   2085     1  180.0000771  6.2760000  1
    982    983   2083   2085     1  0.0000000  0.0000000  2
    983   2083   2085   2087     1  0.0000000  2.2175200  1
    983   2083   2085   2087     1  0.0000000  0.0000000  2
    983   2083   2085   2087     1  180.0000771  0.6276000  3
    983   2083   2085   2087     1  180.0000771  2.0920000  4
    984    981    979    986     1  0.0000000  0.6508444  3
    984    985   2113   2115     1  180.0000771  6.2760000  1
    984    985   2113   2115     1  0.0000000  0.0000000  2
    985   2113   2115   2117     1  0.0000000  2.2175200  1
    985   2113   2115   2117     1  0.0000000  0.0000000  2
    985   2113   2115   2117     1  180.0000771  0.6276000  3
    985   2113   2115   2117     1  180.0000771  2.0920000  4
    989    983   2083   2085     1  180.0000771  10.4600000  2
    990    985   2113   2115     1  180.0000771  10.4600000  2
   1005   1006   1008   1009     1  0.0000000  0.6508444  3
   1005   1007   1010   1011     1  0.0000000  0.6508444  3
   1005   1012   1013   1014     1  0.0000000  0.6508444  3
   1006   1005   1007   1010     1  0.0000000  0.6508444  3
   1006   1005   1012   1013     1  0.0000000  0.6508444  3
   1006   1008   1009   2143     1  0.0000000  0.2928800  2
   1006   1008   1009   2143     1  0.0000000  0.4184000  4
   1006   1008   1009   1015     1  180.0000771  0.0000000  2
   1007   1005   1006   1008     1  0.0000000  0.6508444  3
   1007   1005   1012   1013     1  0.0000000  0.6508444  3
   1007   1010   1011   1016     1  180.0000771  0.0000000  2
   1007   1010   1011   2173     1  0.0000000  0.2928800  2
   1007   1010   1011   2173     1  0.0000000  0.4184000  4
   1008   1006   1005   1012     1  0.0000000  0.6508444  3
   1008   1009   2143   2145     1  180.0000771  6.2760000  1
   1008   1009   2143   2145     1  0.0000000  0.0000000  2
   1009   2143   2145   2147     1  0.0000000  2.2175200  1
   1009   2143   2145   2147     1  0.0000000  0.0000000  2
   1009   2143   2145   2147     1  180.0000771  0.6276000  3
   1009   2143   2145   2147     1  180.0000771  2.0920000  4
   1010   1007   1005   1012     1  0.0000000  0.6508444  3
   1010   1011   2173   2175     1  180.0000771  6.2760000  1
   1010   1011   2173   2175     1  0.0000000  0.0000000  2
   1011   2173   2175   2177     1  0.0000000  2.2175200  1
   1011   2173   2175   2177     1  0.0000000  0.0000000  2
   1011   2173   2175   2177     1  180.0000771  0.6276000  3
   1011   2173   2175   2177     1  180.0000771  2.0920000  4
   1015   1009   2143   2145     1  180.0000771  10.4600000  2
   1016   1011   2173   2175     1  180.0000771  10.4600000  2
   1031   1032   1034   1035     1  0.0000000  0.6508444  3
   1031   1033   1036   1037     1  0.0000000  0.6508444  3
   1031   1038   1039   1040     1  0.0000000  0.6508444  3
   1032   1031   1033   1036     1  0.0000000  0.6508444  3
   1032   1031   1038   1039     1  0.0000000  0.6508444  3
   1032   1034   1035   2203     1  0.0000000  0.2928800  2
   1032   1034   1035   2203     1  0.0000000  0.4184000  4
   1032   1034   1035   1041     1  180.0000771  0.0000000  2
   1033   1031   1032   1034     1  0.0000000  0.6508444  3
   1033   1031   1038   1039     1  0.0000000  0.6508444  3
   1033   1036   1037   1042     1  180.0000771  0.0000000  2
   1033   1036   1037   2233     1  0.0000000  0.2928800  2
   1033   1036   1037   2233     1  0.0000000  0.4184000  4
   1034   1032   1031   1038     1  0.0000000  0.6508444  3
   1034   1035   2203   2205     1  180.0000771  6.2760000  1
   1034   1035   2203   2205     1  0.0000000  0.0000000  2
   1035   2203   2205   2207     1  0.0000000  2.2175200  1
   1035   2203   2205   2207     1  0.0000000  0.0000000  2
   1035   2203   2205   2207     1  180.0000771  0.6276000  3
   1035   2203   2205   2207     1  180.0000771  2.0920000  4
   1036   1033   1031   1038     1  0.0000000  0.6508444  3
   1036   1037   2233   2235     1  180.0000771  6.2760000  1
   1036   1037   2233   2235     1  0.0000000  0.0000000  2
   1037   2233   2235   2237     1  0.0000000  2.2175200  1
   1037   2233   2235   2237     1  0.0000000  0.0000000  2
   1037   2233   2235   2237     1  180.0000771  0.6276000  3
   1037   2233   2235   2237     1  180.0000771  2.0920000  4
   1041   1035   2203   2205     1  180.0000771  10.4600000  2
   1042   1037   2233   2235     1  180.0000771  10.4600000  2
   1057   1058   1060   1061     1  0.0000000  0.6508444  3
   1057   1059   1062   1063     1  0.0000000  0.6508444  3
   1057   1064   1065   1066     1  0.0000000  0.6508444  3
   1058   1057   1059   1062     1  0.0000000  0.6508444  3
   1058   1057   1064   1065     1  0.0000000  0.6508444  3
   1058   1060   1061   2263     1  0.0000000  0.2928800  2
   1058   1060   1061   2263     1  0.0000000  0.4184000  4
   1058   1060   1061   1067     1  180.0000771  0.0000000  2
   1059   1057   1058   1060     1  0.0000000  0.6508444  3
   1059   1057   1064   1065     1  0.0000000  0.6508444  3
   1059   1062   1063   1068     1  180.0000771  0.0000000  2
   1059   1062   1063   2293     1  0.0000000  0.2928800  2
   1059   1062   1063   2293     1  0.0000000  0.4184000  4
   1060   1058   1057   1064     1  0.0000000  0.6508444  3
   1060   1061   2263   2265     1  180.0000771  6.2760000  1
   1060   1061   2263   2265     1  0.0000000  0.0000000  2
   1061   2263   2265   2267     1  0.0000000  2.2175200  1
   1061   2263   2265   2267     1  0.0000000  0.0000000  2
   1061   2263   2265   2267     1  180.0000771  0.6276000  3
   1061   2263   2265   2267     1  180.0000771  2.0920000  4
   1062   1059   1057   1064     1  0.0000000  0.6508444  3
   1062   1063   2293   2295     1  180.0000771  6.2760000  1
   1062   1063   2293   2295     1  0.0000000  0.0000000  2
   1063   2293   2295   2297     1  0.0000000  2.2175200  1
   1063   2293   2295   2297     1  0.0000000  0.0000000  2
   1063   2293   2295   2297     1  180.0000771  0.6276000  3
   1063   2293   2295   2297     1  180.0000771  2.0920000  4
   1067   1061   2263   2265     1  180.0000771  10.4600000  2
   1068   1063   2293   2295     1  180.0000771  10.4600000  2
   1083   1084   1086   1087     1  0.0000000  0.6508444  3
   1083   1085   1088   1089     1  0.0000000  0.6508444  3
   1083   1090   1091   1092     1  0.0000000  0.6508444  3
   1084   1083   1085   1088     1  0.0000000  0.6508444  3
   1084   1083   1090   1091     1  0.0000000  0.6508444  3
   1084   1086   1087   2323     1  0.0000000  0.2928800  2
   1084   1086   1087   2323     1  0.0000000  0.4184000  4
   1084   1086   1087   1093     1  180.0000771  0.0000000  2
   1085   1083   1084   1086     1  0.0000000  0.6508444  3
   1085   1083   1090   1091     1  0.0000000  0.6508444  3
   1085   1088   1089   1094     1  180.0000771  0.0000000  2
   1085   1088   1089   2353     1  0.0000000  0.2928800  2
   1085   1088   1089   2353     1  0.0000000  0.4184000  4
   1086   1084   1083   1090     1  0.0000000  0.6508444  3
   1086   1087   2323   2325     1  180.0000771  6.2760000  1
   1086   1087   2323   2325     1  0.0000000  0.0000000  2
   1087   2323   2325   2327     1  0.0000000  2.2175200  1
   1087   2323   2325   2327     1  0.0000000  0.0000000  2
   1087   2323   2325   2327     1  180.0000771  0.6276000  3
   1087   2323   2325   2327     1  180.0000771  2.0920000  4
   1088   1085   1083   1090     1  0.0000000  0.6508444  3
   1088   1089   2353   2355     1  180.0000771  6.2760000  1
   1088   1089   2353   2355     1  0.0000000  0.0000000  2
   1089   2353   2355   2357     1  0.0000000  2.2175200  1
   1089   2353   2355   2357     1  0.0000000  0.0000000  2
   1089   2353   2355   2357     1  180.0000771  0.6276000  3
   1089   2353   2355   2357     1  180.0000771  2.0920000  4
   1093   1087   2323   2325     1  180.0000771  10.4600000  2
   1094   1089   2353   2355     1  180.0000771  10.4600000  2
   1109   1110   1112   1113     1  0.0000000  0.6508444  3
   1109   1111   1114   1115     1  0.0000000  0.6508444  3
   1109   1116   1117   1118     1  0.0000000  0.6508444  3
   1110   1109   1111   1114     1  0.0000000  0.6508444  3
   1110   1109   1116   1117     1  0.0000000  0.6508444  3
   1110   1112   1113   2383     1  0.0000000  0.2928800  2
   1110   1112   1113   2383     1  0.0000000  0.4184000  4
   1110   1112   1113   1119     1  180.0000771  0.0000000  2
   1111   1109   1110   1112     1  0.0000000  0.6508444  3
   1111   1109   1116   1117     1  0.0000000  0.6508444  3
   1111   1114   1115   1120     1  180.0000771  0.0000000  2
   1111   1114   1115   2413     1  0.0000000  0.2928800  2
   1111   1114   1115   2413     1  0.0000000  0.4184000  4
   1112   1110   1109   1116     1  0.0000000  0.6508444  3
   1112   1113   2383   2385     1  180.0000771  6.2760000  1
   1112   1113   2383   2385     1  0.0000000  0.0000000  2
   1113   2383   2385   2387     1  0.0000000  2.2175200  1
   1113   2383   2385   2387     1  0.0000000  0.0000000  2
   1113   2383   2385   2387     1  180.0000771  0.6276000  3
   1113   2383   2385   2387     1  180.0000771  2.0920000  4
   1114   1111   1109   1116     1  0.0000000  0.6508444  3
   1114   1115   2413   2415     1  180.0000771  6.2760000  1
   1114   1115   2413   2415     1  0.0000000  0.0000000  2
   1115   2413   2415   2417     1  0.0000000  2.2175200  1
   1115   2413   2415   2417     1  0.0000000  0.0000000  2
   1115   2413   2415   2417     1  180.0000771  0.6276000  3
   1115   2413   2415   2417     1  180.0000771  2.0920000  4
   1119   1113   2383   2385     1  180.0000771  10.4600000  2
   1120   1115   2413   2415     1  180.0000771  10.4600000  2
   1135   1136   1138   1139     1  0.0000000  0.6508444  3
   1135   1137   1140   1141     1  0.0000000  0.6508444  3
   1135   1142   1143   1144     1  0.0000000  0.6508444  3
   1136   1135   1137   1140     1  0.0000000  0.6508444  3
   1136   1135   1142   1143     1  0.0000000  0.6508444  3
   1136   1138   1139   2443     1  0.0000000  0.2928800  2
   1136   1138   1139   2443     1  0.0000000  0.4184000  4
   1136   1138   1139   1145     1  180.0000771  0.0000000  2
   1137   1135   1136   1138     1  0.0000000  0.6508444  3
   1137   1135   1142   1143     1  0.0000000  0.6508444  3
   1137   1140   1141   1146     1  180.0000771  0.0000000  2
   1137   1140   1141   2473     1  0.0000000  0.2928800  2
   1137   1140   1141   2473     1  0.0000000  0.4184000  4
   1138   1136   1135   1142     1  0.0000000  0.6508444  3
   1138   1139   2443   2445     1  180.0000771  6.2760000  1
   1138   1139   2443   2445     1  0.0000000  0.0000000  2
   1139   2443   2445   2447     1  0.0000000  2.2175200  1
   1139   2443   2445   2447     1  0.0000000  0.0000000  2
   1139   2443   2445   2447     1  180.0000771  0.6276000  3
   1139   2443   2445   2447     1  180.0000771  2.0920000  4
   1140   1137   1135   1142     1  0.0000000  0.6508444  3
   1140   1141   2473   2475     1  180.0000771  6.2760000  1
   1140   1141   2473   2475     1  0.0000000  0.0000000  2
   1141   2473   2475   2477     1  0.0000000  2.2175200  1
   1141   2473   2475   2477     1  0.0000000  0.0000000  2
   1141   2473   2475   2477     1  180.0000771  0.6276000  3
   1141   2473   2475   2477     1  180.0000771  2.0920000  4
   1145   1139   2443   2445     1  180.0000771  10.4600000  2
   1146   1141   2473   2475     1  180.0000771  10.4600000  2
   1161   1162   1164   1165     1  0.0000000  0.6508444  3
   1161   1163   1166   1167     1  0.0000000  0.6508444  3
   1161   1168   1169   1170     1  0.0000000  0.6508444  3
   1162   1161   1163   1166     1  0.0000000  0.6508444  3
   1162   1161   1168   1169     1  0.0000000  0.6508444  3
   1162   1164   1165   2503     1  0.0000000  0.2928800  2
   1162   1164   1165   2503     1  0.0000000  0.4184000  4
   1162   1164   1165   1171     1  180.0000771  0.0000000  2
   1163   1161   1162   1164     1  0.0000000  0.6508444  3
   1163   1161   1168   1169     1  0.0000000  0.6508444  3
   1163   1166   1167   1172     1  180.0000771  0.0000000  2
   1163   1166   1167   2533     1  0.0000000  0.2928800  2
   1163   1166   1167   2533     1  0.0000000  0.4184000  4
   1164   1162   1161   1168     1  0.0000000  0.6508444  3
   1164   1165   2503   2505     1  180.0000771  6.2760000  1
   1164   1165   2503   2505     1  0.0000000  0.0000000  2
   1165   2503   2505   2507     1  0.0000000  2.2175200  1
   1165   2503   2505   2507     1  0.0000000  0.0000000  2
   1165   2503   2505   2507     1  180.0000771  0.6276000  3
   1165   2503   2505   2507     1  180.0000771  2.0920000  4
   1166   1163   1161   1168     1  0.0000000  0.6508444  3
   1166   1167   2533   2535     1  180.0000771  6.2760000  1
   1166   1167   2533   2535     1  0.0000000  0.0000000  2
   1167   2533   2535   2537     1  0.0000000  2.2175200  1
   1167   2533   2535   2537     1  0.0000000  0.0000000  2
   1167   2533   2535   2537     1  180.0000771  0.6276000  3
   1167   2533   2535   2537     1  180.0000771  2.0920000  4
   1171   1165   2503   2505     1  180.0000771  10.4600000  2
   1172   1167   2533   2535     1  180.0000771  10.4600000  2
   1187   1188   1190   1191     1  0.0000000  0.6508444  3
   1187   1189   1192   1193     1  0.0000000  0.6508444  3
   1187   1194   1195   1196     1  0.0000000  0.6508444  3
   1188   1187   1189   1192     1  0.0000000  0.6508444  3
   1188   1187   1194   1195     1  0.0000000  0.6508444  3
   1188   1190   1191   2563     1  0.0000000  0.2928800  2
   1188   1190   1191   2563     1  0.0000000  0.4184000  4
   1188   1190   1191   1197     1  180.0000771  0.0000000  2
   1189   1187   1188   1190     1  0.0000000  0.6508444  3
   1189   1187   1194   1195     1  0.0000000  0.6508444  3
   1189   1192   1193   1198     1  180.0000771  0.0000000  2
   1189   1192   1193   2593     1  0.0000000  0.2928800  2
   1189   1192   1193   2593     1  0.0000000  0.4184000  4
   1190   1188   1187   1194     1  0.0000000  0.6508444  3
   1190   1191   2563   2565     1  180.0000771  6.2760000  1
   1190   1191   2563   2565     1  0.0000000  0.0000000  2
   1191   2563   2565   2567     1  0.0000000  2.2175200  1
   1191   2563   2565   2567     1  0.0000000  0.0000000  2
   1191   2563   2565   2567     1  180.0000771  0.6276000  3
   1191   2563   2565   2567     1  180.0000771  2.0920000  4
   1192   1189   1187   1194     1  0.0000000  0.6508444  3
   1192   1193   2593   2595     1  180.0000771  6.2760000  1
   1192   1193   2593   2595     1  0.0000000  0.0000000  2
   1193   2593   2595   2597     1  0.0000000  2.2175200  1
   1193   2593   2595   2597     1  0.0000000  0.0000000  2
   1193   2593   2595   2597     1  180.0000771  0.6276000  3
   1193   2593   2595   2597     1  180.0000771  2.0920000  4
   1197   1191   2563   2565     1  180.0000771  10.4600000  2
   1198   1193   2593   2595     1  180.0000771  10.4600000  2
   1213   1214   1216   1217     1  0.0000000  0.6508444  3
   1213   1215   1218   1219     1  0.0000000  0.6508444  3
   1213   1220   1221   1222     1  0.0000000  0.6508444  3
   1214   1213   1215   1218     1  0.0000000  0.6508444  3
   1214   1213   1220   1221     1  0.0000000  0.6508444  3
   1214   1216   1217   2623     1  0.0000000  0.2928800  2
   1214   1216   1217   2623     1  0.0000000  0.4184000  4
   1214   1216   1217   1223     1  180.0000771  0.0000000  2
   1215   1213   1214   1216     1  0.0000000  0.6508444  3
   1215   1213   1220   1221     1  0.0000000  0.6508444  3
   1215   1218   1219   1224     1  180.0000771  0.0000000  2
   1215   1218   1219   2653     1  0.0000000  0.2928800  2
   1215   1218   1219   2653     1  0.0000000  0.4184000  4
   1216   1214   1213   1220     1  0.0000000  0.6508444  3
   1216   1217   2623   2625     1  180.0000771  6.2760000  1
   1216   1217   2623   2625     1  0.0000000  0.0000000  2
   1217   2623   2625   2627     1  0.0000000  2.2175200  1
   1217   2623   2625   2627     1  0.0000000  0.0000000  2
   1217   2623   2625   2627     1  180.0000771  0.6276000  3
   1217   2623   2625   2627     1  180.0000771  2.0920000  4
   1218   1215   1213   1220     1  0.0000000  0.6508444  3
   1218   1219   2653   2655     1  180.0000771  6.2760000  1
   1218   1219   2653   2655     1  0.0000000  0.0000000  2
   1219   2653   2655   2657     1  0.0000000  2.2175200  1
   1219   2653   2655   2657     1  0.0000000  0.0000000  2
   1219   2653   2655   2657     1  180.0000771  0.6276000  3
   1219   2653   2655   2657     1  180.0000771  2.0920000  4
   1223   1217   2623   2625     1  180.0000771  10.4600000  2
   1224   1219   2653   2655     1  180.0000771  10.4600000  2
   1239   1240   1242   1243     1  0.0000000  0.6508444  3
   1239   1241   1244   1245     1  0.0000000  0.6508444  3
   1239   1246   1247   1248     1  0.0000000  0.6508444  3
   1240   1239   1241   1244     1  0.0000000  0.6508444  3
   1240   1239   1246   1247     1  0.0000000  0.6508444  3
   1240   1242   1243   2683     1  0.0000000  0.2928800  2
   1240   1242   1243   2683     1  0.0000000  0.4184000  4
   1240   1242   1243   1249     1  180.0000771  0.0000000  2
   1241   1239   1240   1242     1  0.0000000  0.6508444  3
   1241   1239   1246   1247     1  0.0000000  0.6508444  3
   1241   1244   1245   1250     1  180.0000771  0.0000000  2
   1241   1244   1245   2713     1  0.0000000  0.2928800  2
   1241   1244   1245   2713     1  0.0000000  0.4184000  4
   1242   1240   1239   1246     1  0.0000000  0.6508444  3
   1242   1243   2683   2685     1  180.0000771  6.2760000  1
   1242   1243   2683   2685     1  0.0000000  0.0000000  2
   1243   2683   2685   2687     1  0.0000000  2.2175200  1
   1243   2683   2685   2687     1  0.0000000  0.0000000  2
   1243   2683   2685   2687     1  180.0000771  0.6276000  3
   1243   2683   2685   2687     1  180.0000771  2.0920000  4
   1244   1241   1239   1246     1  0.0000000  0.6508444  3
   1244   1245   2713   2715     1  180.0000771  6.2760000  1
   1244   1245   2713   2715     1  0.0000000  0.0000000  2
   1245   2713   2715   2717     1  0.0000000  2.2175200  1
   1245   2713   2715   2717     1  0.0000000  0.0000000  2
   1245   2713   2715   2717     1  180.0000771  0.6276000  3
   1245   2713   2715   2717     1  180.0000771  2.0920000  4
   1249   1243   2683   2685     1  180.0000771  10.4600000  2
   1250   1245   2713   2715     1  180.0000771  10.4600000  2
   1265   1266   1268   1269     1  0.0000000  0.6508444  3
   1265   1267   1270   1271     1  0.0000000  0.6508444  3
   1265   1272   1273   1274     1  0.0000000  0.6508444  3
   1266   1265   1267   1270     1  0.0000000  0.6508444  3
   1266   1265   1272   1273     1  0.0000000  0.6508444  3
   1266   1268   1269   2743     1  0.0000000  0.2928800  2
   1266   1268   1269   2743     1  0.0000000  0.4184000  4
   1266   1268   1269   1275     1  180.0000771  0.0000000  2
   1267   1265   1266   1268     1  0.0000000  0.6508444  3
   1267   1265   1272   1273     1  0.0000000  0.6508444  3
   1267   1270   1271   1276     1  180.0000771  0.0000000  2
   1267   1270   1271   2773     1  0.0000000  0.2928800  2
   1267   1270   1271   2773     1  0.0000000  0.4184000  4
   1268   1266   1265   1272     1  0.0000000  0.6508444  3
   1268   1269   2743   2745     1  180.0000771  6.2760000  1
   1268   1269   2743   2745     1  0.0000000  0.0000000  2
   1269   2743   2745   2747     1  0.0000000  2.2175200  1
   1269   2743   2745   2747     1  0.0000000  0.0000000  2
   1269   2743   2745   2747     1  180.0000771  0.6276000  3
   1269   2743   2745   2747     1  180.0000771  2.0920000  4
   1270   1267   1265   1272     1  0.0000000  0.6508444  3
   1270   1271   2773   2775     1  180.0000771  6.2760000  1
   1270   1271   2773   2775     1  0.0000000  0.0000000  2
   1271   2773   2775   2777     1  0.0000000  2.2175200  1
   1271   2773   2775   2777     1  0.0000000  0.0000000  2
   1271   2773   2775   2777     1  180.0000771  0.6276000  3
   1271   2773   2775   2777     1  180.0000771  2.0920000  4
   1275   1269   2743   2745     1  180.0000771  10.4600000  2
   1276   1271   2773   2775     1  180.0000771  10.4600000  2
   1291   1292   1294   1295     1  0.0000000  0.6508444  3
   1291   1293   1296   1297     1  0.0000000  0.6508444  3
   1291   1298   1299   1300     1  0.0000000  0.6508444  3
   1292   1291   1293   1296     1  0.0000000  0.6508444  3
   1292   1291   1298   1299     1  0.0000000  0.6508444  3
   1292   1294   1295   2803     1  0.0000000  0.2928800  2
   1292   1294   1295   2803     1  0.0000000  0.4184000  4
   1292   1294   1295   1301     1  180.0000771  0.0000000  2
   1293   1291   1292   1294     1  0.0000000  0.6508444  3
   1293   1291   1298   1299     1  0.0000000  0.6508444  3
   1293   1296   1297   1302     1  180.0000771  0.0000000  2
   1293   1296   1297   2833     1  0.0000000  0.2928800  2
   1293   1296   1297   2833     1  0.0000000  0.4184000  4
   1294   1292   1291   1298     1  0.0000000  0.6508444  3
   1294   1295   2803   2805     1  180.0000771  6.2760000  1
   1294   1295   2803   2805     1  0.0000000  0.0000000  2
   1295   2803   2805   2807     1  0.0000000  2.2175200  1
   1295   2803   2805   2807     1  0.0000000  0.0000000  2
   1295   2803   2805   2807     1  180.0000771  0.6276000  3
   1295   2803   2805   2807     1  180.0000771  2.0920000  4
   1296   1293   1291   1298     1  0.0000000  0.6508444  3
   1296   1297   2833   2835     1  180.0000771  6.2760000  1
   1296   1297   2833   2835     1  0.0000000  0.0000000  2
   1297   2833   2835   2837     1  0.0000000  2.2175200  1
   1297   2833   2835   2837     1  0.0000000  0.0000000  2
   1297   2833   2835   2837     1  180.0000771  0.6276000  3
   1297   2833   2835   2837     1  180.0000771  2.0920000  4
   1301   1295   2803   2805     1  180.0000771  10.4600000  2
   1302   1297   2833   2835     1  180.0000771  10.4600000  2
   1317   1318   1320   1321     1  0.0000000  0.6508444  3
   1317   1319   1322   1323     1  0.0000000  0.6508444  3
   1317   1324   1325   1326     1  0.0000000  0.6508444  3
   1318   1317   1319   1322     1  0.0000000  0.6508444  3
   1318   1317   1324   1325     1  0.0000000  0.6508444  3
   1318   1320   1321   2863     1  0.0000000  0.2928800  2
   1318   1320   1321   2863     1  0.0000000  0.4184000  4
   1318   1320   1321   1327     1  180.0000771  0.0000000  2
   1319   1317   1318   1320     1  0.0000000  0.6508444  3
   1319   1317   1324   1325     1  0.0000000  0.6508444  3
   1319   1322   1323   1328     1  180.0000771  0.0000000  2
   1319   1322   1323   2893     1  0.0000000  0.2928800  2
   1319   1322   1323   2893     1  0.0000000  0.4184000  4
   1320   1318   1317   1324     1  0.0000000  0.6508444  3
   1320   1321   2863   2865     1  180.0000771  6.2760000  1
   1320   1321   2863   2865     1  0.0000000  0.0000000  2
   1321   2863   2865   2867     1  0.0000000  2.2175200  1
   1321   2863   2865   2867     1  0.0000000  0.0000000  2
   1321   2863   2865   2867     1  180.0000771  0.6276000  3
   1321   2863   2865   2867     1  180.0000771  2.0920000  4
   1322   1319   1317   1324     1  0.0000000  0.6508444  3
   1322   1323   2893   2895     1  180.0000771  6.2760000  1
   1322   1323   2893   2895     1  0.0000000  0.0000000  2
   1323   2893   2895   2897     1  0.0000000  2.2175200  1
   1323   2893   2895   2897     1  0.0000000  0.0000000  2
   1323   2893   2895   2897     1  180.0000771  0.6276000  3
   1323   2893   2895   2897     1  180.0000771  2.0920000  4
   1327   1321   2863   2865     1  180.0000771  10.4600000  2
   1328   1323   2893   2895     1  180.0000771  10.4600000  2
   1343   1344   1346   1347     1  0.0000000  0.6508444  3
   1343   1345   1348   1349     1  0.0000000  0.6508444  3
   1343   1350   1351   1352     1  0.0000000  0.6508444  3
   1344   1343   1345   1348     1  0.0000000  0.6508444  3
   1344   1343   1350   1351     1  0.0000000  0.6508444  3
   1344   1346   1347   2923     1  0.0000000  0.2928800  2
   1344   1346   1347   2923     1  0.0000000  0.4184000  4
   1344   1346   1347   1353     1  180.0000771  0.0000000  2
   1345   1343   1344   1346     1  0.0000000  0.6508444  3
   1345   1343   1350   1351     1  0.0000000  0.6508444  3
   1345   1348   1349   1354     1  180.0000771  0.0000000  2
   1345   1348   1349   2953     1  0.0000000  0.2928800  2
   1345   1348   1349   2953     1  0.0000000  0.4184000  4
   1346   1344   1343   1350     1  0.0000000  0.6508444  3
   1346   1347   2923   2925     1  180.0000771  6.2760000  1
   1346   1347   2923   2925     1  0.0000000  0.0000000  2
   1347   2923   2925   2927     1  0.0000000  2.2175200  1
   1347   2923   2925   2927     1  0.0000000  0.0000000  2
   1347   2923   2925   2927     1  180.0000771  0.6276000  3
   1347   2923   2925   2927     1  180.0000771  2.0920000  4
   1348   1345   1343   1350     1  0.0000000  0.6508444  3
   1348   1349   2953   2955     1  180.0000771  6.2760000  1
   1348   1349   2953   2955     1  0.0000000  0.0000000  2
   1349   2953   2955   2957     1  0.0000000  2.2175200  1
   1349   2953   2955   2957     1  0.0000000  0.0000000  2
   1349   2953   2955   2957     1  180.0000771  0.6276000  3
   1349   2953   2955   2957     1  180.0000771  2.0920000  4
   1353   1347   2923   2925     1  180.0000771  10.4600000  2
   1354   1349   2953   2955     1  180.0000771  10.4600000  2
   1369   1370   1372   1373     1  0.0000000  0.6508444  3
   1369   1371   1374   1375     1  0.0000000  0.6508444  3
   1369   1376   1377   1378     1  0.0000000  0.6508444  3
   1370   1369   1371   1374     1  0.0000000  0.6508444  3
   1370   1369   1376   1377     1  0.0000000  0.6508444  3
   1370   1372   1373   2983     1  0.0000000  0.2928800  2
   1370   1372   1373   2983     1  0.0000000  0.4184000  4
   1370   1372   1373   1379     1  180.0000771  0.0000000  2
   1371   1369   1370   1372     1  0.0000000  0.6508444  3
   1371   1369   1376   1377     1  0.0000000  0.6508444  3
   1371   1374   1375   1380     1  180.0000771  0.0000000  2
   1371   1374   1375   3013     1  0.0000000  0.2928800  2
   1371   1374   1375   3013     1  0.0000000  0.4184000  4
   1372   1370   1369   1376     1  0.0000000  0.6508444  3
   1372   1373   2983   2985     1  180.0000771  6.2760000  1
   1372   1373   2983   2985     1  0.0000000  0.0000000  2
   1373   2983   2985   2987     1  0.0000000  2.2175200  1
   1373   2983   2985   2987     1  0.0000000  0.0000000  2
   1373   2983   2985   2987     1  180.0000771  0.6276000  3
   1373   2983   2985   2987     1  180.0000771  2.0920000  4
   1374   1371   1369   1376     1  0.0000000  0.6508444  3
   1374   1375   3013   3015     1  180.0000771  6.2760000  1
   1374   1375   3013   3015     1  0.0000000  0.0000000  2
   1375   3013   3015   3017     1  0.0000000  2.2175200  1
   1375   3013   3015   3017     1  0.0000000  0.0000000  2
   1375   3013   3015   3017     1  180.0000771  0.6276000  3
   1375   3013   3015   3017     1  180.0000771  2.0920000  4
   1379   1373   2983   2985     1  180.0000771  10.4600000  2
   1380   1375   3013   3015     1  180.0000771  10.4600000  2
   1395   1396   1398   1399     1  0.0000000  0.6508444  3
   1395   1397   1400   1401     1  0.0000000  0.6508444  3
   1395   1402   1403   1404     1  0.0000000  0.6508444  3
   1396   1395   1397   1400     1  0.0000000  0.6508444  3
   1396   1395   1402   1403     1  0.0000000  0.6508444  3
   1396   1398   1399   3043     1  0.0000000  0.2928800  2
   1396   1398   1399   3043     1  0.0000000  0.4184000  4
   1396   1398   1399   1405     1  180.0000771  0.0000000  2
   1397   1395   1396   1398     1  0.0000000  0.6508444  3
   1397   1395   1402   1403     1  0.0000000  0.6508444  3
   1397   1400   1401   1406     1  180.0000771  0.0000000  2
   1397   1400   1401   3073     1  0.0000000  0.2928800  2
   1397   1400   1401   3073     1  0.0000000  0.4184000  4
   1398   1396   1395   1402     1  0.0000000  0.6508444  3
   1398   1399   3043   3045     1  180.0000771  6.2760000  1
   1398   1399   3043   3045     1  0.0000000  0.0000000  2
   1399   3043   3045   3047     1  0.0000000  2.2175200  1
   1399   3043   3045   3047     1  0.0000000  0.0000000  2
   1399   3043   3045   3047     1  180.0000771  0.6276000  3
   1399   3043   3045   3047     1  180.0000771  2.0920000  4
   1400   1397   1395   1402     1  0.0000000  0.6508444  3
   1400   1401   3073   3075     1  180.0000771  6.2760000  1
   1400   1401   3073   3075     1  0.0000000  0.0000000  2
   1401   3073   3075   3077     1  0.0000000  2.2175200  1
   1401   3073   3075   3077     1  0.0000000  0.0000000  2
   1401   3073   3075   3077     1  180.0000771  0.6276000  3
   1401   3073   3075   3077     1  180.0000771  2.0920000  4
   1405   1399   3043   3045     1  180.0000771  10.4600000  2
   1406   1401   3073   3075     1  180.0000771  10.4600000  2
   1421   1422   1424   1425     1  0.0000000  0.6508444  3
   1421   1423   1426   1427     1  0.0000000  0.6508444  3
   1421   1428   1429   1430     1  0.0000000  0.6508444  3
   1422   1421   1423   1426     1  0.0000000  0.6508444  3
   1422   1421   1428   1429     1  0.0000000  0.6508444  3
   1422   1424   1425   3103     1  0.0000000  0.2928800  2
   1422   1424   1425   3103     1  0.0000000  0.4184000  4
   1422   1424   1425   1431     1  180.0000771  0.0000000  2
   1423   1421   1422   1424     1  0.0000000  0.6508444  3
   1423   1421   1428   1429     1  0.0000000  0.6508444  3
   1423   1426   1427   1432     1  180.0000771  0.0000000  2
   1423   1426   1427   3133     1  0.0000000  0.2928800  2
   1423   1426   1427   3133     1  0.0000000  0.4184000  4
   1424   1422   1421   1428     1  0.0000000  0.6508444  3
   1424   1425   3103   3105     1  180.0000771  6.2760000  1
   1424   1425   3103   3105     1  0.0000000  0.0000000  2
   1425   3103   3105   3107     1  0.0000000  2.2175200  1
   1425   3103   3105   3107     1  0.0000000  0.0000000  2
   1425   3103   3105   3107     1  180.0000771  0.6276000  3
   1425   3103   3105   3107     1  180.0000771  2.0920000  4
   1426   1423   1421   1428     1  0.0000000  0.6508444  3
   1426   1427   3133   3135     1  180.0000771  6.2760000  1
   1426   1427   3133   3135     1  0.0000000  0.0000000  2
   1427   3133   3135   3137     1  0.0000000  2.2175200  1
   1427   3133   3135   3137     1  0.0000000  0.0000000  2
   1427   3133   3135   3137     1  180.0000771  0.6276000  3
   1427   3133   3135   3137     1  180.0000771  2.0920000  4
   1431   1425   3103   3105     1  180.0000771  10.4600000  2
   1432   1427   3133   3135     1  180.0000771  10.4600000  2
   1447   1448   1450   1451     1  0.0000000  0.6508444  3
   1447   1449   1452   1453     1  0.0000000  0.6508444  3
   1447   1454   1455   1456     1  0.0000000  0.6508444  3
   1448   1447   1449   1452     1  0.0000000  0.6508444  3
   1448   1447   1454   1455     1  0.0000000  0.6508444  3
   1448   1450   1451   3163     1  0.0000000  0.2928800  2
   1448   1450   1451   3163     1  0.0000000  0.4184000  4
   1448   1450   1451   1457     1  180.0000771  0.0000000  2
   1449   1447   1448   1450     1  0.0000000  0.6508444  3
   1449   1447   1454   1455     1  0.0000000  0.6508444  3
   1449   1452   1453   1458     1  180.0000771  0.0000000  2
   1449   1452   1453   3193     1  0.0000000  0.2928800  2
   1449   1452   1453   3193     1  0.0000000  0.4184000  4
   1450   1448   1447   1454     1  0.0000000  0.6508444  3
   1450   1451   3163   3165     1  180.0000771  6.2760000  1
   1450   1451   3163   3165     1  0.0000000  0.0000000  2
   1451   3163   3165   3167     1  0.0000000  2.2175200  1
   1451   3163   3165   3167     1  0.0000000  0.0000000  2
   1451   3163   3165   3167     1  180.0000771  0.6276000  3
   1451   3163   3165   3167     1  180.0000771  2.0920000  4
   1452   1449   1447   1454     1  0.0000000  0.6508444  3
   1452   1453   3193   3195     1  180.0000771  6.2760000  1
   1452   1453   3193   3195     1  0.0000000  0.0000000  2
   1453   3193   3195   3197     1  0.0000000  2.2175200  1
   1453   3193   3195   3197     1  0.0000000  0.0000000  2
   1453   3193   3195   3197     1  180.0000771  0.6276000  3
   1453   3193   3195   3197     1  180.0000771  2.0920000  4
   1457   1451   3163   3165     1  180.0000771  10.4600000  2
   1458   1453   3193   3195     1  180.0000771  10.4600000  2
   1473   1474   1476   1477     1  0.0000000  0.6508444  3
   1473   1475   1478   1479     1  0.0000000  0.6508444  3
   1473   1480   1481   1482     1  0.0000000  0.6508444  3
   1474   1473   1475   1478     1  0.0000000  0.6508444  3
   1474   1473   1480   1481     1  0.0000000  0.6508444  3
   1474   1476   1477   3223     1  0.0000000  0.2928800  2
   1474   1476   1477   3223     1  0.0000000  0.4184000  4
   1474   1476   1477   1483     1  180.0000771  0.0000000  2
   1475   1473   1474   1476     1  0.0000000  0.6508444  3
   1475   1473   1480   1481     1  0.0000000  0.6508444  3
   1475   1478   1479   1484     1  180.0000771  0.0000000  2
   1475   1478   1479   3253     1  0.0000000  0.2928800  2
   1475   1478   1479   3253     1  0.0000000  0.4184000  4
   1476   1474   1473   1480     1  0.0000000  0.6508444  3
   1476   1477   3223   3225     1  180.0000771  6.2760000  1
   1476   1477   3223   3225     1  0.0000000  0.0000000  2
   1477   3223   3225   3227     1  0.0000000  2.2175200  1
   1477   3223   3225   3227     1  0.0000000  0.0000000  2
   1477   3223   3225   3227     1  180.0000771  0.6276000  3
   1477   3223   3225   3227     1  180.0000771  2.0920000  4
   1478   1475   1473   1480     1  0.0000000  0.6508444  3
   1478   1479   3253   3255     1  180.0000771  6.2760000  1
   1478   1479   3253   3255     1  0.0000000  0.0000000  2
   1479   3253   3255   3257     1  0.0000000  2.2175200  1
   1479   3253   3255   3257     1  0.0000000  0.0000000  2
   1479   3253   3255   3257     1  180.0000771  0.6276000  3
   1479   3253   3255   3257     1  180.0000771  2.0920000  4
   1483   1477   3223   3225     1  180.0000771  10.4600000  2
   1484   1479   3253   3255     1  180.0000771  10.4600000  2
   1499   1500   1502   1503     1  0.0000000  0.6508444  3
   1499   1501   1504   1505     1  0.0000000  0.6508444  3
   1499   1506   1507   1508     1  0.0000000  0.6508444  3
   1500   1499   1501   1504     1  0.0000000  0.6508444  3
   1500   1499   1506   1507     1  0.0000000  0.6508444  3
   1500   1502   1503   3283     1  0.0000000  0.2928800  2
   1500   1502   1503   3283     1  0.0000000  0.4184000  4
   1500   1502   1503   1509     1  180.0000771  0.0000000  2
   1501   1499   1500   1502     1  0.0000000  0.6508444  3
   1501   1499   1506   1507     1  0.0000000  0.6508444  3
   1501   1504   1505   1510     1  180.0000771  0.0000000  2
   1501   1504   1505   3313     1  0.0000000  0.2928800  2
   1501   1504   1505   3313     1  0.0000000  0.4184000  4
   1502   1500   1499   1506     1  0.0000000  0.6508444  3
   1502   1503   3283   3285     1  180.0000771  6.2760000  1
   1502   1503   3283   3285     1  0.0000000  0.0000000  2
   1503   3283   3285   3287     1  0.0000000  2.2175200  1
   1503   3283   3285   3287     1  0.0000000  0.0000000  2
   1503   3283   3285   3287     1  180.0000771  0.6276000  3
   1503   3283   3285   3287     1  180.0000771  2.0920000  4
   1504   1501   1499   1506     1  0.0000000  0.6508444  3
   1504   1505   3313   3315     1  180.0000771  6.2760000  1
   1504   1505   3313   3315     1  0.0000000  0.0000000  2
   1505   3313   3315   3317     1  0.0000000  2.2175200  1
   1505   3313   3315   3317     1  0.0000000  0.0000000  2
   1505   3313   3315   3317     1  180.0000771  0.6276000  3
   1505   3313   3315   3317     1  180.0000771  2.0920000  4
   1509   1503   3283   3285     1  180.0000771  10.4600000  2
   1510   1505   3313   3315     1  180.0000771  10.4600000  2
   1525   1526   1528   1529     1  0.0000000  0.6508444  3
   1525   1527   1530   1531     1  0.0000000  0.6508444  3
   1525   1532   1533   1534     1  0.0000000  0.6508444  3
   1526   1525   1527   1530     1  0.0000000  0.6508444  3
   1526   1525   1532   1533     1  0.0000000  0.6508444  3
   1526   1528   1529   3343     1  0.0000000  0.2928800  2
   1526   1528   1529   3343     1  0.0000000  0.4184000  4
   1526   1528   1529   1535     1  180.0000771  0.0000000  2
   1527   1525   1526   1528     1  0.0000000  0.6508444  3
   1527   1525   1532   1533     1  0.0000000  0.6508444  3
   1527   1530   1531   1536     1  180.0000771  0.0000000  2
   1527   1530   1531   3373     1  0.0000000  0.2928800  2
   1527   1530   1531   3373     1  0.0000000  0.4184000  4
   1528   1526   1525   1532     1  0.0000000  0.6508444  3
   1528   1529   3343   3345     1  180.0000771  6.2760000  1
   1528   1529   3343   3345     1  0.0000000  0.0000000  2
   1529   3343   3345   3347     1  0.0000000  2.2175200  1
   1529   3343   3345   3347     1  0.0000000  0.0000000  2
   1529   3343   3345   3347     1  180.0000771  0.6276000  3
   1529   3343   3345   3347     1  180.0000771  2.0920000  4
   1530   1527   1525   1532     1  0.0000000  0.6508444  3
   1530   1531   3373   3375     1  180.0000771  6.2760000  1
   1530   1531   3373   3375     1  0.0000000  0.0000000  2
   1531   3373   3375   3377     1  0.0000000  2.2175200  1
   1531   3373   3375   3377     1  0.0000000  0.0000000  2
   1531   3373   3375   3377     1  180.0000771  0.6276000  3
   1531   3373   3375   3377     1  180.0000771  2.0920000  4
   1535   1529   3343   3345     1  180.0000771  10.4600000  2
   1536   1531   3373   3375     1  180.0000771  10.4600000  2
   1551   1552   1554   1555     1  0.0000000  0.6508444  3
   1551   1553   1556   1557     1  0.0000000  0.6508444  3
   1551   1558   1559   1560     1  0.0000000  0.6508444  3
   1552   1551   1553   1556     1  0.0000000  0.6508444  3
   1552   1551   1558   1559     1  0.0000000  0.6508444  3
   1552   1554   1555   3403     1  0.0000000  0.2928800  2
   1552   1554   1555   3403     1  0.0000000  0.4184000  4
   1552   1554   1555   1561     1  180.0000771  0.0000000  2
   1553   1551   1552   1554     1  0.0000000  0.6508444  3
   1553   1551   1558   1559     1  0.0000000  0.6508444  3
   1553   1556   1557   1562     1  180.0000771  0.0000000  2
   1553   1556   1557   3433     1  0.0000000  0.2928800  2
   1553   1556   1557   3433     1  0.0000000  0.4184000  4
   1554   1552   1551   1558     1  0.0000000  0.6508444  3
   1554   1555   3403   3405     1  180.0000771  6.2760000  1
   1554   1555   3403   3405     1  0.0000000  0.0000000  2
   1555   3403   3405   3407     1  0.0000000  2.2175200  1
   1555   3403   3405   3407     1  0.0000000  0.0000000  2
   1555   3403   3405   3407     1  180.0000771  0.6276000  3
   1555   3403   3405   3407     1  180.0000771  2.0920000  4
   1556   1553   1551   1558     1  0.0000000  0.6508444  3
   1556   1557   3433   3435     1  180.0000771  6.2760000  1
   1556   1557   3433   3435     1  0.0000000  0.0000000  2
   1557   3433   3435   3437     1  0.0000000  2.2175200  1
   1557   3433   3435   3437     1  0.0000000  0.0000000  2
   1557   3433   3435   3437     1  180.0000771  0.6276000  3
   1557   3433   3435   3437     1  180.0000771  2.0920000  4
   1561   1555   3403   3405     1  180.0000771  10.4600000  2
   1562   1557   3433   3435     1  180.0000771  10.4600000  2
   1577   1578   1580   1581     1  0.0000000  0.6508444  3
   1577   1579   1582   1583     1  0.0000000  0.6508444  3
   1577   1584   1585   1586     1  0.0000000  0.6508444  3
   1578   1577   1579   1582     1  0.0000000  0.6508444  3
   1578   1577   1584   1585     1  0.0000000  0.6508444  3
   1578   1580   1581   3463     1  0.0000000  0.2928800  2
   1578   1580   1581   3463     1  0.0000000  0.4184000  4
   1578   1580   1581   1587     1  180.0000771  0.0000000  2
   1579   1577   1578   1580     1  0.0000000  0.6508444  3
   1579   1577   1584   1585     1  0.0000000  0.6508444  3
   1579   1582   1583   3493     1  0.0000000  0.2928800  2
   1579   1582   1583   3493     1  0.0000000  0.4184000  4
   1579   1582   1583   1588     1  180.0000771  0.0000000  2
   1580   1578   1577   1584     1  0.0000000  0.6508444  3
   1580   1581   3463   3465     1  180.0000771  6.2760000  1
   1580   1581   3463   3465     1  0.0000000  0.0000000  2
   1581   3463   3465   3467     1  0.0000000  2.2175200  1
   1581   3463   3465   3467     1  0.0000000  0.0000000  2
   1581   3463   3465   3467     1  180.0000771  0.6276000  3
   1581   3463   3465   3467     1  180.0000771  2.0920000  4
   1582   1579   1577   1584     1  0.0000000  0.6508444  3
   1582   1583   3493   3495     1  180.0000771  6.2760000  1
   1582   1583   3493   3495     1  0.0000000  0.0000000  2
   1583   3493   3495   3497     1  0.0000000  2.2175200  1
   1583   3493   3495   3497     1  0.0000000  0.0000000  2
   1583   3493   3495   3497     1  180.0000771  0.6276000  3
   1583   3493   3495   3497     1  180.0000771  2.0920000  4
   1587   1581   3463   3465     1  180.0000771  10.4600000  2
   1588   1583   3493   3495     1  180.0000771  10.4600000  2
   1603   1605   1607   1611     1  0.0000000  0.6508444  3
   1605   1607   1611   1612     1  0.0000000  0.6508444  3
   1605   1607   1611   1613     1  0.0000000  0.6508444  3
   1607   1611   1612   1624     1  0.0000000  0.6508444  3
   1607   1611   1613   1615     1  0.0000000  0.6508444  3
   1611   1612   1624   1627     1  0.0000000  0.6508444  3
   1611   1613   1615   1619     1  0.0000000  0.6508444  3
   1612   1611   1613   1615     1  0.0000000  0.6508444  3
   1612   1624   1627   1628     1  180.0000771  0.0000000  2
   1612   1624   1627   1629     1  180.0000771  0.0000000  2
   1613   1611   1612   1624     1  0.0000000  0.6508444  3
   1613   1615   1619   1620     1  180.0000771  0.0000000  2
   1613   1615   1619   1621     1  180.0000771  0.0000000  2
   1633   1635   1637   1641     1  0.0000000  0.6508444  3
   1635   1637   1641   1642     1  0.0000000  0.6508444  3
   1635   1637   1641   1643     1  0.0000000  0.6508444  3
   1637   1641   1642   1654     1  0.0000000  0.6508444  3
   1637   1641   1643   1645     1  0.0000000  0.6508444  3
   1641   1642   1654   1657     1  0.0000000  0.6508444  3
   1641   1643   1645   1649     1  0.0000000  0.6508444  3
   1642   1654   1657   1658     1  180.0000771  0.0000000  2
   1642   1654   1657   1659     1  180.0000771  0.0000000  2
   1642   1641   1643   1645     1  0.0000000  0.6508444  3
   1643   1645   1649   1650     1  180.0000771  0.0000000  2
   1643   1645   1649   1651     1  180.0000771  0.0000000  2
   1643   1641   1642   1654     1  0.0000000  0.6508444  3
   1663   1665   1667   1671     1  0.0000000  0.6508444  3
   1665   1667   1671   1672     1  0.0000000  0.6508444  3
   1665   1667   1671   1673     1  0.0000000  0.6508444  3
   1667   1671   1672   1684     1  0.0000000  0.6508444  3
   1667   1671   1673   1675     1  0.0000000  0.6508444  3
   1671   1672   1684   1687     1  0.0000000  0.6508444  3
   1671   1673   1675   1679     1  0.0000000  0.6508444  3
   1672   1671   1673   1675     1  0.0000000  0.6508444  3
   1672   1684   1687   1688     1  180.0000771  0.0000000  2
   1672   1684   1687   1689     1  180.0000771  0.0000000  2
   1673   1671   1672   1684     1  0.0000000  0.6508444  3
   1673   1675   1679   1680     1  180.0000771  0.0000000  2
   1673   1675   1679   1681     1  180.0000771  0.0000000  2
   1693   1695   1697   1701     1  0.0000000  0.6508444  3
   1695   1697   1701   1702     1  0.0000000  0.6508444  3
   1695   1697   1701   1703     1  0.0000000  0.6508444  3
   1697   1701   1702   1714     1  0.0000000  0.6508444  3
   1697   1701   1703   1705     1  0.0000000  0.6508444  3
   1701   1702   1714   1717     1  0.0000000  0.6508444  3
   1701   1703   1705   1709     1  0.0000000  0.6508444  3
   1702   1714   1717   1718     1  180.0000771  0.0000000  2
   1702   1714   1717   1719     1  180.0000771  0.0000000  2
   1702   1701   1703   1705     1  0.0000000  0.6508444  3
   1703   1705   1709   1710     1  180.0000771  0.0000000  2
   1703   1705   1709   1711     1  180.0000771  0.0000000  2
   1703   1701   1702   1714     1  0.0000000  0.6508444  3
   1723   1725   1727   1731     1  0.0000000  0.6508444  3
   1725   1727   1731   1732     1  0.0000000  0.6508444  3
   1725   1727   1731   1733     1  0.0000000  0.6508444  3
   1727   1731   1732   1744     1  0.0000000  0.6508444  3
   1727   1731   1733   1735     1  0.0000000  0.6508444  3
   1731   1732   1744   1747     1  0.0000000  0.6508444  3
   1731   1733   1735   1739     1  0.0000000  0.6508444  3
   1732   1731   1733   1735     1  0.0000000  0.6508444  3
   1732   1744   1747   1748     1  180.0000771  0.0000000  2
   1732   1744   1747   1749     1  180.0000771  0.0000000  2
   1733   1731   1732   1744     1  0.0000000  0.6508444  3
   1733   1735   1739   1740     1  180.0000771  0.0000000  2
   1733   1735   1739   1741     1  180.0000771  0.0000000  2
   1753   1755   1757   1761     1  0.0000000  0.6508444  3
   1755   1757   1761   1762     1  0.0000000  0.6508444  3
   1755   1757   1761   1763     1  0.0000000  0.6508444  3
   1757   1761   1762   1774     1  0.0000000  0.6508444  3
   1757   1761   1763   1765     1  0.0000000  0.6508444  3
   1761   1762   1774   1777     1  0.0000000  0.6508444  3
   1761   1763   1765   1769     1  0.0000000  0.6508444  3
   1762   1774   1777   1778     1  180.0000771  0.0000000  2
   1762   1774   1777   1779     1  180.0000771  0.0000000  2
   1762   1761   1763   1765     1  0.0000000  0.6508444  3
   1763   1765   1769   1770     1  180.0000771  0.0000000  2
   1763   1765   1769   1771     1  180.0000771  0.0000000  2
   1763   1761   1762   1774     1  0.0000000  0.6508444  3
   1783   1785   1787   1791     1  0.0000000  0.6508444  3
   1785   1787   1791   1792     1  0.0000000  0.6508444  3
   1785   1787   1791   1793     1  0.0000000  0.6508444  3
   1787   1791   1792   1804     1  0.0000000  0.6508444  3
   1787   1791   1793   1795     1  0.0000000  0.6508444  3
   1791   1792   1804   1807     1  0.0000000  0.6508444  3
   1791   1793   1795   1799     1  0.0000000  0.6508444  3
   1792   1791   1793   1795     1  0.0000000  0.6508444  3
   1792   1804   1807   1808     1  180.0000771  0.0000000  2
   1792   1804   1807   1809     1  180.0000771  0.0000000  2
   1793   1791   1792   1804     1  0.0000000  0.6508444  3
   1793   1795   1799   1800     1  180.0000771  0.0000000  2
   1793   1795   1799   1801     1  180.0000771  0.0000000  2
   1813   1815   1817   1821     1  0.0000000  0.6508444  3
   1815   1817   1821   1822     1  0.0000000  0.6508444  3
   1815   1817   1821   1823     1  0.0000000  0.6508444  3
   1817   1821   1822   1834     1  0.0000000  0.6508444  3
   1817   1821   1823   1825     1  0.0000000  0.6508444  3
   1821   1822   1834   1837     1  0.0000000  0.6508444  3
   1821   1823   1825   1829     1  0.0000000  0.6508444  3
   1822   1834   1837   1838     1  180.0000771  0.0000000  2
   1822   1834   1837   1839     1  180.0000771  0.0000000  2
   1822   1821   1823   1825     1  0.0000000  0.6508444  3
   1823   1825   1829   1830     1  180.0000771  0.0000000  2
   1823   1825   1829   1831     1  180.0000771  0.0000000  2
   1823   1821   1822   1834     1  0.0000000  0.6508444  3
   1843   1845   1847   1851     1  0.0000000  0.6508444  3
   1845   1847   1851   1852     1  0.0000000  0.6508444  3
   1845   1847   1851   1853     1  0.0000000  0.6508444  3
   1847   1851   1852   1864     1  0.0000000  0.6508444  3
   1847   1851   1853   1855     1  0.0000000  0.6508444  3
   1851   1852   1864   1867     1  0.0000000  0.6508444  3
   1851   1853   1855   1859     1  0.0000000  0.6508444  3
   1852   1851   1853   1855     1  0.0000000  0.6508444  3
   1852   1864   1867   1868     1  180.0000771  0.0000000  2
   1852   1864   1867   1869     1  180.0000771  0.0000000  2
   1853   1851   1852   1864     1  0.0000000  0.6508444  3
   1853   1855   1859   1860     1  180.0000771  0.0000000  2
   1853   1855   1859   1861     1  180.0000771  0.0000000  2
   1873   1875   1877   1881     1  0.0000000  0.6508444  3
   1875   1877   1881   1882     1  0.0000000  0.6508444  3
   1875   1877   1881   1883     1  0.0000000  0.6508444  3
   1877   1881   1882   1894     1  0.0000000  0.6508444  3
   1877   1881   1883   1885     1  0.0000000  0.6508444  3
   1881   1882   1894   1897     1  0.0000000  0.6508444  3
   1881   1883   1885   1889     1  0.0000000  0.6508444  3
   1882   1894   1897   1898     1  180.0000771  0.0000000  2
   1882   1894   1897   1899     1  180.0000771  0.0000000  2
   1882   1881   1883   1885     1  0.0000000  0.6508444  3
   1883   1885   1889   1890     1  180.0000771  0.0000000  2
   1883   1885   1889   1891     1  180.0000771  0.0000000  2
   1883   1881   1882   1894     1  0.0000000  0.6508444  3
   1903   1905   1907   1911     1  0.0000000  0.6508444  3
   1905   1907   1911   1912     1  0.0000000  0.6508444  3
   1905   1907   1911   1913     1  0.0000000  0.6508444  3
   1907   1911   1912   1924     1  0.0000000  0.6508444  3
   1907   1911   1913   1915     1  0.0000000  0.6508444  3
   1911   1912   1924   1927     1  0.0000000  0.6508444  3
   1911   1913   1915   1919     1  0.0000000  0.6508444  3
   1912   1911   1913   1915     1  0.0000000  0.6508444  3
   1912   1924   1927   1928     1  180.0000771  0.0000000  2
   1912   1924   1927   1929     1  180.0000771  0.0000000  2
   1913   1911   1912   1924     1  0.0000000  0.6508444  3
   1913   1915   1919   1920     1  180.0000771  0.0000000  2
   1913   1915   1919   1921     1  180.0000771  0.0000000  2
   1933   1935   1937   1941     1  0.0000000  0.6508444  3
   1935   1937   1941   1942     1  0.0000000  0.6508444  3
   1935   1937   1941   1943     1  0.0000000  0.6508444  3
   1937   1941   1942   1954     1  0.0000000  0.6508444  3
   1937   1941   1943   1945     1  0.0000000  0.6508444  3
   1941   1942   1954   1957     1  0.0000000  0.6508444  3
   1941   1943   1945   1949     1  0.0000000  0.6508444  3
   1942   1954   1957   1958     1  180.0000771  0.0000000  2
   1942   1954   1957   1959     1  180.0000771  0.0000000  2
   1942   1941   1943   1945     1  0.0000000  0.6508444  3
   1943   1945   1949   1950     1  180.0000771  0.0000000  2
   1943   1945   1949   1951     1  180.0000771  0.0000000  2
   1943   1941   1942   1954     1  0.0000000  0.6508444  3
   1963   1965   1967   1971     1  0.0000000  0.6508444  3
   1965   1967   1971   1972     1  0.0000000  0.6508444  3
   1965   1967   1971   1973     1  0.0000000  0.6508444  3
   1967   1971   1972   1984     1  0.0000000  0.6508444  3
   1967   1971   1973   1975     1  0.0000000  0.6508444  3
   1971   1972   1984   1987     1  0.0000000  0.6508444  3
   1971   1973   1975   1979     1  0.0000000  0.6508444  3
   1972   1971   1973   1975     1  0.0000000  0.6508444  3
   1972   1984   1987   1988     1  180.0000771  0.0000000  2
   1972   1984   1987   1989     1  180.0000771  0.0000000  2
   1973   1971   1972   1984     1  0.0000000  0.6508444  3
   1973   1975   1979   1980     1  180.0000771  0.0000000  2
   1973   1975   1979   1981     1  180.0000771  0.0000000  2
   1993   1995   1997   2001     1  0.0000000  0.6508444  3
   1995   1997   2001   2002     1  0.0000000  0.6508444  3
   1995   1997   2001   2003     1  0.0000000  0.6508444  3
   1997   2001   2002   2014     1  0.0000000  0.6508444  3
   1997   2001   2003   2005     1  0.0000000  0.6508444  3
   2001   2002   2014   2017     1  0.0000000  0.6508444  3
   2001   2003   2005   2009     1  0.0000000  0.6508444  3
   2002   2014   2017   2018     1  180.0000771  0.0000000  2
   2002   2014   2017   2019     1  180.0000771  0.0000000  2
   2002   2001   2003   2005     1  0.0000000  0.6508444  3
   2003   2005   2009   2010     1  180.0000771  0.0000000  2
   2003   2005   2009   2011     1  180.0000771  0.0000000  2
   2003   2001   2002   2014     1  0.0000000  0.6508444  3
   2023   2025   2027   2031     1  0.0000000  0.6508444  3
   2025   2027   2031   2032     1  0.0000000  0.6508444  3
   2025   2027   2031   2033     1  0.0000000  0.6508444  3
   2027   2031   2032   2044     1  0.0000000  0.6508444  3
   2027   2031   2033   2035     1  0.0000000  0.6508444  3
   2031   2032   2044   2047     1  0.0000000  0.6508444  3
   2031   2033   2035   2039     1  0.0000000  0.6508444  3
   2032   2031   2033   2035     1  0.0000000  0.6508444  3
   2032   2044   2047   2048     1  180.0000771  0.0000000  2
   2032   2044   2047   2049     1  180.0000771  0.0000000  2
   2033   2031   2032   2044     1  0.0000000  0.6508444  3
   2033   2035   2039   2040     1  180.0000771  0.0000000  2
   2033   2035   2039   2041     1  180.0000771  0.0000000  2
   2053   2055   2057   2061     1  0.0000000  0.6508444  3
   2055   2057   2061   2062     1  0.0000000  0.6508444  3
   2055   2057   2061   2063     1  0.0000000  0.6508444  3
   2057   2061   2062   2074     1  0.0000000  0.6508444  3
   2057   2061   2063   2065     1  0.0000000  0.6508444  3
   2061   2062   2074   2077     1  0.0000000  0.6508444  3
   2061   2063   2065   2069     1  0.0000000  0.6508444  3
   2062   2074   2077   2078     1  180.0000771  0.0000000  2
   2062   2074   2077   2079     1  180.0000771  0.0000000  2
   2062   2061   2063   2065     1  0.0000000  0.6508444  3
   2063   2065   2069   2070     1  180.0000771  0.0000000  2
   2063   2065   2069   2071     1  180.0000771  0.0000000  2
   2063   2061   2062   2074     1  0.0000000  0.6508444  3
   2083   2085   2087   2091     1  0.0000000  0.6508444  3
   2085   2087   2091   2092     1  0.0000000  0.6508444  3
   2085   2087   2091   2093     1  0.0000000  0.6508444  3
   2087   2091   2092   2104     1  0.0000000  0.6508444  3
   2087   2091   2093   2095     1  0.0000000  0.6508444  3
   2091   2092   2104   2107     1  0.0000000  0.6508444  3
   2091   2093   2095   2099     1  0.0000000  0.6508444  3
   2092   2091   2093   2095     1  0.0000000  0.6508444  3
   2092   2104   2107   2108     1  180.0000771  0.0000000  2
   2092   2104   2107   2109     1  180.0000771  0.0000000  2
   2093   2091   2092   2104     1  0.0000000  0.6508444  3
   2093   2095   2099   2100     1  180.0000771  0.0000000  2
   2093   2095   2099   2101     1  180.0000771  0.0000000  2
   2113   2115   2117   2121     1  0.0000000  0.6508444  3
   2115   2117   2121   2122     1  0.0000000  0.6508444  3
   2115   2117   2121   2123     1  0.0000000  0.6508444  3
   2117   2121   2122   2134     1  0.0000000  0.6508444  3
   2117   2121   2123   2125     1  0.0000000  0.6508444  3
   2121   2122   2134   2137     1  0.0000000  0.6508444  3
   2121   2123   2125   2129     1  0.0000000  0.6508444  3
   2122   2134   2137   2138     1  180.0000771  0.0000000  2
   2122   2134   2137   2139     1  180.0000771  0.0000000  2
   2122   2121   2123   2125     1  0.0000000  0.6508444  3
   2123   2125   2129   2130     1  180.0000771  0.0000000  2
   2123   2125   2129   2131     1  180.0000771  0.0000000  2
   2123   2121   2122   2134     1  0.0000000  0.6508444  3
   2143   2145   2147   2151     1  0.0000000  0.6508444  3
   2145   2147   2151   2152     1  0.0000000  0.6508444  3
   2145   2147   2151   2153     1  0.0000000  0.6508444  3
   2147   2151   2152   2164     1  0.0000000  0.6508444  3
   2147   2151   2153   2155     1  0.0000000  0.6508444  3
   2151   2152   2164   2167     1  0.0000000  0.6508444  3
   2151   2153   2155   2159     1  0.0000000  0.6508444  3
   2152   2151   2153   2155     1  0.0000000  0.6508444  3
   2152   2164   2167   2168     1  180.0000771  0.0000000  2
   2152   2164   2167   2169     1  180.0000771  0.0000000  2
   2153   2151   2152   2164     1  0.0000000  0.6508444  3
   2153   2155   2159   2160     1  180.0000771  0.0000000  2
   2153   2155   2159   2161     1  180.0000771  0.0000000  2
   2173   2175   2177   2181     1  0.0000000  0.6508444  3
   2175   2177   2181   2182     1  0.0000000  0.6508444  3
   2175   2177   2181   2183     1  0.0000000  0.6508444  3
   2177   2181   2182   2194     1  0.0000000  0.6508444  3
   2177   2181   2183   2185     1  0.0000000  0.6508444  3
   2181   2182   2194   2197     1  0.0000000  0.6508444  3
   2181   2183   2185   2189     1  0.0000000  0.6508444  3
   2182   2194   2197   2198     1  180.0000771  0.0000000  2
   2182   2194   2197   2199     1  180.0000771  0.0000000  2
   2182   2181   2183   2185     1  0.0000000  0.6508444  3
   2183   2185   2189   2190     1  180.0000771  0.0000000  2
   2183   2185   2189   2191     1  180.0000771  0.0000000  2
   2183   2181   2182   2194     1  0.0000000  0.6508444  3
   2203   2205   2207   2211     1  0.0000000  0.6508444  3
   2205   2207   2211   2212     1  0.0000000  0.6508444  3
   2205   2207   2211   2213     1  0.0000000  0.6508444  3
   2207   2211   2212   2224     1  0.0000000  0.6508444  3
   2207   2211   2213   2215     1  0.0000000  0.6508444  3
   2211   2212   2224   2227     1  0.0000000  0.6508444  3
   2211   2213   2215   2219     1  0.0000000  0.6508444  3
   2212   2211   2213   2215     1  0.0000000  0.6508444  3
   2212   2224   2227   2228     1  180.0000771  0.0000000  2
   2212   2224   2227   2229     1  180.0000771  0.0000000  2
   2213   2211   2212   2224     1  0.0000000  0.6508444  3
   2213   2215   2219   2220     1  180.0000771  0.0000000  2
   2213   2215   2219   2221     1  180.0000771  0.0000000  2
   2233   2235   2237   2241     1  0.0000000  0.6508444  3
   2235   2237   2241   2242     1  0.0000000  0.6508444  3
   2235   2237   2241   2243     1  0.0000000  0.6508444  3
   2237   2241   2242   2254     1  0.0000000  0.6508444  3
   2237   2241   2243   2245     1  0.0000000  0.6508444  3
   2241   2242   2254   2257     1  0.0000000  0.6508444  3
   2241   2243   2245   2249     1  0.0000000  0.6508444  3
   2242   2254   2257   2258     1  180.0000771  0.0000000  2
   2242   2254   2257   2259     1  180.0000771  0.0000000  2
   2242   2241   2243   2245     1  0.0000000  0.6508444  3
   2243   2245   2249   2250     1  180.0000771  0.0000000  2
   2243   2245   2249   2251     1  180.0000771  0.0000000  2
   2243   2241   2242   2254     1  0.0000000  0.6508444  3
   2263   2265   2267   2271     1  0.0000000  0.6508444  3
   2265   2267   2271   2272     1  0.0000000  0.6508444  3
   2265   2267   2271   2273     1  0.0000000  0.6508444  3
   2267   2271   2272   2284     1  0.0000000  0.6508444  3
   2267   2271   2273   2275     1  0.0000000  0.6508444  3
   2271   2272   2284   2287     1  0.0000000  0.6508444  3
   2271   2273   2275   2279     1  0.0000000  0.6508444  3
   2272   2271   2273   2275     1  0.0000000  0.6508444  3
   2272   2284   2287   2288     1  180.0000771  0.0000000  2
   2272   2284   2287   2289     1  180.0000771  0.0000000  2
   2273   2271   2272   2284     1  0.0000000  0.6508444  3
   2273   2275   2279   2280     1  180.0000771  0.0000000  2
   2273   2275   2279   2281     1  180.0000771  0.0000000  2
   2293   2295   2297   2301     1  0.0000000  0.6508444  3
   2295   2297   2301   2302     1  0.0000000  0.6508444  3
   2295   2297   2301   2303     1  0.0000000  0.6508444  3
   2297   2301   2302   2314     1  0.0000000  0.6508444  3
   2297   2301   2303   2305     1  0.0000000  0.6508444  3
   2301   2302   2314   2317     1  0.0000000  0.6508444  3
   2301   2303   2305   2309     1  0.0000000  0.6508444  3
   2302   2314   2317   2318     1  180.0000771  0.0000000  2
   2302   2314   2317   2319     1  180.0000771  0.0000000  2
   2302   2301   2303   2305     1  0.0000000  0.6508444  3
   2303   2305   2309   2310     1  180.0000771  0.0000000  2
   2303   2305   2309   2311     1  180.0000771  0.0000000  2
   2303   2301   2302   2314     1  0.0000000  0.6508444  3
   2323   2325   2327   2331     1  0.0000000  0.6508444  3
   2325   2327   2331   2332     1  0.0000000  0.6508444  3
   2325   2327   2331   2333     1  0.0000000  0.6508444  3
   2327   2331   2332   2344     1  0.0000000  0.6508444  3
   2327   2331   2333   2335     1  0.0000000  0.6508444  3
   2331   2332   2344   2347     1  0.0000000  0.6508444  3
   2331   2333   2335   2339     1  0.0000000  0.6508444  3
   2332   2331   2333   2335     1  0.0000000  0.6508444  3
   2332   2344   2347   2348     1  180.0000771  0.0000000  2
   2332   2344   2347   2349     1  180.0000771  0.0000000  2
   2333   2331   2332   2344     1  0.0000000  0.6508444  3
   2333   2335   2339   2340     1  180.0000771  0.0000000  2
   2333   2335   2339   2341     1  180.0000771  0.0000000  2
   2353   2355   2357   2361     1  0.0000000  0.6508444  3
   2355   2357   2361   2362     1  0.0000000  0.6508444  3
   2355   2357   2361   2363     1  0.0000000  0.6508444  3
   2357   2361   2362   2374     1  0.0000000  0.6508444  3
   2357   2361   2363   2365     1  0.0000000  0.6508444  3
   2361   2362   2374   2377     1  0.0000000  0.6508444  3
   2361   2363   2365   2369     1  0.0000000  0.6508444  3
   2362   2374   2377   2378     1  180.0000771  0.0000000  2
   2362   2374   2377   2379     1  180.0000771  0.0000000  2
   2362   2361   2363   2365     1  0.0000000  0.6508444  3
   2363   2365   2369   2370     1  180.0000771  0.0000000  2
   2363   2365   2369   2371     1  180.0000771  0.0000000  2
   2363   2361   2362   2374     1  0.0000000  0.6508444  3
   2383   2385   2387   2391     1  0.0000000  0.6508444  3
   2385   2387   2391   2392     1  0.0000000  0.6508444  3
   2385   2387   2391   2393     1  0.0000000  0.6508444  3
   2387   2391   2392   2404     1  0.0000000  0.6508444  3
   2387   2391   2393   2395     1  0.0000000  0.6508444  3
   2391   2392   2404   2407     1  0.0000000  0.6508444  3
   2391   2393   2395   2399     1  0.0000000  0.6508444  3
   2392   2391   2393   2395     1  0.0000000  0.6508444  3
   2392   2404   2407   2408     1  180.0000771  0.0000000  2
   2392   2404   2407   2409     1  180.0000771  0.0000000  2
   2393   2391   2392   2404     1  0.0000000  0.6508444  3
   2393   2395   2399   2400     1  180.0000771  0.0000000  2
   2393   2395   2399   2401     1  180.0000771  0.0000000  2
   2413   2415   2417   2421     1  0.0000000  0.6508444  3
   2415   2417   2421   2422     1  0.0000000  0.6508444  3
   2415   2417   2421   2423     1  0.0000000  0.6508444  3
   2417   2421   2422   2434     1  0.0000000  0.6508444  3
   2417   2421   2423   2425     1  0.0000000  0.6508444  3
   2421   2422   2434   2437     1  0.0000000  0.6508444  3
   2421   2423   2425   2429     1  0.0000000  0.6508444  3
   2422   2434   2437   2438     1  180.0000771  0.0000000  2
   2422   2434   2437   2439     1  180.0000771  0.0000000  2
   2422   2421   2423   2425     1  0.0000000  0.6508444  3
   2423   2425   2429   2430     1  180.0000771  0.0000000  2
   2423   2425   2429   2431     1  180.0000771  0.0000000  2
   2423   2421   2422   2434     1  0.0000000  0.6508444  3
   2443   2445   2447   2451     1  0.0000000  0.6508444  3
   2445   2447   2451   2452     1  0.0000000  0.6508444  3
   2445   2447   2451   2453     1  0.0000000  0.6508444  3
   2447   2451   2452   2464     1  0.0000000  0.6508444  3
   2447   2451   2453   2455     1  0.0000000  0.6508444  3
   2451   2452   2464   2467     1  0.0000000  0.6508444  3
   2451   2453   2455   2459     1  0.0000000  0.6508444  3
   2452   2451   2453   2455     1  0.0000000  0.6508444  3
   2452   2464   2467   2468     1  180.0000771  0.0000000  2
   2452   2464   2467   2469     1  180.0000771  0.0000000  2
   2453   2451   2452   2464     1  0.0000000  0.6508444  3
   2453   2455   2459   2460     1  180.0000771  0.0000000  2
   2453   2455   2459   2461     1  180.0000771  0.0000000  2
   2473   2475   2477   2481     1  0.0000000  0.6508444  3
   2475   2477   2481   2482     1  0.0000000  0.6508444  3
   2475   2477   2481   2483     1  0.0000000  0.6508444  3
   2477   2481   2482   2494     1  0.0000000  0.6508444  3
   2477   2481   2483   2485     1  0.0000000  0.6508444  3
   2481   2482   2494   2497     1  0.0000000  0.6508444  3
   2481   2483   2485   2489     1  0.0000000  0.6508444  3
   2482   2494   2497   2498     1  180.0000771  0.0000000  2
   2482   2494   2497   2499     1  180.0000771  0.0000000  2
   2482   2481   2483   2485     1  0.0000000  0.6508444  3
   2483   2485   2489   2490     1  180.0000771  0.0000000  2
   2483   2485   2489   2491     1  180.0000771  0.0000000  2
   2483   2481   2482   2494     1  0.0000000  0.6508444  3
   2503   2505   2507   2511     1  0.0000000  0.6508444  3
   2505   2507   2511   2512     1  0.0000000  0.6508444  3
   2505   2507   2511   2513     1  0.0000000  0.6508444  3
   2507   2511   2512   2524     1  0.0000000  0.6508444  3
   2507   2511   2513   2515     1  0.0000000  0.6508444  3
   2511   2512   2524   2527     1  0.0000000  0.6508444  3
   2511   2513   2515   2519     1  0.0000000  0.6508444  3
   2512   2511   2513   2515     1  0.0000000  0.6508444  3
   2512   2524   2527   2528     1  180.0000771  0.0000000  2
   2512   2524   2527   2529     1  180.0000771  0.0000000  2
   2513   2511   2512   2524     1  0.0000000  0.6508444  3
   2513   2515   2519   2520     1  180.0000771  0.0000000  2
   2513   2515   2519   2521     1  180.0000771  0.0000000  2
   2533   2535   2537   2541     1  0.0000000  0.6508444  3
   2535   2537   2541   2542     1  0.0000000  0.6508444  3
   2535   2537   2541   2543     1  0.0000000  0.6508444  3
   2537   2541   2542   2554     1  0.0000000  0.6508444  3
   2537   2541   2543   2545     1  0.0000000  0.6508444  3
   2541   2542   2554   2557     1  0.0000000  0.6508444  3
   2541   2543   2545   2549     1  0.0000000  0.6508444  3
   2542   2554   2557   2558     1  180.0000771  0.0000000  2
   2542   2554   2557   2559     1  180.0000771  0.0000000  2
   2542   2541   2543   2545     1  0.0000000  0.6508444  3
   2543   2545   2549   2550     1  180.0000771  0.0000000  2
   2543   2545   2549   2551     1  180.0000771  0.0000000  2
   2543   2541   2542   2554     1  0.0000000  0.6508444  3
   2563   2565   2567   2571     1  0.0000000  0.6508444  3
   2565   2567   2571   2572     1  0.0000000  0.6508444  3
   2565   2567   2571   2573     1  0.0000000  0.6508444  3
   2567   2571   2572   2584     1  0.0000000  0.6508444  3
   2567   2571   2573   2575     1  0.0000000  0.6508444  3
   2571   2572   2584   2587     1  0.0000000  0.6508444  3
   2571   2573   2575   2579     1  0.0000000  0.6508444  3
   2572   2571   2573   2575     1  0.0000000  0.6508444  3
   2572   2584   2587   2588     1  180.0000771  0.0000000  2
   2572   2584   2587   2589     1  180.0000771  0.0000000  2
   2573   2571   2572   2584     1  0.0000000  0.6508444  3
   2573   2575   2579   2580     1  180.0000771  0.0000000  2
   2573   2575   2579   2581     1  180.0000771  0.0000000  2
   2593   2595   2597   2601     1  0.0000000  0.6508444  3
   2595   2597   2601   2602     1  0.0000000  0.6508444  3
   2595   2597   2601   2603     1  0.0000000  0.6508444  3
   2597   2601   2602   2614     1  0.0000000  0.6508444  3
   2597   2601   2603   2605     1  0.0000000  0.6508444  3
   2601   2602   2614   2617     1  0.0000000  0.6508444  3
   2601   2603   2605   2609     1  0.0000000  0.6508444  3
   2602   2614   2617   2618     1  180.0000771  0.0000000  2
   2602   2614   2617   2619     1  180.0000771  0.0000000  2
   2602   2601   2603   2605     1  0.0000000  0.6508444  3
   2603   2605   2609   2610     1  180.0000771  0.0000000  2
   2603   2605   2609   2611     1  180.0000771  0.0000000  2
   2603   2601   2602   2614     1  0.0000000  0.6508444  3
   2623   2625   2627   2631     1  0.0000000  0.6508444  3
   2625   2627   2631   2632     1  0.0000000  0.6508444  3
   2625   2627   2631   2633     1  0.0000000  0.6508444  3
   2627   2631   2632   2644     1  0.0000000  0.6508444  3
   2627   2631   2633   2635     1  0.0000000  0.6508444  3
   2631   2632   2644   2647     1  0.0000000  0.6508444  3
   2631   2633   2635   2639     1  0.0000000  0.6508444  3
   2632   2631   2633   2635     1  0.0000000  0.6508444  3
   2632   2644   2647   2648     1  180.0000771  0.0000000  2
   2632   2644   2647   2649     1  180.0000771  0.0000000  2
   2633   2631   2632   2644     1  0.0000000  0.6508444  3
   2633   2635   2639   2640     1  180.0000771  0.0000000  2
   2633   2635   2639   2641     1  180.0000771  0.0000000  2
   2653   2655   2657   2661     1  0.0000000  0.6508444  3
   2655   2657   2661   2662     1  0.0000000  0.6508444  3
   2655   2657   2661   2663     1  0.0000000  0.6508444  3
   2657   2661   2662   2674     1  0.0000000  0.6508444  3
   2657   2661   2663   2665     1  0.0000000  0.6508444  3
   2661   2662   2674   2677     1  0.0000000  0.6508444  3
   2661   2663   2665   2669     1  0.0000000  0.6508444  3
   2662   2674   2677   2678     1  180.0000771  0.0000000  2
   2662   2674   2677   2679     1  180.0000771  0.0000000  2
   2662   2661   2663   2665     1  0.0000000  0.6508444  3
   2663   2665   2669   2670     1  180.0000771  0.0000000  2
   2663   2665   2669   2671     1  180.0000771  0.0000000  2
   2663   2661   2662   2674     1  0.0000000  0.6508444  3
   2683   2685   2687   2691     1  0.0000000  0.6508444  3
   2685   2687   2691   2692     1  0.0000000  0.6508444  3
   2685   2687   2691   2693     1  0.0000000  0.6508444  3
   2687   2691   2692   2704     1  0.0000000  0.6508444  3
   2687   2691   2693   2695     1  0.0000000  0.6508444  3
   2691   2692   2704   2707     1  0.0000000  0.6508444  3
   2691   2693   2695   2699     1  0.0000000  0.6508444  3
   2692   2691   2693   2695     1  0.0000000  0.6508444  3
   2692   2704   2707   2708     1  180.0000771  0.0000000  2
   2692   2704   2707   2709     1  180.0000771  0.0000000  2
   2693   2691   2692   2704     1  0.0000000  0.6508444  3
   2693   2695   2699   2700     1  180.0000771  0.0000000  2
   2693   2695   2699   2701     1  180.0000771  0.0000000  2
   2713   2715   2717   2721     1  0.0000000  0.6508444  3
   2715   2717   2721   2722     1  0.0000000  0.6508444  3
   2715   2717   2721   2723     1  0.0000000  0.6508444  3
   2717   2721   2722   2734     1  0.0000000  0.6508444  3
   2717   2721   2723   2725     1  0.0000000  0.6508444  3
   2721   2722   2734   2737     1  0.0000000  0.6508444  3
   2721   2723   2725   2729     1  0.0000000  0.6508444  3
   2722   2734   2737   2738     1  180.0000771  0.0000000  2
   2722   2734   2737   2739     1  180.0000771  0.0000000  2
   2722   2721   2723   2725     1  0.0000000  0.6508444  3
   2723   2725   2729   2730     1  180.0000771  0.0000000  2
   2723   2725   2729   2731     1  180.0000771  0.0000000  2
   2723   2721   2722   2734     1  0.0000000  0.6508444  3
   2743   2745   2747   2751     1  0.0000000  0.6508444  3
   2745   2747   2751   2752     1  0.0000000  0.6508444  3
   2745   2747   2751   2753     1  0.0000000  0.6508444  3
   2747   2751   2752   2764     1  0.0000000  0.6508444  3
   2747   2751   2753   2755     1  0.0000000  0.6508444  3
   2751   2752   2764   2767     1  0.0000000  0.6508444  3
   2751   2753   2755   2759     1  0.0000000  0.6508444  3
   2752   2751   2753   2755     1  0.0000000  0.6508444  3
   2752   2764   2767   2768     1  180.0000771  0.0000000  2
   2752   2764   2767   2769     1  180.0000771  0.0000000  2
   2753   2751   2752   2764     1  0.0000000  0.6508444  3
   2753   2755   2759   2760     1  180.0000771  0.0000000  2
   2753   2755   2759   2761     1  180.0000771  0.0000000  2
   2773   2775   2777   2781     1  0.0000000  0.6508444  3
   2775   2777   2781   2782     1  0.0000000  0.6508444  3
   2775   2777   2781   2783     1  0.0000000  0.6508444  3
   2777   2781   2782   2794     1  0.0000000  0.6508444  3
   2777   2781   2783   2785     1  0.0000000  0.6508444  3
   2781   2782   2794   2797     1  0.0000000  0.6508444  3
   2781   2783   2785   2789     1  0.0000000  0.6508444  3
   2782   2794   2797   2798     1  180.0000771  0.0000000  2
   2782   2794   2797   2799     1  180.0000771  0.0000000  2
   2782   2781   2783   2785     1  0.0000000  0.6508444  3
   2783   2785   2789   2790     1  180.0000771  0.0000000  2
   2783   2785   2789   2791     1  180.0000771  0.0000000  2
   2783   2781   2782   2794     1  0.0000000  0.6508444  3
   2803   2805   2807   2811     1  0.0000000  0.6508444  3
   2805   2807   2811   2812     1  0.0000000  0.6508444  3
   2805   2807   2811   2813     1  0.0000000  0.6508444  3
   2807   2811   2812   2824     1  0.0000000  0.6508444  3
   2807   2811   2813   2815     1  0.0000000  0.6508444  3
   2811   2812   2824   2827     1  0.0000000  0.6508444  3
   2811   2813   2815   2819     1  0.0000000  0.6508444  3
   2812   2811   2813   2815     1  0.0000000  0.6508444  3
   2812   2824   2827   2828     1  180.0000771  0.0000000  2
   2812   2824   2827   2829     1  180.0000771  0.0000000  2
   2813   2811   2812   2824     1  0.0000000  0.6508444  3
   2813   2815   2819   2820     1  180.0000771  0.0000000  2
   2813   2815   2819   2821     1  180.0000771  0.0000000  2
   2833   2835   2837   2841     1  0.0000000  0.6508444  3
   2835   2837   2841   2842     1  0.0000000  0.6508444  3
   2835   2837   2841   2843     1  0.0000000  0.6508444  3
   2837   2841   2842   2854     1  0.0000000  0.6508444  3
   2837   2841   2843   2845     1  0.0000000  0.6508444  3
   2841   2842   2854   2857     1  0.0000000  0.6508444  3
   2841   2843   2845   2849     1  0.0000000  0.6508444  3
   2842   2854   2857   2858     1  180.0000771  0.0000000  2
   2842   2854   2857   2859     1  180.0000771  0.0000000  2
   2842   2841   2843   2845     1  0.0000000  0.6508444  3
   2843   2845   2849   2850     1  180.0000771  0.0000000  2
   2843   2845   2849   2851     1  180.0000771  0.0000000  2
   2843   2841   2842   2854     1  0.0000000  0.6508444  3
   2863   2865   2867   2871     1  0.0000000  0.6508444  3
   2865   2867   2871   2872     1  0.0000000  0.6508444  3
   2865   2867   2871   2873     1  0.0000000  0.6508444  3
   2867   2871   2872   2884     1  0.0000000  0.6508444  3
   2867   2871   2873   2875     1  0.0000000  0.6508444  3
   2871   2872   2884   2887     1  0.0000000  0.6508444  3
   2871   2873   2875   2879     1  0.0000000  0.6508444  3
   2872   2871   2873   2875     1  0.0000000  0.6508444  3
   2872   2884   2887   2888     1  180.0000771  0.0000000  2
   2872   2884   2887   2889     1  180.0000771  0.0000000  2
   2873   2871   2872   2884     1  0.0000000  0.6508444  3
   2873   2875   2879   2880     1  180.0000771  0.0000000  2
   2873   2875   2879   2881     1  180.0000771  0.0000000  2
   2893   2895   2897   2901     1  0.0000000  0.6508444  3
   2895   2897   2901   2902     1  0.0000000  0.6508444  3
   2895   2897   2901   2903     1  0.0000000  0.6508444  3
   2897   2901   2902   2914     1  0.0000000  0.6508444  3
   2897   2901   2903   2905     1  0.0000000  0.6508444  3
   2901   2902   2914   2917     1  0.0000000  0.6508444  3
   2901   2903   2905   2909     1  0.0000000  0.6508444  3
   2902   2914   2917   2918     1  180.0000771  0.0000000  2
   2902   2914   2917   2919     1  180.0000771  0.0000000  2
   2902   2901   2903   2905     1  0.0000000  0.6508444  3
   2903   2905   2909   2910     1  180.0000771  0.0000000  2
   2903   2905   2909   2911     1  180.0000771  0.0000000  2
   2903   2901   2902   2914     1  0.0000000  0.6508444  3
   2923   2925   2927   2931     1  0.0000000  0.6508444  3
   2925   2927   2931   2932     1  0.0000000  0.6508444  3
   2925   2927   2931   2933     1  0.0000000  0.6508444  3
   2927   2931   2932   2944     1  0.0000000  0.6508444  3
   2927   2931   2933   2935     1  0.0000000  0.6508444  3
   2931   2932   2944   2947     1  0.0000000  0.6508444  3
   2931   2933   2935   2939     1  0.0000000  0.6508444  3
   2932   2931   2933   2935     1  0.0000000  0.6508444  3
   2932   2944   2947   2948     1  180.0000771  0.0000000  2
   2932   2944   2947   2949     1  180.0000771  0.0000000  2
   2933   2931   2932   2944     1  0.0000000  0.6508444  3
   2933   2935   2939   2940     1  180.0000771  0.0000000  2
   2933   2935   2939   2941     1  180.0000771  0.0000000  2
   2953   2955   2957   2961     1  0.0000000  0.6508444  3
   2955   2957   2961   2962     1  0.0000000  0.6508444  3
   2955   2957   2961   2963     1  0.0000000  0.6508444  3
   2957   2961   2962   2974     1  0.0000000  0.6508444  3
   2957   2961   2963   2965     1  0.0000000  0.6508444  3
   2961   2962   2974   2977     1  0.0000000  0.6508444  3
   2961   2963   2965   2969     1  0.0000000  0.6508444  3
   2962   2974   2977   2978     1  180.0000771  0.0000000  2
   2962   2974   2977   2979     1  180.0000771  0.0000000  2
   2962   2961   2963   2965     1  0.0000000  0.6508444  3
   2963   2965   2969   2970     1  180.0000771  0.0000000  2
   2963   2965   2969   2971     1  180.0000771  0.0000000  2
   2963   2961   2962   2974     1  0.0000000  0.6508444  3
   2983   2985   2987   2991     1  0.0000000  0.6508444  3
   2985   2987   2991   2992     1  0.0000000  0.6508444  3
   2985   2987   2991   2993     1  0.0000000  0.6508444  3
   2987   2991   2992   3004     1  0.0000000  0.6508444  3
   2987   2991   2993   2995     1  0.0000000  0.6508444  3
   2991   2992   3004   3007     1  0.0000000  0.6508444  3
   2991   2993   2995   2999     1  0.0000000  0.6508444  3
   2992   2991   2993   2995     1  0.0000000  0.6508444  3
   2992   3004   3007   3008     1  180.0000771  0.0000000  2
   2992   3004   3007   3009     1  180.0000771  0.0000000  2
   2993   2991   2992   3004     1  0.0000000  0.6508444  3
   2993   2995   2999   3000     1  180.0000771  0.0000000  2
   2993   2995   2999   3001     1  180.0000771  0.0000000  2
   3013   3015   3017   3021     1  0.0000000  0.6508444  3
   3015   3017   3021   3022     1  0.0000000  0.6508444  3
   3015   3017   3021   3023     1  0.0000000  0.6508444  3
   3017   3021   3022   3034     1  0.0000000  0.6508444  3
   3017   3021   3023   3025     1  0.0000000  0.6508444  3
   3021   3022   3034   3037     1  0.0000000  0.6508444  3
   3021   3023   3025   3029     1  0.0000000  0.6508444  3
   3022   3034   3037   3038     1  180.0000771  0.0000000  2
   3022   3034   3037   3039     1  180.0000771  0.0000000  2
   3022   3021   3023   3025     1  0.0000000  0.6508444  3
   3023   3025   3029   3030     1  180.0000771  0.0000000  2
   3023   3025   3029   3031     1  180.0000771  0.0000000  2
   3023   3021   3022   3034     1  0.0000000  0.6508444  3
   3043   3045   3047   3051     1  0.0000000  0.6508444  3
   3045   3047   3051   3052     1  0.0000000  0.6508444  3
   3045   3047   3051   3053     1  0.0000000  0.6508444  3
   3047   3051   3052   3064     1  0.0000000  0.6508444  3
   3047   3051   3053   3055     1  0.0000000  0.6508444  3
   3051   3052   3064   3067     1  0.0000000  0.6508444  3
   3051   3053   3055   3059     1  0.0000000  0.6508444  3
   3052   3051   3053   3055     1  0.0000000  0.6508444  3
   3052   3064   3067   3068     1  180.0000771  0.0000000  2
   3052   3064   3067   3069     1  180.0000771  0.0000000  2
   3053   3051   3052   3064     1  0.0000000  0.6508444  3
   3053   3055   3059   3060     1  180.0000771  0.0000000  2
   3053   3055   3059   3061     1  180.0000771  0.0000000  2
   3073   3075   3077   3081     1  0.0000000  0.6508444  3
   3075   3077   3081   3082     1  0.0000000  0.6508444  3
   3075   3077   3081   3083     1  0.0000000  0.6508444  3
   3077   3081   3082   3094     1  0.0000000  0.6508444  3
   3077   3081   3083   3085     1  0.0000000  0.6508444  3
   3081   3082   3094   3097     1  0.0000000  0.6508444  3
   3081   3083   3085   3089     1  0.0000000  0.6508444  3
   3082   3094   3097   3098     1  180.0000771  0.0000000  2
   3082   3094   3097   3099     1  180.0000771  0.0000000  2
   3082   3081   3083   3085     1  0.0000000  0.6508444  3
   3083   3085   3089   3090     1  180.0000771  0.0000000  2
   3083   3085   3089   3091     1  180.0000771  0.0000000  2
   3083   3081   3082   3094     1  0.0000000  0.6508444  3
   3103   3105   3107   3111     1  0.0000000  0.6508444  3
   3105   3107   3111   3112     1  0.0000000  0.6508444  3
   3105   3107   3111   3113     1  0.0000000  0.6508444  3
   3107   3111   3112   3124     1  0.0000000  0.6508444  3
   3107   3111   3113   3115     1  0.0000000  0.6508444  3
   3111   3112   3124   3127     1  0.0000000  0.6508444  3
   3111   3113   3115   3119     1  0.0000000  0.6508444  3
   3112   3111   3113   3115     1  0.0000000  0.6508444  3
   3112   3124   3127   3128     1  180.0000771  0.0000000  2
   3112   3124   3127   3129     1  180.0000771  0.0000000  2
   3113   3111   3112   3124     1  0.0000000  0.6508444  3
   3113   3115   3119   3120     1  180.0000771  0.0000000  2
   3113   3115   3119   3121     1  180.0000771  0.0000000  2
   3133   3135   3137   3141     1  0.0000000  0.6508444  3
   3135   3137   3141   3142     1  0.0000000  0.6508444  3
   3135   3137   3141   3143     1  0.0000000  0.6508444  3
   3137   3141   3142   3154     1  0.0000000  0.6508444  3
   3137   3141   3143   3145     1  0.0000000  0.6508444  3
   3141   3142   3154   3157     1  0.0000000  0.6508444  3
   3141   3143   3145   3149     1  0.0000000  0.6508444  3
   3142   3154   3157   3158     1  180.0000771  0.0000000  2
   3142   3154   3157   3159     1  180.0000771  0.0000000  2
   3142   3141   3143   3145     1  0.0000000  0.6508444  3
   3143   3145   3149   3150     1  180.0000771  0.0000000  2
   3143   3145   3149   3151     1  180.0000771  0.0000000  2
   3143   3141   3142   3154     1  0.0000000  0.6508444  3
   3163   3165   3167   3171     1  0.0000000  0.6508444  3
   3165   3167   3171   3172     1  0.0000000  0.6508444  3
   3165   3167   3171   3173     1  0.0000000  0.6508444  3
   3167   3171   3172   3184     1  0.0000000  0.6508444  3
   3167   3171   3173   3175     1  0.0000000  0.6508444  3
   3171   3172   3184   3187     1  0.0000000  0.6508444  3
   3171   3173   3175   3179     1  0.0000000  0.6508444  3
   3172   3171   3173   3175     1  0.0000000  0.6508444  3
   3172   3184   3187   3188     1  180.0000771  0.0000000  2
   3172   3184   3187   3189     1  180.0000771  0.0000000  2
   3173   3171   3172   3184     1  0.0000000  0.6508444  3
   3173   3175   3179   3180     1  180.0000771  0.0000000  2
   3173   3175   3179   3181     1  180.0000771  0.0000000  2
   3193   3195   3197   3201     1  0.0000000  0.6508444  3
   3195   3197   3201   3202     1  0.0000000  0.6508444  3
   3195   3197   3201   3203     1  0.0000000  0.6508444  3
   3197   3201   3202   3214     1  0.0000000  0.6508444  3
   3197   3201   3203   3205     1  0.0000000  0.6508444  3
   3201   3202   3214   3217     1  0.0000000  0.6508444  3
   3201   3203   3205   3209     1  0.0000000  0.6508444  3
   3202   3214   3217   3218     1  180.0000771  0.0000000  2
   3202   3214   3217   3219     1  180.0000771  0.0000000  2
   3202   3201   3203   3205     1  0.0000000  0.6508444  3
   3203   3205   3209   3210     1  180.0000771  0.0000000  2
   3203   3205   3209   3211     1  180.0000771  0.0000000  2
   3203   3201   3202   3214     1  0.0000000  0.6508444  3
   3223   3225   3227   3231     1  0.0000000  0.6508444  3
   3225   3227   3231   3232     1  0.0000000  0.6508444  3
   3225   3227   3231   3233     1  0.0000000  0.6508444  3
   3227   3231   3232   3244     1  0.0000000  0.6508444  3
   3227   3231   3233   3235     1  0.0000000  0.6508444  3
   3231   3232   3244   3247     1  0.0000000  0.6508444  3
   3231   3233   3235   3239     1  0.0000000  0.6508444  3
   3232   3231   3233   3235     1  0.0000000  0.6508444  3
   3232   3244   3247   3248     1  180.0000771  0.0000000  2
   3232   3244   3247   3249     1  180.0000771  0.0000000  2
   3233   3231   3232   3244     1  0.0000000  0.6508444  3
   3233   3235   3239   3240     1  180.0000771  0.0000000  2
   3233   3235   3239   3241     1  180.0000771  0.0000000  2
   3253   3255   3257   3261     1  0.0000000  0.6508444  3
   3255   3257   3261   3262     1  0.0000000  0.6508444  3
   3255   3257   3261   3263     1  0.0000000  0.6508444  3
   3257   3261   3262   3274     1  0.0000000  0.6508444  3
   3257   3261   3263   3265     1  0.0000000  0.6508444  3
   3261   3262   3274   3277     1  0.0000000  0.6508444  3
   3261   3263   3265   3269     1  0.0000000  0.6508444  3
   3262   3274   3277   3278     1  180.0000771  0.0000000  2
   3262   3274   3277   3279     1  180.0000771  0.0000000  2
   3262   3261   3263   3265     1  0.0000000  0.6508444  3
   3263   3265   3269   3270     1  180.0000771  0.0000000  2
   3263   3265   3269   3271     1  180.0000771  0.0000000  2
   3263   3261   3262   3274     1  0.0000000  0.6508444  3
   3283   3285   3287   3291     1  0.0000000  0.6508444  3
   3285   3287   3291   3292     1  0.0000000  0.6508444  3
   3285   3287   3291   3293     1  0.0000000  0.6508444  3
   3287   3291   3292   3304     1  0.0000000  0.6508444  3
   3287   3291   3293   3295     1  0.0000000  0.6508444  3
   3291   3292   3304   3307     1  0.0000000  0.6508444  3
   3291   3293   3295   3299     1  0.0000000  0.6508444  3
   3292   3291   3293   3295     1  0.0000000  0.6508444  3
   3292   3304   3307   3308     1  180.0000771  0.0000000  2
   3292   3304   3307   3309     1  180.0000771  0.0000000  2
   3293   3291   3292   3304     1  0.0000000  0.6508444  3
   3293   3295   3299   3300     1  180.0000771  0.0000000  2
   3293   3295   3299   3301     1  180.0000771  0.0000000  2
   3313   3315   3317   3321     1  0.0000000  0.6508444  3
   3315   3317   3321   3322     1  0.0000000  0.6508444  3
   3315   3317   3321   3323     1  0.0000000  0.6508444  3
   3317   3321   3322   3334     1  0.0000000  0.6508444  3
   3317   3321   3323   3325     1  0.0000000  0.6508444  3
   3321   3322   3334   3337     1  0.0000000  0.6508444  3
   3321   3323   3325   3329     1  0.0000000  0.6508444  3
   3322   3334   3337   3338     1  180.0000771  0.0000000  2
   3322   3334   3337   3339     1  180.0000771  0.0000000  2
   3322   3321   3323   3325     1  0.0000000  0.6508444  3
   3323   3325   3329   3330     1  180.0000771  0.0000000  2
   3323   3325   3329   3331     1  180.0000771  0.0000000  2
   3323   3321   3322   3334     1  0.0000000  0.6508444  3
   3343   3345   3347   3351     1  0.0000000  0.6508444  3
   3345   3347   3351   3352     1  0.0000000  0.6508444  3
   3345   3347   3351   3353     1  0.0000000  0.6508444  3
   3347   3351   3352   3364     1  0.0000000  0.6508444  3
   3347   3351   3353   3355     1  0.0000000  0.6508444  3
   3351   3352   3364   3367     1  0.0000000  0.6508444  3
   3351   3353   3355   3359     1  0.0000000  0.6508444  3
   3352   3351   3353   3355     1  0.0000000  0.6508444  3
   3352   3364   3367   3368     1  180.0000771  0.0000000  2
   3352   3364   3367   3369     1  180.0000771  0.0000000  2
   3353   3351   3352   3364     1  0.0000000  0.6508444  3
   3353   3355   3359   3360     1  180.0000771  0.0000000  2
   3353   3355   3359   3361     1  180.0000771  0.0000000  2
   3373   3375   3377   3381     1  0.0000000  0.6508444  3
   3375   3377   3381   3382     1  0.0000000  0.6508444  3
   3375   3377   3381   3383     1  0.0000000  0.6508444  3
   3377   3381   3382   3394     1  0.0000000  0.6508444  3
   3377   3381   3383   3385     1  0.0000000  0.6508444  3
   3381   3382   3394   3397     1  0.0000000  0.6508444  3
   3381   3383   3385   3389     1  0.0000000  0.6508444  3
   3382   3394   3397   3398     1  180.0000771  0.0000000  2
   3382   3394   3397   3399     1  180.0000771  0.0000000  2
   3382   3381   3383   3385     1  0.0000000  0.6508444  3
   3383   3385   3389   3390     1  180.0000771  0.0000000  2
   3383   3385   3389   3391     1  180.0000771  0.0000000  2
   3383   3381   3382   3394     1  0.0000000  0.6508444  3
   3403   3405   3407   3411     1  0.0000000  0.6508444  3
   3405   3407   3411   3412     1  0.0000000  0.6508444  3
   3405   3407   3411   3413     1  0.0000000  0.6508444  3
   3407   3411   3412   3424     1  0.0000000  0.6508444  3
   3407   3411   3413   3415     1  0.0000000  0.6508444  3
   3411   3412   3424   3427     1  0.0000000  0.6508444  3
   3411   3413   3415   3419     1  0.0000000  0.6508444  3
   3412   3411   3413   3415     1  0.0000000  0.6508444  3
   3412   3424   3427   3428     1  180.0000771  0.0000000  2
   3412   3424   3427   3429     1  180.0000771  0.0000000  2
   3413   3411   3412   3424     1  0.0000000  0.6508444  3
   3413   3415   3419   3420     1  180.0000771  0.0000000  2
   3413   3415   3419   3421     1  180.0000771  0.0000000  2
   3433   3435   3437   3441     1  0.0000000  0.6508444  3
   3435   3437   3441   3442     1  0.0000000  0.6508444  3
   3435   3437   3441   3443     1  0.0000000  0.6508444  3
   3437   3441   3442   3454     1  0.0000000  0.6508444  3
   3437   3441   3443   3445     1  0.0000000  0.6508444  3
   3441   3442   3454   3457     1  0.0000000  0.6508444  3
   3441   3443   3445   3449     1  0.0000000  0.6508444  3
   3442   3454   3457   3458     1  180.0000771  0.0000000  2
   3442   3454   3457   3459     1  180.0000771  0.0000000  2
   3442   3441   3443   3445     1  0.0000000  0.6508444  3
   3443   3445   3449   3450     1  180.0000771  0.0000000  2
   3443   3445   3449   3451     1  180.0000771  0.0000000  2
   3443   3441   3442   3454     1  0.0000000  0.6508444  3
   3463   3465   3467   3471     1  0.0000000  0.6508444  3
   3465   3467   3471   3472     1  0.0000000  0.6508444  3
   3465   3467   3471   3473     1  0.0000000  0.6508444  3
   3467   3471   3472   3484     1  0.0000000  0.6508444  3
   3467   3471   3473   3475     1  0.0000000  0.6508444  3
   3471   3472   3484   3487     1  0.0000000  0.6508444  3
   3471   3473   3475   3479     1  0.0000000  0.6508444  3
   3472   3471   3473   3475     1  0.0000000  0.6508444  3
   3472   3484   3487   3488     1  180.0000771  0.0000000  2
   3472   3484   3487   3489     1  180.0000771  0.0000000  2
   3473   3471   3472   3484     1  0.0000000  0.6508444  3
   3473   3475   3479   3480     1  180.0000771  0.0000000  2
   3473   3475   3479   3481     1  180.0000771  0.0000000  2
   3493   3495   3497   3501     1  0.0000000  0.6508444  3
   3495   3497   3501   3502     1  0.0000000  0.6508444  3
   3495   3497   3501   3503     1  0.0000000  0.6508444  3
   3497   3501   3502   3514     1  0.0000000  0.6508444  3
   3497   3501   3503   3505     1  0.0000000  0.6508444  3
   3501   3502   3514   3517     1  0.0000000  0.6508444  3
   3501   3503   3505   3509     1  0.0000000  0.6508444  3
   3502   3514   3517   3518     1  180.0000771  0.0000000  2
   3502   3514   3517   3519     1  180.0000771  0.0000000  2
   3502   3501   3503   3505     1  0.0000000  0.6508444  3
   3503   3505   3509   3510     1  180.0000771  0.0000000  2
   3503   3505   3509   3511     1  180.0000771  0.0000000  2
   3503   3501   3502   3514     1  0.0000000  0.6508444  3
      9     52     10     18     4  180.0000771  43.9320000  2
     11     78     12     17     4  180.0000771  43.9320000  2
     13    104     14     20     4  180.0000771  43.9320000  2
     15    130     16     19     4  180.0000771  43.9320000  2
     46    156     47     53     4  180.0000771  43.9320000  2
     48    182     49     54     4  180.0000771  43.9320000  2
     72    208     73     79     4  180.0000771  43.9320000  2
     74    234     75     80     4  180.0000771  43.9320000  2
     98    260     99    105     4  180.0000771  43.9320000  2
    100    286    101    106     4  180.0000771  43.9320000  2
    124    312    125    131     4  180.0000771  43.9320000  2
    126    338    127    132     4  180.0000771  43.9320000  2
    150    364    151    157     4  180.0000771  43.9320000  2
    152    390    153    158     4  180.0000771  43.9320000  2
    176    416    177    183     4  180.0000771  43.9320000  2
    178    442    179    184     4  180.0000771  43.9320000  2
    202    468    203    209     4  180.0000771  43.9320000  2
    204    494    205    210     4  180.0000771  43.9320000  2
    228    520    229    235     4  180.0000771  43.9320000  2
    230    546    231    236     4  180.0000771  43.9320000  2
    254    572    255    261     4  180.0000771  43.9320000  2
    256    598    257    262     4  180.0000771  43.9320000  2
    280    624    281    287     4  180.0000771  43.9320000  2
    282    650    283    288     4  180.0000771  43.9320000  2
    306    676    307    313     4  180.0000771  43.9320000  2
    308    702    309    314     4  180.0000771  43.9320000  2
    332    728    333    339     4  180.0000771  43.9320000  2
    334    754    335    340     4  180.0000771  43.9320000  2
    358    780    359    365     4  180.0000771  43.9320000  2
    360    806    361    366     4  180.0000771  43.9320000  2
    384    832    385    391     4  180.0000771  43.9320000  2
    386    858    387    392     4  180.0000771  43.9320000  2
    410    884    411    417     4  180.0000771  43.9320000  2
    412    910    413    418     4  180.0000771  43.9320000  2
    436    936    437    443     4  180.0000771  43.9320000  2
    438    962    439    444     4  180.0000771  43.9320000  2
    462    988    463    469     4  180.0000771  43.9320000  2
    464   1014    465    470     4  180.0000771  43.9320000  2
    488   1040    489    495     4  180.0000771  43.9320000  2
    490   1066    491    496     4  180.0000771  43.9320000  2
    514   1092    515    521     4  180.0000771  43.9320000  2
    516   1118    517    522     4  180.0000771  43.9320000  2
    540   1144    541    547     4  180.0000771  43.9320000  2
    542   1170    543    548     4  180.0000771  43.9320000  2
    566   1196    567    573     4  180.0000771  43.9320000  2
    568   1222    569    574     4  180.0000771  43.9320000  2
    592   1248    593    599     4  180.0000771  43.9320000  2
    594   1274    595    600     4  180.0000771  43.9320000  2
    618   1300    619    625     4  180.0000771  43.9320000  2
    620   1326    621    626     4  180.0000771  43.9320000  2
    644   1352    645    651     4  180.0000771  43.9320000  2
    646   1378    647    652     4  180.0000771  43.9320000  2
    670   1404    671    677     4  180.0000771  43.9320000  2
    672   1430    673    678     4  180.0000771  43.9320000  2
    696   1456    697    703     4  180.0000771  43.9320000  2
    698   1482    699    704     4  180.0000771  43.9320000  2
    722   1508    723    729     4  180.0000771  43.9320000  2
    724   1534    725    730     4  180.0000771  43.9320000  2
    748   1560    749    755     4  180.0000771  43.9320000  2
    750   1586    751    756     4  180.0000771  43.9320000  2
    774   1603    775    781     4  180.0000771  43.9320000  2
    776   1633    777    782     4  180.0000771  43.9320000  2
    800   1663    801    807     4  180.0000771  43.9320000  2
    802   1693    803    808     4  180.0000771  43.9320000  2
    826   1723    827    833     4  180.0000771  43.9320000  2
    828   1753    829    834     4  180.0000771  43.9320000  2
    852   1783    853    859     4  180.0000771  43.9320000  2
    854   1813    855    860     4  180.0000771  43.9320000  2
    878   1843    879    885     4  180.0000771  43.9320000  2
    880   1873    881    886     4  180.0000771  43.9320000  2
    904   1903    905    911     4  180.0000771  43.9320000  2
    906   1933    907    912     4  180.0000771  43.9320000  2
    930   1963    931    937     4  180.0000771  43.9320000  2
    932   1993    933    938     4  180.0000771  43.9320000  2
    956   2023    957    963     4  180.0000771  43.9320000  2
    958   2053    959    964     4  180.0000771  43.9320000  2
    982   2083    983    989     4  180.0000771  43.9320000  2
    984   2113    985    990     4  180.0000771  43.9320000  2
   1008   2143   1009   1015     4  180.0000771  43.9320000  2
   1010   2173   1011   1016     4  180.0000771  43.9320000  2
   1034   2203   1035   1041     4  180.0000771  43.9320000  2
   1036   2233   1037   1042     4  180.0000771  43.9320000  2
   1060   2263   1061   1067     4  180.0000771  43.9320000  2
   1062   2293   1063   1068     4  180.0000771  43.9320000  2
   1086   2323   1087   1093     4  180.0000771  43.9320000  2
   1088   2353   1089   1094     4  180.0000771  43.9320000  2
   1112   2383   1113   1119     4  180.0000771  43.9320000  2
   1114   2413   1115   1120     4  180.0000771  43.9320000  2
   1138   2443   1139   1145     4  180.0000771  43.9320000  2
   1140   2473   1141   1146     4  180.0000771  43.9320000  2
   1164   2503   1165   1171     4  180.0000771  43.9320000  2
   1166   2533   1167   1172     4  180.0000771  43.9320000  2
   1190   2563   1191   1197     4  180.0000771  43.9320000  2
   1192   2593   1193   1198     4  180.0000771  43.9320000  2
   1216   2623   1217   1223     4  180.0000771  43.9320000  2
   1218   2653   1219   1224     4  180.0000771  43.9320000  2
   1242   2683   1243   1249     4  180.0000771  43.9320000  2
   1244   2713   1245   1250     4  180.0000771  43.9320000  2
   1268   2743   1269   1275     4  180.0000771  43.9320000  2
   1270   2773   1271   1276     4  180.0000771  43.9320000  2
   1294   2803   1295   1301     4  180.0000771  43.9320000  2
   1296   2833   1297   1302     4  180.0000771  43.9320000  2
   1320   2863   1321   1327     4  180.0000771  43.9320000  2
   1322   2893   1323   1328     4  180.0000771  43.9320000  2
   1346   2923   1347   1353     4  180.0000771  43.9320000  2
   1348   2953   1349   1354     4  180.0000771  43.9320000  2
   1372   2983   1373   1379     4  180.0000771  43.9320000  2
   1374   3013   1375   1380     4  180.0000771  43.9320000  2
   1398   3043   1399   1405     4  180.0000771  43.9320000  2
   1400   3073   1401   1406     4  180.0000771  43.9320000  2
   1424   3103   1425   1431     4  180.0000771  43.9320000  2
   1426   3133   1427   1432     4  180.0000771  43.9320000  2
   1450   3163   1451   1457     4  180.0000771  43.9320000  2
   1452   3193   1453   1458     4  180.0000771  43.9320000  2
   1476   3223   1477   1483     4  180.0000771  43.9320000  2
   1478   3253   1479   1484     4  180.0000771  43.9320000  2
   1502   3283   1503   1509     4  180.0000771  43.9320000  2
   1504   3313   1505   1510     4  180.0000771  43.9320000  2
   1528   3343   1529   1535     4  180.0000771  43.9320000  2
   1530   3373   1531   1536     4  180.0000771  43.9320000  2
   1554   3403   1555   1561     4  180.0000771  43.9320000  2
   1556   3433   1557   1562     4  180.0000771  43.9320000  2
   1580   3463   1581   1587     4  180.0000771  43.9320000  2
   1582   3493   1583   1588     4  180.0000771  43.9320000  2
   1615   1621   1619   1620     4  180.0000771  4.6024000  2
   1624   1628   1627   1629     4  180.0000771  4.6024000  2
   1645   1651   1649   1650     4  180.0000771  4.6024000  2
   1654   1658   1657   1659     4  180.0000771  4.6024000  2
   1675   1681   1679   1680     4  180.0000771  4.6024000  2
   1684   1688   1687   1689     4  180.0000771  4.6024000  2
   1705   1711   1709   1710     4  180.0000771  4.6024000  2
   1714   1718   1717   1719     4  180.0000771  4.6024000  2
   1735   1741   1739   1740     4  180.0000771  4.6024000  2
   1744   1748   1747   1749     4  180.0000771  4.6024000  2
   1765   1771   1769   1770     4  180.0000771  4.6024000  2
   1774   1778   1777   1779     4  180.0000771  4.6024000  2
   1795   1801   1799   1800     4  180.0000771  4.6024000  2
   1804   1808   1807   1809     4  180.0000771  4.6024000  2
   1825   1831   1829   1830     4  180.0000771  4.6024000  2
   1834   1838   1837   1839     4  180.0000771  4.6024000  2
   1855   1861   1859   1860     4  180.0000771  4.6024000  2
   1864   1868   1867   1869     4  180.0000771  4.6024000  2
   1885   1891   1889   1890     4  180.0000771  4.6024000  2
   1894   1898   1897   1899     4  180.0000771  4.6024000  2
   1915   1921   1919   1920     4  180.0000771  4.6024000  2
   1924   1928   1927   1929     4  180.0000771  4.6024000  2
   1945   1951   1949   1950     4  180.0000771  4.6024000  2
   1954   1958   1957   1959     4  180.0000771  4.6024000  2
   1975   1981   1979   1980     4  180.0000771  4.6024000  2
   1984   1988   1987   1989     4  180.0000771  4.6024000  2
   2005   2011   2009   2010     4  180.0000771  4.6024000  2
   2014   2018   2017   2019     4  180.0000771  4.6024000  2
   2035   2041   2039   2040     4  180.0000771  4.6024000  2
   2044   2048   2047   2049     4  180.0000771  4.6024000  2
   2065   2071   2069   2070     4  180.0000771  4.6024000  2
   2074   2078   2077   2079     4  180.0000771  4.6024000  2
   2095   2101   2099   2100     4  180.0000771  4.6024000  2
   2104   2108   2107   2109     4  180.0000771  4.6024000  2
   2125   2131   2129   2130     4  180.0000771  4.6024000  2
   2134   2138   2137   2139     4  180.0000771  4.6024000  2
   2155   2161   2159   2160     4  180.0000771  4.6024000  2
   2164   2168   2167   2169     4  180.0000771  4.6024000  2
   2185   2191   2189   2190     4  180.0000771  4.6024000  2
   2194   2198   2197   2199     4  180.0000771  4.6024000  2
   2215   2221   2219   2220     4  180.0000771  4.6024000  2
   2224   2228   2227   2229     4  180.0000771  4.6024000  2
   2245   2251   2249   2250     4  180.0000771  4.6024000  2
   2254   2258   2257   2259     4  180.0000771  4.6024000  2
   2275   2281   2279   2280     4  180.0000771  4.6024000  2
   2284   2288   2287   2289     4  180.0000771  4.6024000  2
   2305   2311   2309   2310     4  180.0000771  4.6024000  2
   2314   2318   2317   2319     4  180.0000771  4.6024000  2
   2335   2341   2339   2340     4  180.0000771  4.6024000  2
   2344   2348   2347   2349     4  180.0000771  4.6024000  2
   2365   2371   2369   2370     4  180.0000771  4.6024000  2
   2374   2378   2377   2379     4  180.0000771  4.6024000  2
   2395   2401   2399   2400     4  180.0000771  4.6024000  2
   2404   2408   2407   2409     4  180.0000771  4.6024000  2
   2425   2431   2429   2430     4  180.0000771  4.6024000  2
   2434   2438   2437   2439     4  180.0000771  4.6024000  2
   2455   2461   2459   2460     4  180.0000771  4.6024000  2
   2464   2468   2467   2469     4  180.0000771  4.6024000  2
   2485   2491   2489   2490     4  180.0000771  4.6024000  2
   2494   2498   2497   2499     4  180.0000771  4.6024000  2
   2515   2521   2519   2520     4  180.0000771  4.6024000  2
   2524   2528   2527   2529     4  180.0000771  4.6024000  2
   2545   2551   2549   2550     4  180.0000771  4.6024000  2
   2554   2558   2557   2559     4  180.0000771  4.6024000  2
   2575   2581   2579   2580     4  180.0000771  4.6024000  2
   2584   2588   2587   2589     4  180.0000771  4.6024000  2
   2605   2611   2609   2610     4  180.0000771  4.6024000  2
   2614   2618   2617   2619     4  180.0000771  4.6024000  2
   2635   2641   2639   2640     4  180.0000771  4.6024000  2
   2644   2648   2647   2649     4  180.0000771  4.6024000  2
   2665   2671   2669   2670     4  180.0000771  4.6024000  2
   2674   2678   2677   2679     4  180.0000771  4.6024000  2
   2695   2701   2699   2700     4  180.0000771  4.6024000  2
   2704   2708   2707   2709     4  180.0000771  4.6024000  2
   2725   2731   2729   2730     4  180.0000771  4.6024000  2
   2734   2738   2737   2739     4  180.0000771  4.6024000  2
   2755   2761   2759   2760     4  180.0000771  4.6024000  2
   2764   2768   2767   2769     4  180.0000771  4.6024000  2
   2785   2791   2789   2790     4  180.0000771  4.6024000  2
   2794   2798   2797   2799     4  180.0000771  4.6024000  2
   2815   2821   2819   2820     4  180.0000771  4.6024000  2
   2824   2828   2827   2829     4  180.0000771  4.6024000  2
   2845   2851   2849   2850     4  180.0000771  4.6024000  2
   2854   2858   2857   2859     4  180.0000771  4.6024000  2
   2875   2881   2879   2880     4  180.0000771  4.6024000  2
   2884   2888   2887   2889     4  180.0000771  4.6024000  2
   2905   2911   2909   2910     4  180.0000771  4.6024000  2
   2914   2918   2917   2919     4  180.0000771  4.6024000  2
   2935   2941   2939   2940     4  180.0000771  4.6024000  2
   2944   2948   2947   2949     4  180.0000771  4.6024000  2
   2965   2971   2969   2970     4  180.0000771  4.6024000  2
   2974   2978   2977   2979     4  180.0000771  4.6024000  2
   2995   3001   2999   3000     4  180.0000771  4.6024000  2
   3004   3008   3007   3009     4  180.0000771  4.6024000  2
   3025   3031   3029   3030     4  180.0000771  4.6024000  2
   3034   3038   3037   3039     4  180.0000771  4.6024000  2
   3055   3061   3059   3060     4  180.0000771  4.6024000  2
   3064   3068   3067   3069     4  180.0000771  4.6024000  2
   3085   3091   3089   3090     4  180.0000771  4.6024000  2
   3094   3098   3097   3099     4  180.0000771  4.6024000  2
   3115   3121   3119   3120     4  180.0000771  4.6024000  2
   3124   3128   3127   3129     4  180.0000771  4.6024000  2
   3145   3151   3149   3150     4  180.0000771  4.6024000  2
   3154   3158   3157   3159     4  180.0000771  4.6024000  2
   3175   3181   3179   3180     4  180.0000771  4.6024000  2
   3184   3188   3187   3189     4  180.0000771  4.6024000  2
   3205   3211   3209   3210     4  180.0000771  4.6024000  2
   3214   3218   3217   3219     4  180.0000771  4.6024000  2
   3235   3241   3239   3240     4  180.0000771  4.6024000  2
   3244   3248   3247   3249     4  180.0000771  4.6024000  2
   3265   3271   3269   3270     4  180.0000771  4.6024000  2
   3274   3278   3277   3279     4  180.0000771  4.6024000  2
   3295   3301   3299   3300     4  180.0000771  4.6024000  2
   3304   3308   3307   3309     4  180.0000771  4.6024000  2
   3325   3331   3329   3330     4  180.0000771  4.6024000  2
   3334   3338   3337   3339     4  180.0000771  4.6024000  2
   3355   3361   3359   3360     4  180.0000771  4.6024000  2
   3364   3368   3367   3369     4  180.0000771  4.6024000  2
   3385   3391   3389   3390     4  180.0000771  4.6024000  2
   3394   3398   3397   3399     4  180.0000771  4.6024000  2
   3415   3421   3419   3420     4  180.0000771  4.6024000  2
   3424   3428   3427   3429     4  180.0000771  4.6024000  2
   3445   3451   3449   3450     4  180.0000771  4.6024000  2
   3454   3458   3457   3459     4  180.0000771  4.6024000  2
   3475   3481   3479   3480     4  180.0000771  4.6024000  2
   3484   3488   3487   3489     4  180.0000771  4.6024000  2
   3505   3511   3509   3510     4  180.0000771  4.6024000  2
   3514   3518   3517   3519     4  180.0000771  4.6024000  2
      1      2      3     23     1  0.0000000  0.6508444  3
      1      2      3     24     1  0.0000000  0.6508444  3
      1      7     13     37     1  0.0000000  0.6508444  3
      1      7     13     38     1  0.0000000  0.6508444  3
      1      8     15     39     1  0.0000000  0.6508444  3
      1      8     15     40     1  0.0000000  0.6508444  3
      2      1      7     29     1  0.0000000  0.6508444  3
      2      1      7     30     1  0.0000000  0.6508444  3
      2      1      8     31     1  0.0000000  0.6508444  3
      2      1      8     32     1  0.0000000  0.6508444  3
      2      3      4     42     1  0.0000000  0.6508444  3
     41      1      2      3     1  0.0000000  0.6508444  3
      3      4      5     25     1  0.0000000  0.6508444  3
      3      4      5     26     1  0.0000000  0.6508444  3
      3      4      6     27     1  0.0000000  0.6508444  3
      3      4      6     28     1  0.0000000  0.6508444  3
      4      3      2     21     1  0.0000000  0.6508444  3
      4      3      2     22     1  0.0000000  0.6508444  3
      4      5     11     35     1  0.0000000  0.6508444  3
      4      5     11     36     1  0.0000000  0.6508444  3
      4      6      9     33     1  0.0000000  0.6508444  3
      4      6      9     34     1  0.0000000  0.6508444  3
      5      4      3     23     1  0.0000000  0.6508444  3
      5      4      3     24     1  0.0000000  0.6508444  3
      5      4      6     27     1  0.0000000  0.6508444  3
      5      4      6     28     1  0.0000000  0.6508444  3
      6      4      3     23     1  0.0000000  0.6508444  3
      6      4      3     24     1  0.0000000  0.6508444  3
      6      4      5     25     1  0.0000000  0.6508444  3
      6      4      5     26     1  0.0000000  0.6508444  3
      7      1      2     21     1  0.0000000  0.6508444  3
      7      1      2     22     1  0.0000000  0.6508444  3
      7      1      8     31     1  0.0000000  0.6508444  3
      7      1      8     32     1  0.0000000  0.6508444  3
      8      1      2     21     1  0.0000000  0.6508444  3
      8      1      2     22     1  0.0000000  0.6508444  3
      8      1      7     29     1  0.0000000  0.6508444  3
      8      1      7     30     1  0.0000000  0.6508444  3
      9      6      4     42     1  0.0000000  0.6508444  3
      9     10     52     67     1  180.0000771  10.4600000  2
     10      9      6     27     1  0.0000000  0.6508444  3
     10      9      6     28     1  0.0000000  0.6508444  3
     10     52     51     65     1  0.0000000  0.0000000  2
     10     52     51     66     1  0.0000000  0.0000000  2
     11      5      4     42     1  0.0000000  0.6508444  3
     11     12     78     93     1  180.0000771  10.4600000  2
     12     11      5     25     1  0.0000000  0.6508444  3
     12     11      5     26     1  0.0000000  0.6508444  3
     12     78     77     91     1  0.0000000  0.0000000  2
     12     78     77     92     1  0.0000000  0.0000000  2
     41      1      7     13     1  0.0000000  0.6508444  3
     13     14    104    119     1  180.0000771  10.4600000  2
     14     13      7     29     1  0.0000000  0.6508444  3
     14     13      7     30     1  0.0000000  0.6508444  3
     14    104    103    117     1  0.0000000  0.0000000  2
     14    104    103    118     1  0.0000000  0.0000000  2
     41      1      8     15     1  0.0000000  0.6508444  3
     15     16    130    145     1  180.0000771  10.4600000  2
     16     15      8     31     1  0.0000000  0.6508444  3
     16     15      8     32     1  0.0000000  0.6508444  3
     16    130    129    143     1  0.0000000  0.0000000  2
     16    130    129    144     1  0.0000000  0.0000000  2
     17     12     11     35     1  0.0000000  3.3472000  1
     17     12     11     35     1  0.0000000  0.0000000  2
     17     12     11     35     1  180.0000771  0.3347200  3
     17     12     11     36     1  0.0000000  3.3472000  1
     17     12     11     36     1  0.0000000  0.0000000  2
     17     12     11     36     1  180.0000771  0.3347200  3
     17     12     78     93     1  0.0000000  8.3680000  1
     17     12     78     93     1  180.0000771  10.4600000  2
     18     10      9     33     1  0.0000000  3.3472000  1
     18     10      9     33     1  0.0000000  0.0000000  2
     18     10      9     33     1  180.0000771  0.3347200  3
     18     10      9     34     1  0.0000000  3.3472000  1
     18     10      9     34     1  0.0000000  0.0000000  2
     18     10      9     34     1  180.0000771  0.3347200  3
     18     10     52     67     1  0.0000000  8.3680000  1
     18     10     52     67     1  180.0000771  10.4600000  2
     19     16     15     39     1  0.0000000  3.3472000  1
     19     16     15     39     1  0.0000000  0.0000000  2
     19     16     15     39     1  180.0000771  0.3347200  3
     19     16     15     40     1  0.0000000  3.3472000  1
     19     16     15     40     1  0.0000000  0.0000000  2
     19     16     15     40     1  180.0000771  0.3347200  3
     19     16    130    145     1  0.0000000  8.3680000  1
     19     16    130    145     1  180.0000771  10.4600000  2
     20     14     13     37     1  0.0000000  3.3472000  1
     20     14     13     37     1  0.0000000  0.0000000  2
     20     14     13     37     1  180.0000771  0.3347200  3
     20     14     13     38     1  0.0000000  3.3472000  1
     20     14     13     38     1  0.0000000  0.0000000  2
     20     14     13     38     1  180.0000771  0.3347200  3
     20     14    104    119     1  0.0000000  8.3680000  1
     20     14    104    119     1  180.0000771  10.4600000  2
     41      1      2     21     1  0.0000000  0.6508444  3
     21      2      3     23     1  0.0000000  0.6508444  3
     21      2      3     24     1  0.0000000  0.6508444  3
     41      1      2     22     1  0.0000000  0.6508444  3
     22      2      3     23     1  0.0000000  0.6508444  3
     22      2      3     24     1  0.0000000  0.6508444  3
     23      3      4     42     1  0.0000000  0.6508444  3
     24      3      4     42     1  0.0000000  0.6508444  3
     25      5      4     42     1  0.0000000  0.6508444  3
     25      5     11     35     1  0.0000000  0.6508444  3
     25      5     11     36     1  0.0000000  0.6508444  3
     26      5      4     42     1  0.0000000  0.6508444  3
     26      5     11     35     1  0.0000000  0.6508444  3
     26      5     11     36     1  0.0000000  0.6508444  3
     27      6      4     42     1  0.0000000  0.6508444  3
     27      6      9     33     1  0.0000000  0.6508444  3
     27      6      9     34     1  0.0000000  0.6508444  3
     28      6      4     42     1  0.0000000  0.6508444  3
     28      6      9     33     1  0.0000000  0.6508444  3
     28      6      9     34     1  0.0000000  0.6508444  3
     41      1      7     29     1  0.0000000  0.6508444  3
     29      7     13     37     1  0.0000000  0.6508444  3
     29      7     13     38     1  0.0000000  0.6508444  3
     41      1      7     30     1  0.0000000  0.6508444  3
     30      7     13     37     1  0.0000000  0.6508444  3
     30      7     13     38     1  0.0000000  0.6508444  3
     41      1      8     31     1  0.0000000  0.6508444  3
     31      8     15     39     1  0.0000000  0.6508444  3
     31      8     15     40     1  0.0000000  0.6508444  3
     41      1      8     32     1  0.0000000  0.6508444  3
     32      8     15     39     1  0.0000000  0.6508444  3
     32      8     15     40     1  0.0000000  0.6508444  3
     33      9     10     52     1  180.0000771  0.0000000  2
     34      9     10     52     1  180.0000771  0.0000000  2
     35     11     12     78     1  180.0000771  0.0000000  2
     36     11     12     78     1  180.0000771  0.0000000  2
     37     13     14    104     1  180.0000771  0.0000000  2
     38     13     14    104     1  180.0000771  0.0000000  2
     39     15     16    130     1  180.0000771  0.0000000  2
     40     15     16    130     1  180.0000771  0.0000000  2
     43     44     46     59     1  0.0000000  0.6508444  3
     43     44     46     60     1  0.0000000  0.6508444  3
     43     45     48     61     1  0.0000000  0.6508444  3
     43     45     48     62     1  0.0000000  0.6508444  3
     43     50     51     65     1  0.0000000  0.6508444  3
     43     50     51     66     1  0.0000000  0.6508444  3
     44     43     45     57     1  0.0000000  0.6508444  3
     44     43     45     58     1  0.0000000  0.6508444  3
     44     43     50     63     1  0.0000000  0.6508444  3
     44     43     50     64     1  0.0000000  0.6508444  3
     45     43     44     55     1  0.0000000  0.6508444  3
     45     43     44     56     1  0.0000000  0.6508444  3
     45     43     50     63     1  0.0000000  0.6508444  3
     45     43     50     64     1  0.0000000  0.6508444  3
     46     44     43     68     1  0.0000000  0.6508444  3
     46     47    156    171     1  180.0000771  10.4600000  2
     47     46     44     55     1  0.0000000  0.6508444  3
     47     46     44     56     1  0.0000000  0.6508444  3
     47    156    155    169     1  0.0000000  0.0000000  2
     47    156    155    170     1  0.0000000  0.0000000  2
     48     45     43     68     1  0.0000000  0.6508444  3
     48     49    182    197     1  180.0000771  10.4600000  2
     49     48     45     57     1  0.0000000  0.6508444  3
     49     48     45     58     1  0.0000000  0.6508444  3
     49    182    181    195     1  0.0000000  0.0000000  2
     49    182    181    196     1  0.0000000  0.0000000  2
     50     43     44     55     1  0.0000000  0.6508444  3
     50     43     44     56     1  0.0000000  0.6508444  3
     50     43     45     57     1  0.0000000  0.6508444  3
     50     43     45     58     1  0.0000000  0.6508444  3
     50     51     52     67     1  0.0000000  0.0000000  2
     51     50     43     68     1  0.0000000  0.6508444  3
     52     51     50     63     1  0.0000000  0.6508444  3
     52     51     50     64     1  0.0000000  0.6508444  3
     53     47     46     59     1  0.0000000  3.3472000  1
     53     47     46     59     1  0.0000000  0.0000000  2
     53     47     46     59     1  180.0000771  0.3347200  3
     53     47     46     60     1  0.0000000  3.3472000  1
     53     47     46     60     1  0.0000000  0.0000000  2
     53     47     46     60     1  180.0000771  0.3347200  3
     53     47    156    171     1  0.0000000  8.3680000  1
     53     47    156    171     1  180.0000771  10.4600000  2
     54     49     48     61     1  0.0000000  3.3472000  1
     54     49     48     61     1  0.0000000  0.0000000  2
     54     49     48     61     1  180.0000771  0.3347200  3
     54     49     48     62     1  0.0000000  3.3472000  1
     54     49     48     62     1  0.0000000  0.0000000  2
     54     49     48     62     1  180.0000771  0.3347200  3
     54     49    182    197     1  0.0000000  8.3680000  1
     54     49    182    197     1  180.0000771  10.4600000  2
     55     44     43     68     1  0.0000000  0.6508444  3
     55     44     46     59     1  0.0000000  0.6508444  3
     55     44     46     60     1  0.0000000  0.6508444  3
     56     44     43     68     1  0.0000000  0.6508444  3
     56     44     46     59     1  0.0000000  0.6508444  3
     56     44     46     60     1  0.0000000  0.6508444  3
     57     45     43     68     1  0.0000000  0.6508444  3
     57     45     48     61     1  0.0000000  0.6508444  3
     57     45     48     62     1  0.0000000  0.6508444  3
     58     45     43     68     1  0.0000000  0.6508444  3
     58     45     48     61     1  0.0000000  0.6508444  3
     58     45     48     62     1  0.0000000  0.6508444  3
     59     46     47    156     1  180.0000771  0.0000000  2
     60     46     47    156     1  180.0000771  0.0000000  2
     61     48     49    182     1  180.0000771  0.0000000  2
     62     48     49    182     1  180.0000771  0.0000000  2
     63     50     43     68     1  0.0000000  0.6508444  3
     63     50     51     65     1  0.0000000  0.6508444  3
     63     50     51     66     1  0.0000000  0.6508444  3
     64     50     43     68     1  0.0000000  0.6508444  3
     64     50     51     65     1  0.0000000  0.6508444  3
     64     50     51     66     1  0.0000000  0.6508444  3
     65     51     52     67     1  0.0000000  0.0000000  2
     66     51     52     67     1  0.0000000  0.0000000  2
     69     70     72     85     1  0.0000000  0.6508444  3
     69     70     72     86     1  0.0000000  0.6508444  3
     69     71     74     87     1  0.0000000  0.6508444  3
     69     71     74     88     1  0.0000000  0.6508444  3
     69     76     77     91     1  0.0000000  0.6508444  3
     69     76     77     92     1  0.0000000  0.6508444  3
     70     69     71     83     1  0.0000000  0.6508444  3
     70     69     71     84     1  0.0000000  0.6508444  3
     70     69     76     89     1  0.0000000  0.6508444  3
     70     69     76     90     1  0.0000000  0.6508444  3
     71     69     70     81     1  0.0000000  0.6508444  3
     71     69     70     82     1  0.0000000  0.6508444  3
     71     69     76     89     1  0.0000000  0.6508444  3
     71     69     76     90     1  0.0000000  0.6508444  3
     72     70     69     94     1  0.0000000  0.6508444  3
     72     73    208    223     1  180.0000771  10.4600000  2
     73     72     70     81     1  0.0000000  0.6508444  3
     73     72     70     82     1  0.0000000  0.6508444  3
     73    208    207    221     1  0.0000000  0.0000000  2
     73    208    207    222     1  0.0000000  0.0000000  2
     74     71     69     94     1  0.0000000  0.6508444  3
     74     75    234    249     1  180.0000771  10.4600000  2
     75     74     71     83     1  0.0000000  0.6508444  3
     75     74     71     84     1  0.0000000  0.6508444  3
     75    234    233    247     1  0.0000000  0.0000000  2
     75    234    233    248     1  0.0000000  0.0000000  2
     76     69     70     81     1  0.0000000  0.6508444  3
     76     69     70     82     1  0.0000000  0.6508444  3
     76     69     71     83     1  0.0000000  0.6508444  3
     76     69     71     84     1  0.0000000  0.6508444  3
     76     77     78     93     1  0.0000000  0.0000000  2
     77     76     69     94     1  0.0000000  0.6508444  3
     78     77     76     89     1  0.0000000  0.6508444  3
     78     77     76     90     1  0.0000000  0.6508444  3
     79     73     72     85     1  0.0000000  3.3472000  1
     79     73     72     85     1  0.0000000  0.0000000  2
     79     73     72     85     1  180.0000771  0.3347200  3
     79     73     72     86     1  0.0000000  3.3472000  1
     79     73     72     86     1  0.0000000  0.0000000  2
     79     73     72     86     1  180.0000771  0.3347200  3
     79     73    208    223     1  0.0000000  8.3680000  1
     79     73    208    223     1  180.0000771  10.4600000  2
     80     75     74     87     1  0.0000000  3.3472000  1
     80     75     74     87     1  0.0000000  0.0000000  2
     80     75     74     87     1  180.0000771  0.3347200  3
     80     75     74     88     1  0.0000000  3.3472000  1
     80     75     74     88     1  0.0000000  0.0000000  2
     80     75     74     88     1  180.0000771  0.3347200  3
     80     75    234    249     1  0.0000000  8.3680000  1
     80     75    234    249     1  180.0000771  10.4600000  2
     81     70     69     94     1  0.0000000  0.6508444  3
     81     70     72     85     1  0.0000000  0.6508444  3
     81     70     72     86     1  0.0000000  0.6508444  3
     82     70     69     94     1  0.0000000  0.6508444  3
     82     70     72     85     1  0.0000000  0.6508444  3
     82     70     72     86     1  0.0000000  0.6508444  3
     83     71     69     94     1  0.0000000  0.6508444  3
     83     71     74     87     1  0.0000000  0.6508444  3
     83     71     74     88     1  0.0000000  0.6508444  3
     84     71     69     94     1  0.0000000  0.6508444  3
     84     71     74     87     1  0.0000000  0.6508444  3
     84     71     74     88     1  0.0000000  0.6508444  3
     85     72     73    208     1  180.0000771  0.0000000  2
     86     72     73    208     1  180.0000771  0.0000000  2
     87     74     75    234     1  180.0000771  0.0000000  2
     88     74     75    234     1  180.0000771  0.0000000  2
     89     76     69     94     1  0.0000000  0.6508444  3
     89     76     77     91     1  0.0000000  0.6508444  3
     89     76     77     92     1  0.0000000  0.6508444  3
     90     76     69     94     1  0.0000000  0.6508444  3
     90     76     77     91     1  0.0000000  0.6508444  3
     90     76     77     92     1  0.0000000  0.6508444  3
     91     77     78     93     1  0.0000000  0.0000000  2
     92     77     78     93     1  0.0000000  0.0000000  2
     95     96     98    111     1  0.0000000  0.6508444  3
     95     96     98    112     1  0.0000000  0.6508444  3
     95     97    100    113     1  0.0000000  0.6508444  3
     95     97    100    114     1  0.0000000  0.6508444  3
     95    102    103    117     1  0.0000000  0.6508444  3
     95    102    103    118     1  0.0000000  0.6508444  3
     96     95     97    109     1  0.0000000  0.6508444  3
     96     95     97    110     1  0.0000000  0.6508444  3
     96     95    102    115     1  0.0000000  0.6508444  3
     96     95    102    116     1  0.0000000  0.6508444  3
     97     95     96    107     1  0.0000000  0.6508444  3
     97     95     96    108     1  0.0000000  0.6508444  3
     97     95    102    115     1  0.0000000  0.6508444  3
     97     95    102    116     1  0.0000000  0.6508444  3
     98     96     95    120     1  0.0000000  0.6508444  3
     98     99    260    275     1  180.0000771  10.4600000  2
     99     98     96    107     1  0.0000000  0.6508444  3
     99     98     96    108     1  0.0000000  0.6508444  3
     99    260    259    273     1  0.0000000  0.0000000  2
     99    260    259    274     1  0.0000000  0.0000000  2
    100     97     95    120     1  0.0000000  0.6508444  3
    100    101    286    301     1  180.0000771  10.4600000  2
    101    100     97    109     1  0.0000000  0.6508444  3
    101    100     97    110     1  0.0000000  0.6508444  3
    101    286    285    299     1  0.0000000  0.0000000  2
    101    286    285    300     1  0.0000000  0.0000000  2
    102     95     96    107     1  0.0000000  0.6508444  3
    102     95     96    108     1  0.0000000  0.6508444  3
    102     95     97    109     1  0.0000000  0.6508444  3
    102     95     97    110     1  0.0000000  0.6508444  3
    102    103    104    119     1  0.0000000  0.0000000  2
    103    102     95    120     1  0.0000000  0.6508444  3
    104    103    102    115     1  0.0000000  0.6508444  3
    104    103    102    116     1  0.0000000  0.6508444  3
    105     99     98    111     1  0.0000000  3.3472000  1
    105     99     98    111     1  0.0000000  0.0000000  2
    105     99     98    111     1  180.0000771  0.3347200  3
    105     99     98    112     1  0.0000000  3.3472000  1
    105     99     98    112     1  0.0000000  0.0000000  2
    105     99     98    112     1  180.0000771  0.3347200  3
    105     99    260    275     1  0.0000000  8.3680000  1
    105     99    260    275     1  180.0000771  10.4600000  2
    106    101    100    113     1  0.0000000  3.3472000  1
    106    101    100    113     1  0.0000000  0.0000000  2
    106    101    100    113     1  180.0000771  0.3347200  3
    106    101    100    114     1  0.0000000  3.3472000  1
    106    101    100    114     1  0.0000000  0.0000000  2
    106    101    100    114     1  180.0000771  0.3347200  3
    106    101    286    301     1  0.0000000  8.3680000  1
    106    101    286    301     1  180.0000771  10.4600000  2
    107     96     95    120     1  0.0000000  0.6508444  3
    107     96     98    111     1  0.0000000  0.6508444  3
    107     96     98    112     1  0.0000000  0.6508444  3
    108     96     95    120     1  0.0000000  0.6508444  3
    108     96     98    111     1  0.0000000  0.6508444  3
    108     96     98    112     1  0.0000000  0.6508444  3
    109     97     95    120     1  0.0000000  0.6508444  3
    109     97    100    113     1  0.0000000  0.6508444  3
    109     97    100    114     1  0.0000000  0.6508444  3
    110     97     95    120     1  0.0000000  0.6508444  3
    110     97    100    113     1  0.0000000  0.6508444  3
    110     97    100    114     1  0.0000000  0.6508444  3
    111     98     99    260     1  180.0000771  0.0000000  2
    112     98     99    260     1  180.0000771  0.0000000  2
    113    100    101    286     1  180.0000771  0.0000000  2
    114    100    101    286     1  180.0000771  0.0000000  2
    115    102     95    120     1  0.0000000  0.6508444  3
    115    102    103    117     1  0.0000000  0.6508444  3
    115    102    103    118     1  0.0000000  0.6508444  3
    116    102     95    120     1  0.0000000  0.6508444  3
    116    102    103    117     1  0.0000000  0.6508444  3
    116    102    103    118     1  0.0000000  0.6508444  3
    117    103    104    119     1  0.0000000  0.0000000  2
    118    103    104    119     1  0.0000000  0.0000000  2
    121    122    124    137     1  0.0000000  0.6508444  3
    121    122    124    138     1  0.0000000  0.6508444  3
    121    123    126    139     1  0.0000000  0.6508444  3
    121    123    126    140     1  0.0000000  0.6508444  3
    121    128    129    143     1  0.0000000  0.6508444  3
    121    128    129    144     1  0.0000000  0.6508444  3
    122    121    123    135     1  0.0000000  0.6508444  3
    122    121    123    136     1  0.0000000  0.6508444  3
    122    121    128    141     1  0.0000000  0.6508444  3
    122    121    128    142     1  0.0000000  0.6508444  3
    123    121    122    133     1  0.0000000  0.6508444  3
    123    121    122    134     1  0.0000000  0.6508444  3
    123    121    128    141     1  0.0000000  0.6508444  3
    123    121    128    142     1  0.0000000  0.6508444  3
    124    122    121    146     1  0.0000000  0.6508444  3
    124    125    312    327     1  180.0000771  10.4600000  2
    125    124    122    133     1  0.0000000  0.6508444  3
    125    124    122    134     1  0.0000000  0.6508444  3
    125    312    311    325     1  0.0000000  0.0000000  2
    125    312    311    326     1  0.0000000  0.0000000  2
    126    123    121    146     1  0.0000000  0.6508444  3
    126    127    338    353     1  180.0000771  10.4600000  2
    127    126    123    135     1  0.0000000  0.6508444  3
    127    126    123    136     1  0.0000000  0.6508444  3
    127    338    337    351     1  0.0000000  0.0000000  2
    127    338    337    352     1  0.0000000  0.0000000  2
    128    121    122    133     1  0.0000000  0.6508444  3
    128    121    122    134     1  0.0000000  0.6508444  3
    128    121    123    135     1  0.0000000  0.6508444  3
    128    121    123    136     1  0.0000000  0.6508444  3
    128    129    130    145     1  0.0000000  0.0000000  2
    129    128    121    146     1  0.0000000  0.6508444  3
    130    129    128    141     1  0.0000000  0.6508444  3
    130    129    128    142     1  0.0000000  0.6508444  3
    131    125    124    137     1  0.0000000  3.3472000  1
    131    125    124    137     1  0.0000000  0.0000000  2
    131    125    124    137     1  180.0000771  0.3347200  3
    131    125    124    138     1  0.0000000  3.3472000  1
    131    125    124    138     1  0.0000000  0.0000000  2
    131    125    124    138     1  180.0000771  0.3347200  3
    131    125    312    327     1  0.0000000  8.3680000  1
    131    125    312    327     1  180.0000771  10.4600000  2
    132    127    126    139     1  0.0000000  3.3472000  1
    132    127    126    139     1  0.0000000  0.0000000  2
    132    127    126    139     1  180.0000771  0.3347200  3
    132    127    126    140     1  0.0000000  3.3472000  1
    132    127    126    140     1  0.0000000  0.0000000  2
    132    127    126    140     1  180.0000771  0.3347200  3
    132    127    338    353     1  0.0000000  8.3680000  1
    132    127    338    353     1  180.0000771  10.4600000  2
    133    122    121    146     1  0.0000000  0.6508444  3
    133    122    124    137     1  0.0000000  0.6508444  3
    133    122    124    138     1  0.0000000  0.6508444  3
    134    122    121    146     1  0.0000000  0.6508444  3
    134    122    124    137     1  0.0000000  0.6508444  3
    134    122    124    138     1  0.0000000  0.6508444  3
    135    123    121    146     1  0.0000000  0.6508444  3
    135    123    126    139     1  0.0000000  0.6508444  3
    135    123    126    140     1  0.0000000  0.6508444  3
    136    123    121    146     1  0.0000000  0.6508444  3
    136    123    126    139     1  0.0000000  0.6508444  3
    136    123    126    140     1  0.0000000  0.6508444  3
    137    124    125    312     1  180.0000771  0.0000000  2
    138    124    125    312     1  180.0000771  0.0000000  2
    139    126    127    338     1  180.0000771  0.0000000  2
    140    126    127    338     1  180.0000771  0.0000000  2
    141    128    121    146     1  0.0000000  0.6508444  3
    141    128    129    143     1  0.0000000  0.6508444  3
    141    128    129    144     1  0.0000000  0.6508444  3
    142    128    121    146     1  0.0000000  0.6508444  3
    142    128    129    143     1  0.0000000  0.6508444  3
    142    128    129    144     1  0.0000000  0.6508444  3
    143    129    130    145     1  0.0000000  0.0000000  2
    144    129    130    145     1  0.0000000  0.0000000  2
    147    148    150    163     1  0.0000000  0.6508444  3
    147    148    150    164     1  0.0000000  0.6508444  3
    147    149    152    165     1  0.0000000  0.6508444  3
    147    149    152    166     1  0.0000000  0.6508444  3
    147    154    155    169     1  0.0000000  0.6508444  3
    147    154    155    170     1  0.0000000  0.6508444  3
    148    147    149    161     1  0.0000000  0.6508444  3
    148    147    149    162     1  0.0000000  0.6508444  3
    148    147    154    167     1  0.0000000  0.6508444  3
    148    147    154    168     1  0.0000000  0.6508444  3
    149    147    148    159     1  0.0000000  0.6508444  3
    149    147    148    160     1  0.0000000  0.6508444  3
    149    147    154    167     1  0.0000000  0.6508444  3
    149    147    154    168     1  0.0000000  0.6508444  3
    150    148    147    172     1  0.0000000  0.6508444  3
    150    151    364    379     1  180.0000771  10.4600000  2
    151    150    148    159     1  0.0000000  0.6508444  3
    151    150    148    160     1  0.0000000  0.6508444  3
    151    364    363    377     1  0.0000000  0.0000000  2
    151    364    363    378     1  0.0000000  0.0000000  2
    152    149    147    172     1  0.0000000  0.6508444  3
    152    153    390    405     1  180.0000771  10.4600000  2
    153    152    149    161     1  0.0000000  0.6508444  3
    153    152    149    162     1  0.0000000  0.6508444  3
    153    390    389    403     1  0.0000000  0.0000000  2
    153    390    389    404     1  0.0000000  0.0000000  2
    154    147    148    159     1  0.0000000  0.6508444  3
    154    147    148    160     1  0.0000000  0.6508444  3
    154    147    149    161     1  0.0000000  0.6508444  3
    154    147    149    162     1  0.0000000  0.6508444  3
    154    155    156    171     1  0.0000000  0.0000000  2
    155    154    147    172     1  0.0000000  0.6508444  3
    156    155    154    167     1  0.0000000  0.6508444  3
    156    155    154    168     1  0.0000000  0.6508444  3
    157    151    150    163     1  0.0000000  3.3472000  1
    157    151    150    163     1  0.0000000  0.0000000  2
    157    151    150    163     1  180.0000771  0.3347200  3
    157    151    150    164     1  0.0000000  3.3472000  1
    157    151    150    164     1  0.0000000  0.0000000  2
    157    151    150    164     1  180.0000771  0.3347200  3
    157    151    364    379     1  0.0000000  8.3680000  1
    157    151    364    379     1  180.0000771  10.4600000  2
    158    153    152    165     1  0.0000000  3.3472000  1
    158    153    152    165     1  0.0000000  0.0000000  2
    158    153    152    165     1  180.0000771  0.3347200  3
    158    153    152    166     1  0.0000000  3.3472000  1
    158    153    152    166     1  0.0000000  0.0000000  2
    158    153    152    166     1  180.0000771  0.3347200  3
    158    153    390    405     1  0.0000000  8.3680000  1
    158    153    390    405     1  180.0000771  10.4600000  2
    159    148    147    172     1  0.0000000  0.6508444  3
    159    148    150    163     1  0.0000000  0.6508444  3
    159    148    150    164     1  0.0000000  0.6508444  3
    160    148    147    172     1  0.0000000  0.6508444  3
    160    148    150    163     1  0.0000000  0.6508444  3
    160    148    150    164     1  0.0000000  0.6508444  3
    161    149    147    172     1  0.0000000  0.6508444  3
    161    149    152    165     1  0.0000000  0.6508444  3
    161    149    152    166     1  0.0000000  0.6508444  3
    162    149    147    172     1  0.0000000  0.6508444  3
    162    149    152    165     1  0.0000000  0.6508444  3
    162    149    152    166     1  0.0000000  0.6508444  3
    163    150    151    364     1  180.0000771  0.0000000  2
    164    150    151    364     1  180.0000771  0.0000000  2
    165    152    153    390     1  180.0000771  0.0000000  2
    166    152    153    390     1  180.0000771  0.0000000  2
    167    154    147    172     1  0.0000000  0.6508444  3
    167    154    155    169     1  0.0000000  0.6508444  3
    167    154    155    170     1  0.0000000  0.6508444  3
    168    154    147    172     1  0.0000000  0.6508444  3
    168    154    155    169     1  0.0000000  0.6508444  3
    168    154    155    170     1  0.0000000  0.6508444  3
    169    155    156    171     1  0.0000000  0.0000000  2
    170    155    156    171     1  0.0000000  0.0000000  2
    173    174    176    189     1  0.0000000  0.6508444  3
    173    174    176    190     1  0.0000000  0.6508444  3
    173    175    178    191     1  0.0000000  0.6508444  3
    173    175    178    192     1  0.0000000  0.6508444  3
    173    180    181    195     1  0.0000000  0.6508444  3
    173    180    181    196     1  0.0000000  0.6508444  3
    174    173    175    187     1  0.0000000  0.6508444  3
    174    173    175    188     1  0.0000000  0.6508444  3
    174    173    180    193     1  0.0000000  0.6508444  3
    174    173    180    194     1  0.0000000  0.6508444  3
    175    173    174    185     1  0.0000000  0.6508444  3
    175    173    174    186     1  0.0000000  0.6508444  3
    175    173    180    193     1  0.0000000  0.6508444  3
    175    173    180    194     1  0.0000000  0.6508444  3
    176    174    173    198     1  0.0000000  0.6508444  3
    176    177    416    431     1  180.0000771  10.4600000  2
    177    176    174    185     1  0.0000000  0.6508444  3
    177    176    174    186     1  0.0000000  0.6508444  3
    177    416    415    429     1  0.0000000  0.0000000  2
    177    416    415    430     1  0.0000000  0.0000000  2
    178    175    173    198     1  0.0000000  0.6508444  3
    178    179    442    457     1  180.0000771  10.4600000  2
    179    178    175    187     1  0.0000000  0.6508444  3
    179    178    175    188     1  0.0000000  0.6508444  3
    179    442    441    455     1  0.0000000  0.0000000  2
    179    442    441    456     1  0.0000000  0.0000000  2
    180    173    174    185     1  0.0000000  0.6508444  3
    180    173    174    186     1  0.0000000  0.6508444  3
    180    173    175    187     1  0.0000000  0.6508444  3
    180    173    175    188     1  0.0000000  0.6508444  3
    180    181    182    197     1  0.0000000  0.0000000  2
    181    180    173    198     1  0.0000000  0.6508444  3
    182    181    180    193     1  0.0000000  0.6508444  3
    182    181    180    194     1  0.0000000  0.6508444  3
    183    177    176    189     1  0.0000000  3.3472000  1
    183    177    176    189     1  0.0000000  0.0000000  2
    183    177    176    189     1  180.0000771  0.3347200  3
    183    177    176    190     1  0.0000000  3.3472000  1
    183    177    176    190     1  0.0000000  0.0000000  2
    183    177    176    190     1  180.0000771  0.3347200  3
    183    177    416    431     1  0.0000000  8.3680000  1
    183    177    416    431     1  180.0000771  10.4600000  2
    184    179    178    191     1  0.0000000  3.3472000  1
    184    179    178    191     1  0.0000000  0.0000000  2
    184    179    178    191     1  180.0000771  0.3347200  3
    184    179    178    192     1  0.0000000  3.3472000  1
    184    179    178    192     1  0.0000000  0.0000000  2
    184    179    178    192     1  180.0000771  0.3347200  3
    184    179    442    457     1  0.0000000  8.3680000  1
    184    179    442    457     1  180.0000771  10.4600000  2
    185    174    173    198     1  0.0000000  0.6508444  3
    185    174    176    189     1  0.0000000  0.6508444  3
    185    174    176    190     1  0.0000000  0.6508444  3
    186    174    173    198     1  0.0000000  0.6508444  3
    186    174    176    189     1  0.0000000  0.6508444  3
    186    174    176    190     1  0.0000000  0.6508444  3
    187    175    173    198     1  0.0000000  0.6508444  3
    187    175    178    191     1  0.0000000  0.6508444  3
    187    175    178    192     1  0.0000000  0.6508444  3
    188    175    173    198     1  0.0000000  0.6508444  3
    188    175    178    191     1  0.0000000  0.6508444  3
    188    175    178    192     1  0.0000000  0.6508444  3
    189    176    177    416     1  180.0000771  0.0000000  2
    190    176    177    416     1  180.0000771  0.0000000  2
    191    178    179    442     1  180.0000771  0.0000000  2
    192    178    179    442     1  180.0000771  0.0000000  2
    193    180    173    198     1  0.0000000  0.6508444  3
    193    180    181    195     1  0.0000000  0.6508444  3
    193    180    181    196     1  0.0000000  0.6508444  3
    194    180    173    198     1  0.0000000  0.6508444  3
    194    180    181    195     1  0.0000000  0.6508444  3
    194    180    181    196     1  0.0000000  0.6508444  3
    195    181    182    197     1  0.0000000  0.0000000  2
    196    181    182    197     1  0.0000000  0.0000000  2
    199    200    202    215     1  0.0000000  0.6508444  3
    199    200    202    216     1  0.0000000  0.6508444  3
    199    201    204    217     1  0.0000000  0.6508444  3
    199    201    204    218     1  0.0000000  0.6508444  3
    199    206    207    221     1  0.0000000  0.6508444  3
    199    206    207    222     1  0.0000000  0.6508444  3
    200    199    201    213     1  0.0000000  0.6508444  3
    200    199    201    214     1  0.0000000  0.6508444  3
    200    199    206    219     1  0.0000000  0.6508444  3
    200    199    206    220     1  0.0000000  0.6508444  3
    201    199    200    211     1  0.0000000  0.6508444  3
    201    199    200    212     1  0.0000000  0.6508444  3
    201    199    206    219     1  0.0000000  0.6508444  3
    201    199    206    220     1  0.0000000  0.6508444  3
    202    200    199    224     1  0.0000000  0.6508444  3
    202    203    468    483     1  180.0000771  10.4600000  2
    203    202    200    211     1  0.0000000  0.6508444  3
    203    202    200    212     1  0.0000000  0.6508444  3
    203    468    467    481     1  0.0000000  0.0000000  2
    203    468    467    482     1  0.0000000  0.0000000  2
    204    201    199    224     1  0.0000000  0.6508444  3
    204    205    494    509     1  180.0000771  10.4600000  2
    205    204    201    213     1  0.0000000  0.6508444  3
    205    204    201    214     1  0.0000000  0.6508444  3
    205    494    493    507     1  0.0000000  0.0000000  2
    205    494    493    508     1  0.0000000  0.0000000  2
    206    199    200    211     1  0.0000000  0.6508444  3
    206    199    200    212     1  0.0000000  0.6508444  3
    206    199    201    213     1  0.0000000  0.6508444  3
    206    199    201    214     1  0.0000000  0.6508444  3
    206    207    208    223     1  0.0000000  0.0000000  2
    207    206    199    224     1  0.0000000  0.6508444  3
    208    207    206    219     1  0.0000000  0.6508444  3
    208    207    206    220     1  0.0000000  0.6508444  3
    209    203    202    215     1  0.0000000  3.3472000  1
    209    203    202    215     1  0.0000000  0.0000000  2
    209    203    202    215     1  180.0000771  0.3347200  3
    209    203    202    216     1  0.0000000  3.3472000  1
    209    203    202    216     1  0.0000000  0.0000000  2
    209    203    202    216     1  180.0000771  0.3347200  3
    209    203    468    483     1  0.0000000  8.3680000  1
    209    203    468    483     1  180.0000771  10.4600000  2
    210    205    204    217     1  0.0000000  3.3472000  1
    210    205    204    217     1  0.0000000  0.0000000  2
    210    205    204    217     1  180.0000771  0.3347200  3
    210    205    204    218     1  0.0000000  3.3472000  1
    210    205    204    218     1  0.0000000  0.0000000  2
    210    205    204    218     1  180.0000771  0.3347200  3
    210    205    494    509     1  0.0000000  8.3680000  1
    210    205    494    509     1  180.0000771  10.4600000  2
    211    200    199    224     1  0.0000000  0.6508444  3
    211    200    202    215     1  0.0000000  0.6508444  3
    211    200    202    216     1  0.0000000  0.6508444  3
    212    200    199    224     1  0.0000000  0.6508444  3
    212    200    202    215     1  0.0000000  0.6508444  3
    212    200    202    216     1  0.0000000  0.6508444  3
    213    201    199    224     1  0.0000000  0.6508444  3
    213    201    204    217     1  0.0000000  0.6508444  3
    213    201    204    218     1  0.0000000  0.6508444  3
    214    201    199    224     1  0.0000000  0.6508444  3
    214    201    204    217     1  0.0000000  0.6508444  3
    214    201    204    218     1  0.0000000  0.6508444  3
    215    202    203    468     1  180.0000771  0.0000000  2
    216    202    203    468     1  180.0000771  0.0000000  2
    217    204    205    494     1  180.0000771  0.0000000  2
    218    204    205    494     1  180.0000771  0.0000000  2
    219    206    199    224     1  0.0000000  0.6508444  3
    219    206    207    221     1  0.0000000  0.6508444  3
    219    206    207    222     1  0.0000000  0.6508444  3
    220    206    199    224     1  0.0000000  0.6508444  3
    220    206    207    221     1  0.0000000  0.6508444  3
    220    206    207    222     1  0.0000000  0.6508444  3
    221    207    208    223     1  0.0000000  0.0000000  2
    222    207    208    223     1  0.0000000  0.0000000  2
    225    226    228    241     1  0.0000000  0.6508444  3
    225    226    228    242     1  0.0000000  0.6508444  3
    225    227    230    243     1  0.0000000  0.6508444  3
    225    227    230    244     1  0.0000000  0.6508444  3
    225    232    233    247     1  0.0000000  0.6508444  3
    225    232    233    248     1  0.0000000  0.6508444  3
    226    225    227    239     1  0.0000000  0.6508444  3
    226    225    227    240     1  0.0000000  0.6508444  3
    226    225    232    245     1  0.0000000  0.6508444  3
    226    225    232    246     1  0.0000000  0.6508444  3
    227    225    226    237     1  0.0000000  0.6508444  3
    227    225    226    238     1  0.0000000  0.6508444  3
    227    225    232    245     1  0.0000000  0.6508444  3
    227    225    232    246     1  0.0000000  0.6508444  3
    228    226    225    250     1  0.0000000  0.6508444  3
    228    229    520    535     1  180.0000771  10.4600000  2
    229    228    226    237     1  0.0000000  0.6508444  3
    229    228    226    238     1  0.0000000  0.6508444  3
    229    520    519    533     1  0.0000000  0.0000000  2
    229    520    519    534     1  0.0000000  0.0000000  2
    230    227    225    250     1  0.0000000  0.6508444  3
    230    231    546    561     1  180.0000771  10.4600000  2
    231    230    227    239     1  0.0000000  0.6508444  3
    231    230    227    240     1  0.0000000  0.6508444  3
    231    546    545    559     1  0.0000000  0.0000000  2
    231    546    545    560     1  0.0000000  0.0000000  2
    232    225    226    237     1  0.0000000  0.6508444  3
    232    225    226    238     1  0.0000000  0.6508444  3
    232    225    227    239     1  0.0000000  0.6508444  3
    232    225    227    240     1  0.0000000  0.6508444  3
    232    233    234    249     1  0.0000000  0.0000000  2
    233    232    225    250     1  0.0000000  0.6508444  3
    234    233    232    245     1  0.0000000  0.6508444  3
    234    233    232    246     1  0.0000000  0.6508444  3
    235    229    228    241     1  0.0000000  3.3472000  1
    235    229    228    241     1  0.0000000  0.0000000  2
    235    229    228    241     1  180.0000771  0.3347200  3
    235    229    228    242     1  0.0000000  3.3472000  1
    235    229    228    242     1  0.0000000  0.0000000  2
    235    229    228    242     1  180.0000771  0.3347200  3
    235    229    520    535     1  0.0000000  8.3680000  1
    235    229    520    535     1  180.0000771  10.4600000  2
    236    231    230    243     1  0.0000000  3.3472000  1
    236    231    230    243     1  0.0000000  0.0000000  2
    236    231    230    243     1  180.0000771  0.3347200  3
    236    231    230    244     1  0.0000000  3.3472000  1
    236    231    230    244     1  0.0000000  0.0000000  2
    236    231    230    244     1  180.0000771  0.3347200  3
    236    231    546    561     1  0.0000000  8.3680000  1
    236    231    546    561     1  180.0000771  10.4600000  2
    237    226    225    250     1  0.0000000  0.6508444  3
    237    226    228    241     1  0.0000000  0.6508444  3
    237    226    228    242     1  0.0000000  0.6508444  3
    238    226    225    250     1  0.0000000  0.6508444  3
    238    226    228    241     1  0.0000000  0.6508444  3
    238    226    228    242     1  0.0000000  0.6508444  3
    239    227    225    250     1  0.0000000  0.6508444  3
    239    227    230    243     1  0.0000000  0.6508444  3
    239    227    230    244     1  0.0000000  0.6508444  3
    240    227    225    250     1  0.0000000  0.6508444  3
    240    227    230    243     1  0.0000000  0.6508444  3
    240    227    230    244     1  0.0000000  0.6508444  3
    241    228    229    520     1  180.0000771  0.0000000  2
    242    228    229    520     1  180.0000771  0.0000000  2
    243    230    231    546     1  180.0000771  0.0000000  2
    244    230    231    546     1  180.0000771  0.0000000  2
    245    232    225    250     1  0.0000000  0.6508444  3
    245    232    233    247     1  0.0000000  0.6508444  3
    245    232    233    248     1  0.0000000  0.6508444  3
    246    232    225    250     1  0.0000000  0.6508444  3
    246    232    233    247     1  0.0000000  0.6508444  3
    246    232    233    248     1  0.0000000  0.6508444  3
    247    233    234    249     1  0.0000000  0.0000000  2
    248    233    234    249     1  0.0000000  0.0000000  2
    251    252    254    267     1  0.0000000  0.6508444  3
    251    252    254    268     1  0.0000000  0.6508444  3
    251    253    256    269     1  0.0000000  0.6508444  3
    251    253    256    270     1  0.0000000  0.6508444  3
    251    258    259    273     1  0.0000000  0.6508444  3
    251    258    259    274     1  0.0000000  0.6508444  3
    252    251    253    265     1  0.0000000  0.6508444  3
    252    251    253    266     1  0.0000000  0.6508444  3
    252    251    258    271     1  0.0000000  0.6508444  3
    252    251    258    272     1  0.0000000  0.6508444  3
    253    251    252    263     1  0.0000000  0.6508444  3
    253    251    252    264     1  0.0000000  0.6508444  3
    253    251    258    271     1  0.0000000  0.6508444  3
    253    251    258    272     1  0.0000000  0.6508444  3
    254    252    251    276     1  0.0000000  0.6508444  3
    254    255    572    587     1  180.0000771  10.4600000  2
    255    254    252    263     1  0.0000000  0.6508444  3
    255    254    252    264     1  0.0000000  0.6508444  3
    255    572    571    585     1  0.0000000  0.0000000  2
    255    572    571    586     1  0.0000000  0.0000000  2
    256    253    251    276     1  0.0000000  0.6508444  3
    256    257    598    613     1  180.0000771  10.4600000  2
    257    256    253    265     1  0.0000000  0.6508444  3
    257    256    253    266     1  0.0000000  0.6508444  3
    257    598    597    611     1  0.0000000  0.0000000  2
    257    598    597    612     1  0.0000000  0.0000000  2
    258    251    252    263     1  0.0000000  0.6508444  3
    258    251    252    264     1  0.0000000  0.6508444  3
    258    251    253    265     1  0.0000000  0.6508444  3
    258    251    253    266     1  0.0000000  0.6508444  3
    258    259    260    275     1  0.0000000  0.0000000  2
    259    258    251    276     1  0.0000000  0.6508444  3
    260    259    258    271     1  0.0000000  0.6508444  3
    260    259    258    272     1  0.0000000  0.6508444  3
    261    255    254    267     1  0.0000000  3.3472000  1
    261    255    254    267     1  0.0000000  0.0000000  2
    261    255    254    267     1  180.0000771  0.3347200  3
    261    255    254    268     1  0.0000000  3.3472000  1
    261    255    254    268     1  0.0000000  0.0000000  2
    261    255    254    268     1  180.0000771  0.3347200  3
    261    255    572    587     1  0.0000000  8.3680000  1
    261    255    572    587     1  180.0000771  10.4600000  2
    262    257    256    269     1  0.0000000  3.3472000  1
    262    257    256    269     1  0.0000000  0.0000000  2
    262    257    256    269     1  180.0000771  0.3347200  3
    262    257    256    270     1  0.0000000  3.3472000  1
    262    257    256    270     1  0.0000000  0.0000000  2
    262    257    256    270     1  180.0000771  0.3347200  3
    262    257    598    613     1  0.0000000  8.3680000  1
    262    257    598    613     1  180.0000771  10.4600000  2
    263    252    251    276     1  0.0000000  0.6508444  3
    263    252    254    267     1  0.0000000  0.6508444  3
    263    252    254    268     1  0.0000000  0.6508444  3
    264    252    251    276     1  0.0000000  0.6508444  3
    264    252    254    267     1  0.0000000  0.6508444  3
    264    252    254    268     1  0.0000000  0.6508444  3
    265    253    251    276     1  0.0000000  0.6508444  3
    265    253    256    269     1  0.0000000  0.6508444  3
    265    253    256    270     1  0.0000000  0.6508444  3
    266    253    251    276     1  0.0000000  0.6508444  3
    266    253    256    269     1  0.0000000  0.6508444  3
    266    253    256    270     1  0.0000000  0.6508444  3
    267    254    255    572     1  180.0000771  0.0000000  2
    268    254    255    572     1  180.0000771  0.0000000  2
    269    256    257    598     1  180.0000771  0.0000000  2
    270    256    257    598     1  180.0000771  0.0000000  2
    271    258    251    276     1  0.0000000  0.6508444  3
    271    258    259    273     1  0.0000000  0.6508444  3
    271    258    259    274     1  0.0000000  0.6508444  3
    272    258    251    276     1  0.0000000  0.6508444  3
    272    258    259    273     1  0.0000000  0.6508444  3
    272    258    259    274     1  0.0000000  0.6508444  3
    273    259    260    275     1  0.0000000  0.0000000  2
    274    259    260    275     1  0.0000000  0.0000000  2
    277    278    280    293     1  0.0000000  0.6508444  3
    277    278    280    294     1  0.0000000  0.6508444  3
    277    279    282    295     1  0.0000000  0.6508444  3
    277    279    282    296     1  0.0000000  0.6508444  3
    277    284    285    299     1  0.0000000  0.6508444  3
    277    284    285    300     1  0.0000000  0.6508444  3
    278    277    279    291     1  0.0000000  0.6508444  3
    278    277    279    292     1  0.0000000  0.6508444  3
    278    277    284    297     1  0.0000000  0.6508444  3
    278    277    284    298     1  0.0000000  0.6508444  3
    279    277    278    289     1  0.0000000  0.6508444  3
    279    277    278    290     1  0.0000000  0.6508444  3
    279    277    284    297     1  0.0000000  0.6508444  3
    279    277    284    298     1  0.0000000  0.6508444  3
    280    278    277    302     1  0.0000000  0.6508444  3
    280    281    624    639     1  180.0000771  10.4600000  2
    281    280    278    289     1  0.0000000  0.6508444  3
    281    280    278    290     1  0.0000000  0.6508444  3
    281    624    623    637     1  0.0000000  0.0000000  2
    281    624    623    638     1  0.0000000  0.0000000  2
    282    279    277    302     1  0.0000000  0.6508444  3
    282    283    650    665     1  180.0000771  10.4600000  2
    283    282    279    291     1  0.0000000  0.6508444  3
    283    282    279    292     1  0.0000000  0.6508444  3
    283    650    649    663     1  0.0000000  0.0000000  2
    283    650    649    664     1  0.0000000  0.0000000  2
    284    277    278    289     1  0.0000000  0.6508444  3
    284    277    278    290     1  0.0000000  0.6508444  3
    284    277    279    291     1  0.0000000  0.6508444  3
    284    277    279    292     1  0.0000000  0.6508444  3
    284    285    286    301     1  0.0000000  0.0000000  2
    285    284    277    302     1  0.0000000  0.6508444  3
    286    285    284    297     1  0.0000000  0.6508444  3
    286    285    284    298     1  0.0000000  0.6508444  3
    287    281    280    293     1  0.0000000  3.3472000  1
    287    281    280    293     1  0.0000000  0.0000000  2
    287    281    280    293     1  180.0000771  0.3347200  3
    287    281    280    294     1  0.0000000  3.3472000  1
    287    281    280    294     1  0.0000000  0.0000000  2
    287    281    280    294     1  180.0000771  0.3347200  3
    287    281    624    639     1  0.0000000  8.3680000  1
    287    281    624    639     1  180.0000771  10.4600000  2
    288    283    282    295     1  0.0000000  3.3472000  1
    288    283    282    295     1  0.0000000  0.0000000  2
    288    283    282    295     1  180.0000771  0.3347200  3
    288    283    282    296     1  0.0000000  3.3472000  1
    288    283    282    296     1  0.0000000  0.0000000  2
    288    283    282    296     1  180.0000771  0.3347200  3
    288    283    650    665     1  0.0000000  8.3680000  1
    288    283    650    665     1  180.0000771  10.4600000  2
    289    278    277    302     1  0.0000000  0.6508444  3
    289    278    280    293     1  0.0000000  0.6508444  3
    289    278    280    294     1  0.0000000  0.6508444  3
    290    278    277    302     1  0.0000000  0.6508444  3
    290    278    280    293     1  0.0000000  0.6508444  3
    290    278    280    294     1  0.0000000  0.6508444  3
    291    279    277    302     1  0.0000000  0.6508444  3
    291    279    282    295     1  0.0000000  0.6508444  3
    291    279    282    296     1  0.0000000  0.6508444  3
    292    279    277    302     1  0.0000000  0.6508444  3
    292    279    282    295     1  0.0000000  0.6508444  3
    292    279    282    296     1  0.0000000  0.6508444  3
    293    280    281    624     1  180.0000771  0.0000000  2
    294    280    281    624     1  180.0000771  0.0000000  2
    295    282    283    650     1  180.0000771  0.0000000  2
    296    282    283    650     1  180.0000771  0.0000000  2
    297    284    277    302     1  0.0000000  0.6508444  3
    297    284    285    299     1  0.0000000  0.6508444  3
    297    284    285    300     1  0.0000000  0.6508444  3
    298    284    277    302     1  0.0000000  0.6508444  3
    298    284    285    299     1  0.0000000  0.6508444  3
    298    284    285    300     1  0.0000000  0.6508444  3
    299    285    286    301     1  0.0000000  0.0000000  2
    300    285    286    301     1  0.0000000  0.0000000  2
    303    304    306    319     1  0.0000000  0.6508444  3
    303    304    306    320     1  0.0000000  0.6508444  3
    303    305    308    321     1  0.0000000  0.6508444  3
    303    305    308    322     1  0.0000000  0.6508444  3
    303    310    311    325     1  0.0000000  0.6508444  3
    303    310    311    326     1  0.0000000  0.6508444  3
    304    303    305    317     1  0.0000000  0.6508444  3
    304    303    305    318     1  0.0000000  0.6508444  3
    304    303    310    323     1  0.0000000  0.6508444  3
    304    303    310    324     1  0.0000000  0.6508444  3
    305    303    304    315     1  0.0000000  0.6508444  3
    305    303    304    316     1  0.0000000  0.6508444  3
    305    303    310    323     1  0.0000000  0.6508444  3
    305    303    310    324     1  0.0000000  0.6508444  3
    306    304    303    328     1  0.0000000  0.6508444  3
    306    307    676    691     1  180.0000771  10.4600000  2
    307    306    304    315     1  0.0000000  0.6508444  3
    307    306    304    316     1  0.0000000  0.6508444  3
    307    676    675    689     1  0.0000000  0.0000000  2
    307    676    675    690     1  0.0000000  0.0000000  2
    308    305    303    328     1  0.0000000  0.6508444  3
    308    309    702    717     1  180.0000771  10.4600000  2
    309    308    305    317     1  0.0000000  0.6508444  3
    309    308    305    318     1  0.0000000  0.6508444  3
    309    702    701    715     1  0.0000000  0.0000000  2
    309    702    701    716     1  0.0000000  0.0000000  2
    310    303    304    315     1  0.0000000  0.6508444  3
    310    303    304    316     1  0.0000000  0.6508444  3
    310    303    305    317     1  0.0000000  0.6508444  3
    310    303    305    318     1  0.0000000  0.6508444  3
    310    311    312    327     1  0.0000000  0.0000000  2
    311    310    303    328     1  0.0000000  0.6508444  3
    312    311    310    323     1  0.0000000  0.6508444  3
    312    311    310    324     1  0.0000000  0.6508444  3
    313    307    306    319     1  0.0000000  3.3472000  1
    313    307    306    319     1  0.0000000  0.0000000  2
    313    307    306    319     1  180.0000771  0.3347200  3
    313    307    306    320     1  0.0000000  3.3472000  1
    313    307    306    320     1  0.0000000  0.0000000  2
    313    307    306    320     1  180.0000771  0.3347200  3
    313    307    676    691     1  0.0000000  8.3680000  1
    313    307    676    691     1  180.0000771  10.4600000  2
    314    309    308    321     1  0.0000000  3.3472000  1
    314    309    308    321     1  0.0000000  0.0000000  2
    314    309    308    321     1  180.0000771  0.3347200  3
    314    309    308    322     1  0.0000000  3.3472000  1
    314    309    308    322     1  0.0000000  0.0000000  2
    314    309    308    322     1  180.0000771  0.3347200  3
    314    309    702    717     1  0.0000000  8.3680000  1
    314    309    702    717     1  180.0000771  10.4600000  2
    315    304    303    328     1  0.0000000  0.6508444  3
    315    304    306    319     1  0.0000000  0.6508444  3
    315    304    306    320     1  0.0000000  0.6508444  3
    316    304    303    328     1  0.0000000  0.6508444  3
    316    304    306    319     1  0.0000000  0.6508444  3
    316    304    306    320     1  0.0000000  0.6508444  3
    317    305    303    328     1  0.0000000  0.6508444  3
    317    305    308    321     1  0.0000000  0.6508444  3
    317    305    308    322     1  0.0000000  0.6508444  3
    318    305    303    328     1  0.0000000  0.6508444  3
    318    305    308    321     1  0.0000000  0.6508444  3
    318    305    308    322     1  0.0000000  0.6508444  3
    319    306    307    676     1  180.0000771  0.0000000  2
    320    306    307    676     1  180.0000771  0.0000000  2
    321    308    309    702     1  180.0000771  0.0000000  2
    322    308    309    702     1  180.0000771  0.0000000  2
    323    310    303    328     1  0.0000000  0.6508444  3
    323    310    311    325     1  0.0000000  0.6508444  3
    323    310    311    326     1  0.0000000  0.6508444  3
    324    310    303    328     1  0.0000000  0.6508444  3
    324    310    311    325     1  0.0000000  0.6508444  3
    324    310    311    326     1  0.0000000  0.6508444  3
    325    311    312    327     1  0.0000000  0.0000000  2
    326    311    312    327     1  0.0000000  0.0000000  2
    329    330    332    345     1  0.0000000  0.6508444  3
    329    330    332    346     1  0.0000000  0.6508444  3
    329    331    334    347     1  0.0000000  0.6508444  3
    329    331    334    348     1  0.0000000  0.6508444  3
    329    336    337    351     1  0.0000000  0.6508444  3
    329    336    337    352     1  0.0000000  0.6508444  3
    330    329    331    343     1  0.0000000  0.6508444  3
    330    329    331    344     1  0.0000000  0.6508444  3
    330    329    336    349     1  0.0000000  0.6508444  3
    330    329    336    350     1  0.0000000  0.6508444  3
    331    329    330    341     1  0.0000000  0.6508444  3
    331    329    330    342     1  0.0000000  0.6508444  3
    331    329    336    349     1  0.0000000  0.6508444  3
    331    329    336    350     1  0.0000000  0.6508444  3
    332    330    329    354     1  0.0000000  0.6508444  3
    332    333    728    743     1  180.0000771  10.4600000  2
    333    332    330    341     1  0.0000000  0.6508444  3
    333    332    330    342     1  0.0000000  0.6508444  3
    333    728    727    741     1  0.0000000  0.0000000  2
    333    728    727    742     1  0.0000000  0.0000000  2
    334    331    329    354     1  0.0000000  0.6508444  3
    334    335    754    769     1  180.0000771  10.4600000  2
    335    334    331    343     1  0.0000000  0.6508444  3
    335    334    331    344     1  0.0000000  0.6508444  3
    335    754    753    767     1  0.0000000  0.0000000  2
    335    754    753    768     1  0.0000000  0.0000000  2
    336    329    330    341     1  0.0000000  0.6508444  3
    336    329    330    342     1  0.0000000  0.6508444  3
    336    329    331    343     1  0.0000000  0.6508444  3
    336    329    331    344     1  0.0000000  0.6508444  3
    336    337    338    353     1  0.0000000  0.0000000  2
    337    336    329    354     1  0.0000000  0.6508444  3
    338    337    336    349     1  0.0000000  0.6508444  3
    338    337    336    350     1  0.0000000  0.6508444  3
    339    333    332    345     1  0.0000000  3.3472000  1
    339    333    332    345     1  0.0000000  0.0000000  2
    339    333    332    345     1  180.0000771  0.3347200  3
    339    333    332    346     1  0.0000000  3.3472000  1
    339    333    332    346     1  0.0000000  0.0000000  2
    339    333    332    346     1  180.0000771  0.3347200  3
    339    333    728    743     1  0.0000000  8.3680000  1
    339    333    728    743     1  180.0000771  10.4600000  2
    340    335    334    347     1  0.0000000  3.3472000  1
    340    335    334    347     1  0.0000000  0.0000000  2
    340    335    334    347     1  180.0000771  0.3347200  3
    340    335    334    348     1  0.0000000  3.3472000  1
    340    335    334    348     1  0.0000000  0.0000000  2
    340    335    334    348     1  180.0000771  0.3347200  3
    340    335    754    769     1  0.0000000  8.3680000  1
    340    335    754    769     1  180.0000771  10.4600000  2
    341    330    329    354     1  0.0000000  0.6508444  3
    341    330    332    345     1  0.0000000  0.6508444  3
    341    330    332    346     1  0.0000000  0.6508444  3
    342    330    329    354     1  0.0000000  0.6508444  3
    342    330    332    345     1  0.0000000  0.6508444  3
    342    330    332    346     1  0.0000000  0.6508444  3
    343    331    329    354     1  0.0000000  0.6508444  3
    343    331    334    347     1  0.0000000  0.6508444  3
    343    331    334    348     1  0.0000000  0.6508444  3
    344    331    329    354     1  0.0000000  0.6508444  3
    344    331    334    347     1  0.0000000  0.6508444  3
    344    331    334    348     1  0.0000000  0.6508444  3
    345    332    333    728     1  180.0000771  0.0000000  2
    346    332    333    728     1  180.0000771  0.0000000  2
    347    334    335    754     1  180.0000771  0.0000000  2
    348    334    335    754     1  180.0000771  0.0000000  2
    349    336    329    354     1  0.0000000  0.6508444  3
    349    336    337    351     1  0.0000000  0.6508444  3
    349    336    337    352     1  0.0000000  0.6508444  3
    350    336    329    354     1  0.0000000  0.6508444  3
    350    336    337    351     1  0.0000000  0.6508444  3
    350    336    337    352     1  0.0000000  0.6508444  3
    351    337    338    353     1  0.0000000  0.0000000  2
    352    337    338    353     1  0.0000000  0.0000000  2
    355    356    358    371     1  0.0000000  0.6508444  3
    355    356    358    372     1  0.0000000  0.6508444  3
    355    357    360    373     1  0.0000000  0.6508444  3
    355    357    360    374     1  0.0000000  0.6508444  3
    355    362    363    377     1  0.0000000  0.6508444  3
    355    362    363    378     1  0.0000000  0.6508444  3
    356    355    357    369     1  0.0000000  0.6508444  3
    356    355    357    370     1  0.0000000  0.6508444  3
    356    355    362    375     1  0.0000000  0.6508444  3
    356    355    362    376     1  0.0000000  0.6508444  3
    357    355    356    367     1  0.0000000  0.6508444  3
    357    355    356    368     1  0.0000000  0.6508444  3
    357    355    362    375     1  0.0000000  0.6508444  3
    357    355    362    376     1  0.0000000  0.6508444  3
    358    356    355    380     1  0.0000000  0.6508444  3
    358    359    780    795     1  180.0000771  10.4600000  2
    359    358    356    367     1  0.0000000  0.6508444  3
    359    358    356    368     1  0.0000000  0.6508444  3
    359    780    779    793     1  0.0000000  0.0000000  2
    359    780    779    794     1  0.0000000  0.0000000  2
    360    357    355    380     1  0.0000000  0.6508444  3
    360    361    806    821     1  180.0000771  10.4600000  2
    361    360    357    369     1  0.0000000  0.6508444  3
    361    360    357    370     1  0.0000000  0.6508444  3
    361    806    805    819     1  0.0000000  0.0000000  2
    361    806    805    820     1  0.0000000  0.0000000  2
    362    355    356    367     1  0.0000000  0.6508444  3
    362    355    356    368     1  0.0000000  0.6508444  3
    362    355    357    369     1  0.0000000  0.6508444  3
    362    355    357    370     1  0.0000000  0.6508444  3
    362    363    364    379     1  0.0000000  0.0000000  2
    363    362    355    380     1  0.0000000  0.6508444  3
    364    363    362    375     1  0.0000000  0.6508444  3
    364    363    362    376     1  0.0000000  0.6508444  3
    365    359    358    371     1  0.0000000  3.3472000  1
    365    359    358    371     1  0.0000000  0.0000000  2
    365    359    358    371     1  180.0000771  0.3347200  3
    365    359    358    372     1  0.0000000  3.3472000  1
    365    359    358    372     1  0.0000000  0.0000000  2
    365    359    358    372     1  180.0000771  0.3347200  3
    365    359    780    795     1  0.0000000  8.3680000  1
    365    359    780    795     1  180.0000771  10.4600000  2
    366    361    360    373     1  0.0000000  3.3472000  1
    366    361    360    373     1  0.0000000  0.0000000  2
    366    361    360    373     1  180.0000771  0.3347200  3
    366    361    360    374     1  0.0000000  3.3472000  1
    366    361    360    374     1  0.0000000  0.0000000  2
    366    361    360    374     1  180.0000771  0.3347200  3
    366    361    806    821     1  0.0000000  8.3680000  1
    366    361    806    821     1  180.0000771  10.4600000  2
    367    356    355    380     1  0.0000000  0.6508444  3
    367    356    358    371     1  0.0000000  0.6508444  3
    367    356    358    372     1  0.0000000  0.6508444  3
    368    356    355    380     1  0.0000000  0.6508444  3
    368    356    358    371     1  0.0000000  0.6508444  3
    368    356    358    372     1  0.0000000  0.6508444  3
    369    357    355    380     1  0.0000000  0.6508444  3
    369    357    360    373     1  0.0000000  0.6508444  3
    369    357    360    374     1  0.0000000  0.6508444  3
    370    357    355    380     1  0.0000000  0.6508444  3
    370    357    360    373     1  0.0000000  0.6508444  3
    370    357    360    374     1  0.0000000  0.6508444  3
    371    358    359    780     1  180.0000771  0.0000000  2
    372    358    359    780     1  180.0000771  0.0000000  2
    373    360    361    806     1  180.0000771  0.0000000  2
    374    360    361    806     1  180.0000771  0.0000000  2
    375    362    355    380     1  0.0000000  0.6508444  3
    375    362    363    377     1  0.0000000  0.6508444  3
    375    362    363    378     1  0.0000000  0.6508444  3
    376    362    355    380     1  0.0000000  0.6508444  3
    376    362    363    377     1  0.0000000  0.6508444  3
    376    362    363    378     1  0.0000000  0.6508444  3
    377    363    364    379     1  0.0000000  0.0000000  2
    378    363    364    379     1  0.0000000  0.0000000  2
    381    382    384    397     1  0.0000000  0.6508444  3
    381    382    384    398     1  0.0000000  0.6508444  3
    381    383    386    399     1  0.0000000  0.6508444  3
    381    383    386    400     1  0.0000000  0.6508444  3
    381    388    389    403     1  0.0000000  0.6508444  3
    381    388    389    404     1  0.0000000  0.6508444  3
    382    381    383    395     1  0.0000000  0.6508444  3
    382    381    383    396     1  0.0000000  0.6508444  3
    382    381    388    401     1  0.0000000  0.6508444  3
    382    381    388    402     1  0.0000000  0.6508444  3
    383    381    382    393     1  0.0000000  0.6508444  3
    383    381    382    394     1  0.0000000  0.6508444  3
    383    381    388    401     1  0.0000000  0.6508444  3
    383    381    388    402     1  0.0000000  0.6508444  3
    384    382    381    406     1  0.0000000  0.6508444  3
    384    385    832    847     1  180.0000771  10.4600000  2
    385    384    382    393     1  0.0000000  0.6508444  3
    385    384    382    394     1  0.0000000  0.6508444  3
    385    832    831    845     1  0.0000000  0.0000000  2
    385    832    831    846     1  0.0000000  0.0000000  2
    386    383    381    406     1  0.0000000  0.6508444  3
    386    387    858    873     1  180.0000771  10.4600000  2
    387    386    383    395     1  0.0000000  0.6508444  3
    387    386    383    396     1  0.0000000  0.6508444  3
    387    858    857    871     1  0.0000000  0.0000000  2
    387    858    857    872     1  0.0000000  0.0000000  2
    388    381    382    393     1  0.0000000  0.6508444  3
    388    381    382    394     1  0.0000000  0.6508444  3
    388    381    383    395     1  0.0000000  0.6508444  3
    388    381    383    396     1  0.0000000  0.6508444  3
    388    389    390    405     1  0.0000000  0.0000000  2
    389    388    381    406     1  0.0000000  0.6508444  3
    390    389    388    401     1  0.0000000  0.6508444  3
    390    389    388    402     1  0.0000000  0.6508444  3
    391    385    384    397     1  0.0000000  3.3472000  1
    391    385    384    397     1  0.0000000  0.0000000  2
    391    385    384    397     1  180.0000771  0.3347200  3
    391    385    384    398     1  0.0000000  3.3472000  1
    391    385    384    398     1  0.0000000  0.0000000  2
    391    385    384    398     1  180.0000771  0.3347200  3
    391    385    832    847     1  0.0000000  8.3680000  1
    391    385    832    847     1  180.0000771  10.4600000  2
    392    387    386    399     1  0.0000000  3.3472000  1
    392    387    386    399     1  0.0000000  0.0000000  2
    392    387    386    399     1  180.0000771  0.3347200  3
    392    387    386    400     1  0.0000000  3.3472000  1
    392    387    386    400     1  0.0000000  0.0000000  2
    392    387    386    400     1  180.0000771  0.3347200  3
    392    387    858    873     1  0.0000000  8.3680000  1
    392    387    858    873     1  180.0000771  10.4600000  2
    393    382    381    406     1  0.0000000  0.6508444  3
    393    382    384    397     1  0.0000000  0.6508444  3
    393    382    384    398     1  0.0000000  0.6508444  3
    394    382    381    406     1  0.0000000  0.6508444  3
    394    382    384    397     1  0.0000000  0.6508444  3
    394    382    384    398     1  0.0000000  0.6508444  3
    395    383    381    406     1  0.0000000  0.6508444  3
    395    383    386    399     1  0.0000000  0.6508444  3
    395    383    386    400     1  0.0000000  0.6508444  3
    396    383    381    406     1  0.0000000  0.6508444  3
    396    383    386    399     1  0.0000000  0.6508444  3
    396    383    386    400     1  0.0000000  0.6508444  3
    397    384    385    832     1  180.0000771  0.0000000  2
    398    384    385    832     1  180.0000771  0.0000000  2
    399    386    387    858     1  180.0000771  0.0000000  2
    400    386    387    858     1  180.0000771  0.0000000  2
    401    388    381    406     1  0.0000000  0.6508444  3
    401    388    389    403     1  0.0000000  0.6508444  3
    401    388    389    404     1  0.0000000  0.6508444  3
    402    388    381    406     1  0.0000000  0.6508444  3
    402    388    389    403     1  0.0000000  0.6508444  3
    402    388    389    404     1  0.0000000  0.6508444  3
    403    389    390    405     1  0.0000000  0.0000000  2
    404    389    390    405     1  0.0000000  0.0000000  2
    407    408    410    423     1  0.0000000  0.6508444  3
    407    408    410    424     1  0.0000000  0.6508444  3
    407    409    412    425     1  0.0000000  0.6508444  3
    407    409    412    426     1  0.0000000  0.6508444  3
    407    414    415    429     1  0.0000000  0.6508444  3
    407    414    415    430     1  0.0000000  0.6508444  3
    408    407    409    421     1  0.0000000  0.6508444  3
    408    407    409    422     1  0.0000000  0.6508444  3
    408    407    414    427     1  0.0000000  0.6508444  3
    408    407    414    428     1  0.0000000  0.6508444  3
    409    407    408    419     1  0.0000000  0.6508444  3
    409    407    408    420     1  0.0000000  0.6508444  3
    409    407    414    427     1  0.0000000  0.6508444  3
    409    407    414    428     1  0.0000000  0.6508444  3
    410    408    407    432     1  0.0000000  0.6508444  3
    410    411    884    899     1  180.0000771  10.4600000  2
    411    410    408    419     1  0.0000000  0.6508444  3
    411    410    408    420     1  0.0000000  0.6508444  3
    411    884    883    897     1  0.0000000  0.0000000  2
    411    884    883    898     1  0.0000000  0.0000000  2
    412    409    407    432     1  0.0000000  0.6508444  3
    412    413    910    925     1  180.0000771  10.4600000  2
    413    412    409    421     1  0.0000000  0.6508444  3
    413    412    409    422     1  0.0000000  0.6508444  3
    413    910    909    923     1  0.0000000  0.0000000  2
    413    910    909    924     1  0.0000000  0.0000000  2
    414    407    408    419     1  0.0000000  0.6508444  3
    414    407    408    420     1  0.0000000  0.6508444  3
    414    407    409    421     1  0.0000000  0.6508444  3
    414    407    409    422     1  0.0000000  0.6508444  3
    414    415    416    431     1  0.0000000  0.0000000  2
    415    414    407    432     1  0.0000000  0.6508444  3
    416    415    414    427     1  0.0000000  0.6508444  3
    416    415    414    428     1  0.0000000  0.6508444  3
    417    411    410    423     1  0.0000000  3.3472000  1
    417    411    410    423     1  0.0000000  0.0000000  2
    417    411    410    423     1  180.0000771  0.3347200  3
    417    411    410    424     1  0.0000000  3.3472000  1
    417    411    410    424     1  0.0000000  0.0000000  2
    417    411    410    424     1  180.0000771  0.3347200  3
    417    411    884    899     1  0.0000000  8.3680000  1
    417    411    884    899     1  180.0000771  10.4600000  2
    418    413    412    425     1  0.0000000  3.3472000  1
    418    413    412    425     1  0.0000000  0.0000000  2
    418    413    412    425     1  180.0000771  0.3347200  3
    418    413    412    426     1  0.0000000  3.3472000  1
    418    413    412    426     1  0.0000000  0.0000000  2
    418    413    412    426     1  180.0000771  0.3347200  3
    418    413    910    925     1  0.0000000  8.3680000  1
    418    413    910    925     1  180.0000771  10.4600000  2
    419    408    407    432     1  0.0000000  0.6508444  3
    419    408    410    423     1  0.0000000  0.6508444  3
    419    408    410    424     1  0.0000000  0.6508444  3
    420    408    407    432     1  0.0000000  0.6508444  3
    420    408    410    423     1  0.0000000  0.6508444  3
    420    408    410    424     1  0.0000000  0.6508444  3
    421    409    407    432     1  0.0000000  0.6508444  3
    421    409    412    425     1  0.0000000  0.6508444  3
    421    409    412    426     1  0.0000000  0.6508444  3
    422    409    407    432     1  0.0000000  0.6508444  3
    422    409    412    425     1  0.0000000  0.6508444  3
    422    409    412    426     1  0.0000000  0.6508444  3
    423    410    411    884     1  180.0000771  0.0000000  2
    424    410    411    884     1  180.0000771  0.0000000  2
    425    412    413    910     1  180.0000771  0.0000000  2
    426    412    413    910     1  180.0000771  0.0000000  2
    427    414    407    432     1  0.0000000  0.6508444  3
    427    414    415    429     1  0.0000000  0.6508444  3
    427    414    415    430     1  0.0000000  0.6508444  3
    428    414    407    432     1  0.0000000  0.6508444  3
    428    414    415    429     1  0.0000000  0.6508444  3
    428    414    415    430     1  0.0000000  0.6508444  3
    429    415    416    431     1  0.0000000  0.0000000  2
    430    415    416    431     1  0.0000000  0.0000000  2
    433    434    436    449     1  0.0000000  0.6508444  3
    433    434    436    450     1  0.0000000  0.6508444  3
    433    435    438    451     1  0.0000000  0.6508444  3
    433    435    438    452     1  0.0000000  0.6508444  3
    433    440    441    455     1  0.0000000  0.6508444  3
    433    440    441    456     1  0.0000000  0.6508444  3
    434    433    435    447     1  0.0000000  0.6508444  3
    434    433    435    448     1  0.0000000  0.6508444  3
    434    433    440    453     1  0.0000000  0.6508444  3
    434    433    440    454     1  0.0000000  0.6508444  3
    435    433    434    445     1  0.0000000  0.6508444  3
    435    433    434    446     1  0.0000000  0.6508444  3
    435    433    440    453     1  0.0000000  0.6508444  3
    435    433    440    454     1  0.0000000  0.6508444  3
    436    434    433    458     1  0.0000000  0.6508444  3
    436    437    936    951     1  180.0000771  10.4600000  2
    437    436    434    445     1  0.0000000  0.6508444  3
    437    436    434    446     1  0.0000000  0.6508444  3
    437    936    935    949     1  0.0000000  0.0000000  2
    437    936    935    950     1  0.0000000  0.0000000  2
    438    435    433    458     1  0.0000000  0.6508444  3
    438    439    962    977     1  180.0000771  10.4600000  2
    439    438    435    447     1  0.0000000  0.6508444  3
    439    438    435    448     1  0.0000000  0.6508444  3
    439    962    961    975     1  0.0000000  0.0000000  2
    439    962    961    976     1  0.0000000  0.0000000  2
    440    433    434    445     1  0.0000000  0.6508444  3
    440    433    434    446     1  0.0000000  0.6508444  3
    440    433    435    447     1  0.0000000  0.6508444  3
    440    433    435    448     1  0.0000000  0.6508444  3
    440    441    442    457     1  0.0000000  0.0000000  2
    441    440    433    458     1  0.0000000  0.6508444  3
    442    441    440    453     1  0.0000000  0.6508444  3
    442    441    440    454     1  0.0000000  0.6508444  3
    443    437    436    449     1  0.0000000  3.3472000  1
    443    437    436    449     1  0.0000000  0.0000000  2
    443    437    436    449     1  180.0000771  0.3347200  3
    443    437    436    450     1  0.0000000  3.3472000  1
    443    437    436    450     1  0.0000000  0.0000000  2
    443    437    436    450     1  180.0000771  0.3347200  3
    443    437    936    951     1  0.0000000  8.3680000  1
    443    437    936    951     1  180.0000771  10.4600000  2
    444    439    438    451     1  0.0000000  3.3472000  1
    444    439    438    451     1  0.0000000  0.0000000  2
    444    439    438    451     1  180.0000771  0.3347200  3
    444    439    438    452     1  0.0000000  3.3472000  1
    444    439    438    452     1  0.0000000  0.0000000  2
    444    439    438    452     1  180.0000771  0.3347200  3
    444    439    962    977     1  0.0000000  8.3680000  1
    444    439    962    977     1  180.0000771  10.4600000  2
    445    434    433    458     1  0.0000000  0.6508444  3
    445    434    436    449     1  0.0000000  0.6508444  3
    445    434    436    450     1  0.0000000  0.6508444  3
    446    434    433    458     1  0.0000000  0.6508444  3
    446    434    436    449     1  0.0000000  0.6508444  3
    446    434    436    450     1  0.0000000  0.6508444  3
    447    435    433    458     1  0.0000000  0.6508444  3
    447    435    438    451     1  0.0000000  0.6508444  3
    447    435    438    452     1  0.0000000  0.6508444  3
    448    435    433    458     1  0.0000000  0.6508444  3
    448    435    438    451     1  0.0000000  0.6508444  3
    448    435    438    452     1  0.0000000  0.6508444  3
    449    436    437    936     1  180.0000771  0.0000000  2
    450    436    437    936     1  180.0000771  0.0000000  2
    451    438    439    962     1  180.0000771  0.0000000  2
    452    438    439    962     1  180.0000771  0.0000000  2
    453    440    433    458     1  0.0000000  0.6508444  3
    453    440    441    455     1  0.0000000  0.6508444  3
    453    440    441    456     1  0.0000000  0.6508444  3
    454    440    433    458     1  0.0000000  0.6508444  3
    454    440    441    455     1  0.0000000  0.6508444  3
    454    440    441    456     1  0.0000000  0.6508444  3
    455    441    442    457     1  0.0000000  0.0000000  2
    456    441    442    457     1  0.0000000  0.0000000  2
    459    460    462    475     1  0.0000000  0.6508444  3
    459    460    462    476     1  0.0000000  0.6508444  3
    459    461    464    477     1  0.0000000  0.6508444  3
    459    461    464    478     1  0.0000000  0.6508444  3
    459    466    467    481     1  0.0000000  0.6508444  3
    459    466    467    482     1  0.0000000  0.6508444  3
    460    459    461    473     1  0.0000000  0.6508444  3
    460    459    461    474     1  0.0000000  0.6508444  3
    460    459    466    479     1  0.0000000  0.6508444  3
    460    459    466    480     1  0.0000000  0.6508444  3
    461    459    460    471     1  0.0000000  0.6508444  3
    461    459    460    472     1  0.0000000  0.6508444  3
    461    459    466    479     1  0.0000000  0.6508444  3
    461    459    466    480     1  0.0000000  0.6508444  3
    462    460    459    484     1  0.0000000  0.6508444  3
    462    463    988   1003     1  180.0000771  10.4600000  2
    463    462    460    471     1  0.0000000  0.6508444  3
    463    462    460    472     1  0.0000000  0.6508444  3
    463    988    987   1001     1  0.0000000  0.0000000  2
    463    988    987   1002     1  0.0000000  0.0000000  2
    464    461    459    484     1  0.0000000  0.6508444  3
    464    465   1014   1029     1  180.0000771  10.4600000  2
    465    464    461    473     1  0.0000000  0.6508444  3
    465    464    461    474     1  0.0000000  0.6508444  3
    465   1014   1013   1027     1  0.0000000  0.0000000  2
    465   1014   1013   1028     1  0.0000000  0.0000000  2
    466    459    460    471     1  0.0000000  0.6508444  3
    466    459    460    472     1  0.0000000  0.6508444  3
    466    459    461    473     1  0.0000000  0.6508444  3
    466    459    461    474     1  0.0000000  0.6508444  3
    466    467    468    483     1  0.0000000  0.0000000  2
    467    466    459    484     1  0.0000000  0.6508444  3
    468    467    466    479     1  0.0000000  0.6508444  3
    468    467    466    480     1  0.0000000  0.6508444  3
    469    463    462    475     1  0.0000000  3.3472000  1
    469    463    462    475     1  0.0000000  0.0000000  2
    469    463    462    475     1  180.0000771  0.3347200  3
    469    463    462    476     1  0.0000000  3.3472000  1
    469    463    462    476     1  0.0000000  0.0000000  2
    469    463    462    476     1  180.0000771  0.3347200  3
    469    463    988   1003     1  0.0000000  8.3680000  1
    469    463    988   1003     1  180.0000771  10.4600000  2
    470    465    464    477     1  0.0000000  3.3472000  1
    470    465    464    477     1  0.0000000  0.0000000  2
    470    465    464    477     1  180.0000771  0.3347200  3
    470    465    464    478     1  0.0000000  3.3472000  1
    470    465    464    478     1  0.0000000  0.0000000  2
    470    465    464    478     1  180.0000771  0.3347200  3
    470    465   1014   1029     1  0.0000000  8.3680000  1
    470    465   1014   1029     1  180.0000771  10.4600000  2
    471    460    459    484     1  0.0000000  0.6508444  3
    471    460    462    475     1  0.0000000  0.6508444  3
    471    460    462    476     1  0.0000000  0.6508444  3
    472    460    459    484     1  0.0000000  0.6508444  3
    472    460    462    475     1  0.0000000  0.6508444  3
    472    460    462    476     1  0.0000000  0.6508444  3
    473    461    459    484     1  0.0000000  0.6508444  3
    473    461    464    477     1  0.0000000  0.6508444  3
    473    461    464    478     1  0.0000000  0.6508444  3
    474    461    459    484     1  0.0000000  0.6508444  3
    474    461    464    477     1  0.0000000  0.6508444  3
    474    461    464    478     1  0.0000000  0.6508444  3
    475    462    463    988     1  180.0000771  0.0000000  2
    476    462    463    988     1  180.0000771  0.0000000  2
    477    464    465   1014     1  180.0000771  0.0000000  2
    478    464    465   1014     1  180.0000771  0.0000000  2
    479    466    459    484     1  0.0000000  0.6508444  3
    479    466    467    481     1  0.0000000  0.6508444  3
    479    466    467    482     1  0.0000000  0.6508444  3
    480    466    459    484     1  0.0000000  0.6508444  3
    480    466    467    481     1  0.0000000  0.6508444  3
    480    466    467    482     1  0.0000000  0.6508444  3
    481    467    468    483     1  0.0000000  0.0000000  2
    482    467    468    483     1  0.0000000  0.0000000  2
    485    486    488    501     1  0.0000000  0.6508444  3
    485    486    488    502     1  0.0000000  0.6508444  3
    485    487    490    503     1  0.0000000  0.6508444  3
    485    487    490    504     1  0.0000000  0.6508444  3
    485    492    493    507     1  0.0000000  0.6508444  3
    485    492    493    508     1  0.0000000  0.6508444  3
    486    485    487    499     1  0.0000000  0.6508444  3
    486    485    487    500     1  0.0000000  0.6508444  3
    486    485    492    505     1  0.0000000  0.6508444  3
    486    485    492    506     1  0.0000000  0.6508444  3
    487    485    486    497     1  0.0000000  0.6508444  3
    487    485    486    498     1  0.0000000  0.6508444  3
    487    485    492    505     1  0.0000000  0.6508444  3
    487    485    492    506     1  0.0000000  0.6508444  3
    488    486    485    510     1  0.0000000  0.6508444  3
    488    489   1040   1055     1  180.0000771  10.4600000  2
    489    488    486    497     1  0.0000000  0.6508444  3
    489    488    486    498     1  0.0000000  0.6508444  3
    489   1040   1039   1053     1  0.0000000  0.0000000  2
    489   1040   1039   1054     1  0.0000000  0.0000000  2
    490    487    485    510     1  0.0000000  0.6508444  3
    490    491   1066   1081     1  180.0000771  10.4600000  2
    491    490    487    499     1  0.0000000  0.6508444  3
    491    490    487    500     1  0.0000000  0.6508444  3
    491   1066   1065   1079     1  0.0000000  0.0000000  2
    491   1066   1065   1080     1  0.0000000  0.0000000  2
    492    485    486    497     1  0.0000000  0.6508444  3
    492    485    486    498     1  0.0000000  0.6508444  3
    492    485    487    499     1  0.0000000  0.6508444  3
    492    485    487    500     1  0.0000000  0.6508444  3
    492    493    494    509     1  0.0000000  0.0000000  2
    493    492    485    510     1  0.0000000  0.6508444  3
    494    493    492    505     1  0.0000000  0.6508444  3
    494    493    492    506     1  0.0000000  0.6508444  3
    495    489    488    501     1  0.0000000  3.3472000  1
    495    489    488    501     1  0.0000000  0.0000000  2
    495    489    488    501     1  180.0000771  0.3347200  3
    495    489    488    502     1  0.0000000  3.3472000  1
    495    489    488    502     1  0.0000000  0.0000000  2
    495    489    488    502     1  180.0000771  0.3347200  3
    495    489   1040   1055     1  0.0000000  8.3680000  1
    495    489   1040   1055     1  180.0000771  10.4600000  2
    496    491    490    503     1  0.0000000  3.3472000  1
    496    491    490    503     1  0.0000000  0.0000000  2
    496    491    490    503     1  180.0000771  0.3347200  3
    496    491    490    504     1  0.0000000  3.3472000  1
    496    491    490    504     1  0.0000000  0.0000000  2
    496    491    490    504     1  180.0000771  0.3347200  3
    496    491   1066   1081     1  0.0000000  8.3680000  1
    496    491   1066   1081     1  180.0000771  10.4600000  2
    497    486    485    510     1  0.0000000  0.6508444  3
    497    486    488    501     1  0.0000000  0.6508444  3
    497    486    488    502     1  0.0000000  0.6508444  3
    498    486    485    510     1  0.0000000  0.6508444  3
    498    486    488    501     1  0.0000000  0.6508444  3
    498    486    488    502     1  0.0000000  0.6508444  3
    499    487    485    510     1  0.0000000  0.6508444  3
    499    487    490    503     1  0.0000000  0.6508444  3
    499    487    490    504     1  0.0000000  0.6508444  3
    500    487    485    510     1  0.0000000  0.6508444  3
    500    487    490    503     1  0.0000000  0.6508444  3
    500    487    490    504     1  0.0000000  0.6508444  3
    501    488    489   1040     1  180.0000771  0.0000000  2
    502    488    489   1040     1  180.0000771  0.0000000  2
    503    490    491   1066     1  180.0000771  0.0000000  2
    504    490    491   1066     1  180.0000771  0.0000000  2
    505    492    485    510     1  0.0000000  0.6508444  3
    505    492    493    507     1  0.0000000  0.6508444  3
    505    492    493    508     1  0.0000000  0.6508444  3
    506    492    485    510     1  0.0000000  0.6508444  3
    506    492    493    507     1  0.0000000  0.6508444  3
    506    492    493    508     1  0.0000000  0.6508444  3
    507    493    494    509     1  0.0000000  0.0000000  2
    508    493    494    509     1  0.0000000  0.0000000  2
    511    512    514    527     1  0.0000000  0.6508444  3
    511    512    514    528     1  0.0000000  0.6508444  3
    511    513    516    529     1  0.0000000  0.6508444  3
    511    513    516    530     1  0.0000000  0.6508444  3
    511    518    519    533     1  0.0000000  0.6508444  3
    511    518    519    534     1  0.0000000  0.6508444  3
    512    511    513    525     1  0.0000000  0.6508444  3
    512    511    513    526     1  0.0000000  0.6508444  3
    512    511    518    531     1  0.0000000  0.6508444  3
    512    511    518    532     1  0.0000000  0.6508444  3
    513    511    512    523     1  0.0000000  0.6508444  3
    513    511    512    524     1  0.0000000  0.6508444  3
    513    511    518    531     1  0.0000000  0.6508444  3
    513    511    518    532     1  0.0000000  0.6508444  3
    514    512    511    536     1  0.0000000  0.6508444  3
    514    515   1092   1107     1  180.0000771  10.4600000  2
    515    514    512    523     1  0.0000000  0.6508444  3
    515    514    512    524     1  0.0000000  0.6508444  3
    515   1092   1091   1105     1  0.0000000  0.0000000  2
    515   1092   1091   1106     1  0.0000000  0.0000000  2
    516    513    511    536     1  0.0000000  0.6508444  3
    516    517   1118   1133     1  180.0000771  10.4600000  2
    517    516    513    525     1  0.0000000  0.6508444  3
    517    516    513    526     1  0.0000000  0.6508444  3
    517   1118   1117   1131     1  0.0000000  0.0000000  2
    517   1118   1117   1132     1  0.0000000  0.0000000  2
    518    511    512    523     1  0.0000000  0.6508444  3
    518    511    512    524     1  0.0000000  0.6508444  3
    518    511    513    525     1  0.0000000  0.6508444  3
    518    511    513    526     1  0.0000000  0.6508444  3
    518    519    520    535     1  0.0000000  0.0000000  2
    519    518    511    536     1  0.0000000  0.6508444  3
    520    519    518    531     1  0.0000000  0.6508444  3
    520    519    518    532     1  0.0000000  0.6508444  3
    521    515    514    527     1  0.0000000  3.3472000  1
    521    515    514    527     1  0.0000000  0.0000000  2
    521    515    514    527     1  180.0000771  0.3347200  3
    521    515    514    528     1  0.0000000  3.3472000  1
    521    515    514    528     1  0.0000000  0.0000000  2
    521    515    514    528     1  180.0000771  0.3347200  3
    521    515   1092   1107     1  0.0000000  8.3680000  1
    521    515   1092   1107     1  180.0000771  10.4600000  2
    522    517    516    529     1  0.0000000  3.3472000  1
    522    517    516    529     1  0.0000000  0.0000000  2
    522    517    516    529     1  180.0000771  0.3347200  3
    522    517    516    530     1  0.0000000  3.3472000  1
    522    517    516    530     1  0.0000000  0.0000000  2
    522    517    516    530     1  180.0000771  0.3347200  3
    522    517   1118   1133     1  0.0000000  8.3680000  1
    522    517   1118   1133     1  180.0000771  10.4600000  2
    523    512    511    536     1  0.0000000  0.6508444  3
    523    512    514    527     1  0.0000000  0.6508444  3
    523    512    514    528     1  0.0000000  0.6508444  3
    524    512    511    536     1  0.0000000  0.6508444  3
    524    512    514    527     1  0.0000000  0.6508444  3
    524    512    514    528     1  0.0000000  0.6508444  3
    525    513    511    536     1  0.0000000  0.6508444  3
    525    513    516    529     1  0.0000000  0.6508444  3
    525    513    516    530     1  0.0000000  0.6508444  3
    526    513    511    536     1  0.0000000  0.6508444  3
    526    513    516    529     1  0.0000000  0.6508444  3
    526    513    516    530     1  0.0000000  0.6508444  3
    527    514    515   1092     1  180.0000771  0.0000000  2
    528    514    515   1092     1  180.0000771  0.0000000  2
    529    516    517   1118     1  180.0000771  0.0000000  2
    530    516    517   1118     1  180.0000771  0.0000000  2
    531    518    511    536     1  0.0000000  0.6508444  3
    531    518    519    533     1  0.0000000  0.6508444  3
    531    518    519    534     1  0.0000000  0.6508444  3
    532    518    511    536     1  0.0000000  0.6508444  3
    532    518    519    533     1  0.0000000  0.6508444  3
    532    518    519    534     1  0.0000000  0.6508444  3
    533    519    520    535     1  0.0000000  0.0000000  2
    534    519    520    535     1  0.0000000  0.0000000  2
    537    538    540    553     1  0.0000000  0.6508444  3
    537    538    540    554     1  0.0000000  0.6508444  3
    537    539    542    555     1  0.0000000  0.6508444  3
    537    539    542    556     1  0.0000000  0.6508444  3
    537    544    545    559     1  0.0000000  0.6508444  3
    537    544    545    560     1  0.0000000  0.6508444  3
    538    537    539    551     1  0.0000000  0.6508444  3
    538    537    539    552     1  0.0000000  0.6508444  3
    538    537    544    557     1  0.0000000  0.6508444  3
    538    537    544    558     1  0.0000000  0.6508444  3
    539    537    538    549     1  0.0000000  0.6508444  3
    539    537    538    550     1  0.0000000  0.6508444  3
    539    537    544    557     1  0.0000000  0.6508444  3
    539    537    544    558     1  0.0000000  0.6508444  3
    540    538    537    562     1  0.0000000  0.6508444  3
    540    541   1144   1159     1  180.0000771  10.4600000  2
    541    540    538    549     1  0.0000000  0.6508444  3
    541    540    538    550     1  0.0000000  0.6508444  3
    541   1144   1143   1157     1  0.0000000  0.0000000  2
    541   1144   1143   1158     1  0.0000000  0.0000000  2
    542    539    537    562     1  0.0000000  0.6508444  3
    542    543   1170   1185     1  180.0000771  10.4600000  2
    543    542    539    551     1  0.0000000  0.6508444  3
    543    542    539    552     1  0.0000000  0.6508444  3
    543   1170   1169   1183     1  0.0000000  0.0000000  2
    543   1170   1169   1184     1  0.0000000  0.0000000  2
    544    537    538    549     1  0.0000000  0.6508444  3
    544    537    538    550     1  0.0000000  0.6508444  3
    544    537    539    551     1  0.0000000  0.6508444  3
    544    537    539    552     1  0.0000000  0.6508444  3
    544    545    546    561     1  0.0000000  0.0000000  2
    545    544    537    562     1  0.0000000  0.6508444  3
    546    545    544    557     1  0.0000000  0.6508444  3
    546    545    544    558     1  0.0000000  0.6508444  3
    547    541    540    553     1  0.0000000  3.3472000  1
    547    541    540    553     1  0.0000000  0.0000000  2
    547    541    540    553     1  180.0000771  0.3347200  3
    547    541    540    554     1  0.0000000  3.3472000  1
    547    541    540    554     1  0.0000000  0.0000000  2
    547    541    540    554     1  180.0000771  0.3347200  3
    547    541   1144   1159     1  0.0000000  8.3680000  1
    547    541   1144   1159     1  180.0000771  10.4600000  2
    548    543    542    555     1  0.0000000  3.3472000  1
    548    543    542    555     1  0.0000000  0.0000000  2
    548    543    542    555     1  180.0000771  0.3347200  3
    548    543    542    556     1  0.0000000  3.3472000  1
    548    543    542    556     1  0.0000000  0.0000000  2
    548    543    542    556     1  180.0000771  0.3347200  3
    548    543   1170   1185     1  0.0000000  8.3680000  1
    548    543   1170   1185     1  180.0000771  10.4600000  2
    549    538    537    562     1  0.0000000  0.6508444  3
    549    538    540    553     1  0.0000000  0.6508444  3
    549    538    540    554     1  0.0000000  0.6508444  3
    550    538    537    562     1  0.0000000  0.6508444  3
    550    538    540    553     1  0.0000000  0.6508444  3
    550    538    540    554     1  0.0000000  0.6508444  3
    551    539    537    562     1  0.0000000  0.6508444  3
    551    539    542    555     1  0.0000000  0.6508444  3
    551    539    542    556     1  0.0000000  0.6508444  3
    552    539    537    562     1  0.0000000  0.6508444  3
    552    539    542    555     1  0.0000000  0.6508444  3
    552    539    542    556     1  0.0000000  0.6508444  3
    553    540    541   1144     1  180.0000771  0.0000000  2
    554    540    541   1144     1  180.0000771  0.0000000  2
    555    542    543   1170     1  180.0000771  0.0000000  2
    556    542    543   1170     1  180.0000771  0.0000000  2
    557    544    537    562     1  0.0000000  0.6508444  3
    557    544    545    559     1  0.0000000  0.6508444  3
    557    544    545    560     1  0.0000000  0.6508444  3
    558    544    537    562     1  0.0000000  0.6508444  3
    558    544    545    559     1  0.0000000  0.6508444  3
    558    544    545    560     1  0.0000000  0.6508444  3
    559    545    546    561     1  0.0000000  0.0000000  2
    560    545    546    561     1  0.0000000  0.0000000  2
    563    564    566    579     1  0.0000000  0.6508444  3
    563    564    566    580     1  0.0000000  0.6508444  3
    563    565    568    581     1  0.0000000  0.6508444  3
    563    565    568    582     1  0.0000000  0.6508444  3
    563    570    571    585     1  0.0000000  0.6508444  3
    563    570    571    586     1  0.0000000  0.6508444  3
    564    563    565    577     1  0.0000000  0.6508444  3
    564    563    565    578     1  0.0000000  0.6508444  3
    564    563    570    583     1  0.0000000  0.6508444  3
    564    563    570    584     1  0.0000000  0.6508444  3
    565    563    564    575     1  0.0000000  0.6508444  3
    565    563    564    576     1  0.0000000  0.6508444  3
    565    563    570    583     1  0.0000000  0.6508444  3
    565    563    570    584     1  0.0000000  0.6508444  3
    566    564    563    588     1  0.0000000  0.6508444  3
    566    567   1196   1211     1  180.0000771  10.4600000  2
    567    566    564    575     1  0.0000000  0.6508444  3
    567    566    564    576     1  0.0000000  0.6508444  3
    567   1196   1195   1209     1  0.0000000  0.0000000  2
    567   1196   1195   1210     1  0.0000000  0.0000000  2
    568    565    563    588     1  0.0000000  0.6508444  3
    568    569   1222   1237     1  180.0000771  10.4600000  2
    569    568    565    577     1  0.0000000  0.6508444  3
    569    568    565    578     1  0.0000000  0.6508444  3
    569   1222   1221   1235     1  0.0000000  0.0000000  2
    569   1222   1221   1236     1  0.0000000  0.0000000  2
    570    563    564    575     1  0.0000000  0.6508444  3
    570    563    564    576     1  0.0000000  0.6508444  3
    570    563    565    577     1  0.0000000  0.6508444  3
    570    563    565    578     1  0.0000000  0.6508444  3
    570    571    572    587     1  0.0000000  0.0000000  2
    571    570    563    588     1  0.0000000  0.6508444  3
    572    571    570    583     1  0.0000000  0.6508444  3
    572    571    570    584     1  0.0000000  0.6508444  3
    573    567    566    579     1  0.0000000  3.3472000  1
    573    567    566    579     1  0.0000000  0.0000000  2
    573    567    566    579     1  180.0000771  0.3347200  3
    573    567    566    580     1  0.0000000  3.3472000  1
    573    567    566    580     1  0.0000000  0.0000000  2
    573    567    566    580     1  180.0000771  0.3347200  3
    573    567   1196   1211     1  0.0000000  8.3680000  1
    573    567   1196   1211     1  180.0000771  10.4600000  2
    574    569    568    581     1  0.0000000  3.3472000  1
    574    569    568    581     1  0.0000000  0.0000000  2
    574    569    568    581     1  180.0000771  0.3347200  3
    574    569    568    582     1  0.0000000  3.3472000  1
    574    569    568    582     1  0.0000000  0.0000000  2
    574    569    568    582     1  180.0000771  0.3347200  3
    574    569   1222   1237     1  0.0000000  8.3680000  1
    574    569   1222   1237     1  180.0000771  10.4600000  2
    575    564    563    588     1  0.0000000  0.6508444  3
    575    564    566    579     1  0.0000000  0.6508444  3
    575    564    566    580     1  0.0000000  0.6508444  3
    576    564    563    588     1  0.0000000  0.6508444  3
    576    564    566    579     1  0.0000000  0.6508444  3
    576    564    566    580     1  0.0000000  0.6508444  3
    577    565    563    588     1  0.0000000  0.6508444  3
    577    565    568    581     1  0.0000000  0.6508444  3
    577    565    568    582     1  0.0000000  0.6508444  3
    578    565    563    588     1  0.0000000  0.6508444  3
    578    565    568    581     1  0.0000000  0.6508444  3
    578    565    568    582     1  0.0000000  0.6508444  3
    579    566    567   1196     1  180.0000771  0.0000000  2
    580    566    567   1196     1  180.0000771  0.0000000  2
    581    568    569   1222     1  180.0000771  0.0000000  2
    582    568    569   1222     1  180.0000771  0.0000000  2
    583    570    563    588     1  0.0000000  0.6508444  3
    583    570    571    585     1  0.0000000  0.6508444  3
    583    570    571    586     1  0.0000000  0.6508444  3
    584    570    563    588     1  0.0000000  0.6508444  3
    584    570    571    585     1  0.0000000  0.6508444  3
    584    570    571    586     1  0.0000000  0.6508444  3
    585    571    572    587     1  0.0000000  0.0000000  2
    586    571    572    587     1  0.0000000  0.0000000  2
    589    590    592    605     1  0.0000000  0.6508444  3
    589    590    592    606     1  0.0000000  0.6508444  3
    589    591    594    607     1  0.0000000  0.6508444  3
    589    591    594    608     1  0.0000000  0.6508444  3
    589    596    597    611     1  0.0000000  0.6508444  3
    589    596    597    612     1  0.0000000  0.6508444  3
    590    589    591    603     1  0.0000000  0.6508444  3
    590    589    591    604     1  0.0000000  0.6508444  3
    590    589    596    609     1  0.0000000  0.6508444  3
    590    589    596    610     1  0.0000000  0.6508444  3
    591    589    590    601     1  0.0000000  0.6508444  3
    591    589    590    602     1  0.0000000  0.6508444  3
    591    589    596    609     1  0.0000000  0.6508444  3
    591    589    596    610     1  0.0000000  0.6508444  3
    592    590    589    614     1  0.0000000  0.6508444  3
    592    593   1248   1263     1  180.0000771  10.4600000  2
    593    592    590    601     1  0.0000000  0.6508444  3
    593    592    590    602     1  0.0000000  0.6508444  3
    593   1248   1247   1261     1  0.0000000  0.0000000  2
    593   1248   1247   1262     1  0.0000000  0.0000000  2
    594    591    589    614     1  0.0000000  0.6508444  3
    594    595   1274   1289     1  180.0000771  10.4600000  2
    595    594    591    603     1  0.0000000  0.6508444  3
    595    594    591    604     1  0.0000000  0.6508444  3
    595   1274   1273   1287     1  0.0000000  0.0000000  2
    595   1274   1273   1288     1  0.0000000  0.0000000  2
    596    589    590    601     1  0.0000000  0.6508444  3
    596    589    590    602     1  0.0000000  0.6508444  3
    596    589    591    603     1  0.0000000  0.6508444  3
    596    589    591    604     1  0.0000000  0.6508444  3
    596    597    598    613     1  0.0000000  0.0000000  2
    597    596    589    614     1  0.0000000  0.6508444  3
    598    597    596    609     1  0.0000000  0.6508444  3
    598    597    596    610     1  0.0000000  0.6508444  3
    599    593    592    605     1  0.0000000  3.3472000  1
    599    593    592    605     1  0.0000000  0.0000000  2
    599    593    592    605     1  180.0000771  0.3347200  3
    599    593    592    606     1  0.0000000  3.3472000  1
    599    593    592    606     1  0.0000000  0.0000000  2
    599    593    592    606     1  180.0000771  0.3347200  3
    599    593   1248   1263     1  0.0000000  8.3680000  1
    599    593   1248   1263     1  180.0000771  10.4600000  2
    600    595    594    607     1  0.0000000  3.3472000  1
    600    595    594    607     1  0.0000000  0.0000000  2
    600    595    594    607     1  180.0000771  0.3347200  3
    600    595    594    608     1  0.0000000  3.3472000  1
    600    595    594    608     1  0.0000000  0.0000000  2
    600    595    594    608     1  180.0000771  0.3347200  3
    600    595   1274   1289     1  0.0000000  8.3680000  1
    600    595   1274   1289     1  180.0000771  10.4600000  2
    601    590    589    614     1  0.0000000  0.6508444  3
    601    590    592    605     1  0.0000000  0.6508444  3
    601    590    592    606     1  0.0000000  0.6508444  3
    602    590    589    614     1  0.0000000  0.6508444  3
    602    590    592    605     1  0.0000000  0.6508444  3
    602    590    592    606     1  0.0000000  0.6508444  3
    603    591    589    614     1  0.0000000  0.6508444  3
    603    591    594    607     1  0.0000000  0.6508444  3
    603    591    594    608     1  0.0000000  0.6508444  3
    604    591    589    614     1  0.0000000  0.6508444  3
    604    591    594    607     1  0.0000000  0.6508444  3
    604    591    594    608     1  0.0000000  0.6508444  3
    605    592    593   1248     1  180.0000771  0.0000000  2
    606    592    593   1248     1  180.0000771  0.0000000  2
    607    594    595   1274     1  180.0000771  0.0000000  2
    608    594    595   1274     1  180.0000771  0.0000000  2
    609    596    589    614     1  0.0000000  0.6508444  3
    609    596    597    611     1  0.0000000  0.6508444  3
    609    596    597    612     1  0.0000000  0.6508444  3
    610    596    589    614     1  0.0000000  0.6508444  3
    610    596    597    611     1  0.0000000  0.6508444  3
    610    596    597    612     1  0.0000000  0.6508444  3
    611    597    598    613     1  0.0000000  0.0000000  2
    612    597    598    613     1  0.0000000  0.0000000  2
    615    616    618    631     1  0.0000000  0.6508444  3
    615    616    618    632     1  0.0000000  0.6508444  3
    615    617    620    633     1  0.0000000  0.6508444  3
    615    617    620    634     1  0.0000000  0.6508444  3
    615    622    623    637     1  0.0000000  0.6508444  3
    615    622    623    638     1  0.0000000  0.6508444  3
    616    615    617    629     1  0.0000000  0.6508444  3
    616    615    617    630     1  0.0000000  0.6508444  3
    616    615    622    635     1  0.0000000  0.6508444  3
    616    615    622    636     1  0.0000000  0.6508444  3
    617    615    616    627     1  0.0000000  0.6508444  3
    617    615    616    628     1  0.0000000  0.6508444  3
    617    615    622    635     1  0.0000000  0.6508444  3
    617    615    622    636     1  0.0000000  0.6508444  3
    618    616    615    640     1  0.0000000  0.6508444  3
    618    619   1300   1315     1  180.0000771  10.4600000  2
    619    618    616    627     1  0.0000000  0.6508444  3
    619    618    616    628     1  0.0000000  0.6508444  3
    619   1300   1299   1313     1  0.0000000  0.0000000  2
    619   1300   1299   1314     1  0.0000000  0.0000000  2
    620    617    615    640     1  0.0000000  0.6508444  3
    620    621   1326   1341     1  180.0000771  10.4600000  2
    621    620    617    629     1  0.0000000  0.6508444  3
    621    620    617    630     1  0.0000000  0.6508444  3
    621   1326   1325   1339     1  0.0000000  0.0000000  2
    621   1326   1325   1340     1  0.0000000  0.0000000  2
    622    615    616    627     1  0.0000000  0.6508444  3
    622    615    616    628     1  0.0000000  0.6508444  3
    622    615    617    629     1  0.0000000  0.6508444  3
    622    615    617    630     1  0.0000000  0.6508444  3
    622    623    624    639     1  0.0000000  0.0000000  2
    623    622    615    640     1  0.0000000  0.6508444  3
    624    623    622    635     1  0.0000000  0.6508444  3
    624    623    622    636     1  0.0000000  0.6508444  3
    625    619    618    631     1  0.0000000  3.3472000  1
    625    619    618    631     1  0.0000000  0.0000000  2
    625    619    618    631     1  180.0000771  0.3347200  3
    625    619    618    632     1  0.0000000  3.3472000  1
    625    619    618    632     1  0.0000000  0.0000000  2
    625    619    618    632     1  180.0000771  0.3347200  3
    625    619   1300   1315     1  0.0000000  8.3680000  1
    625    619   1300   1315     1  180.0000771  10.4600000  2
    626    621    620    633     1  0.0000000  3.3472000  1
    626    621    620    633     1  0.0000000  0.0000000  2
    626    621    620    633     1  180.0000771  0.3347200  3
    626    621    620    634     1  0.0000000  3.3472000  1
    626    621    620    634     1  0.0000000  0.0000000  2
    626    621    620    634     1  180.0000771  0.3347200  3
    626    621   1326   1341     1  0.0000000  8.3680000  1
    626    621   1326   1341     1  180.0000771  10.4600000  2
    627    616    615    640     1  0.0000000  0.6508444  3
    627    616    618    631     1  0.0000000  0.6508444  3
    627    616    618    632     1  0.0000000  0.6508444  3
    628    616    615    640     1  0.0000000  0.6508444  3
    628    616    618    631     1  0.0000000  0.6508444  3
    628    616    618    632     1  0.0000000  0.6508444  3
    629    617    615    640     1  0.0000000  0.6508444  3
    629    617    620    633     1  0.0000000  0.6508444  3
    629    617    620    634     1  0.0000000  0.6508444  3
    630    617    615    640     1  0.0000000  0.6508444  3
    630    617    620    633     1  0.0000000  0.6508444  3
    630    617    620    634     1  0.0000000  0.6508444  3
    631    618    619   1300     1  180.0000771  0.0000000  2
    632    618    619   1300     1  180.0000771  0.0000000  2
    633    620    621   1326     1  180.0000771  0.0000000  2
    634    620    621   1326     1  180.0000771  0.0000000  2
    635    622    615    640     1  0.0000000  0.6508444  3
    635    622    623    637     1  0.0000000  0.6508444  3
    635    622    623    638     1  0.0000000  0.6508444  3
    636    622    615    640     1  0.0000000  0.6508444  3
    636    622    623    637     1  0.0000000  0.6508444  3
    636    622    623    638     1  0.0000000  0.6508444  3
    637    623    624    639     1  0.0000000  0.0000000  2
    638    623    624    639     1  0.0000000  0.0000000  2
    641    642    644    657     1  0.0000000  0.6508444  3
    641    642    644    658     1  0.0000000  0.6508444  3
    641    643    646    659     1  0.0000000  0.6508444  3
    641    643    646    660     1  0.0000000  0.6508444  3
    641    648    649    663     1  0.0000000  0.6508444  3
    641    648    649    664     1  0.0000000  0.6508444  3
    642    641    643    655     1  0.0000000  0.6508444  3
    642    641    643    656     1  0.0000000  0.6508444  3
    642    641    648    661     1  0.0000000  0.6508444  3
    642    641    648    662     1  0.0000000  0.6508444  3
    643    641    642    653     1  0.0000000  0.6508444  3
    643    641    642    654     1  0.0000000  0.6508444  3
    643    641    648    661     1  0.0000000  0.6508444  3
    643    641    648    662     1  0.0000000  0.6508444  3
    644    642    641    666     1  0.0000000  0.6508444  3
    644    645   1352   1367     1  180.0000771  10.4600000  2
    645    644    642    653     1  0.0000000  0.6508444  3
    645    644    642    654     1  0.0000000  0.6508444  3
    645   1352   1351   1365     1  0.0000000  0.0000000  2
    645   1352   1351   1366     1  0.0000000  0.0000000  2
    646    643    641    666     1  0.0000000  0.6508444  3
    646    647   1378   1393     1  180.0000771  10.4600000  2
    647    646    643    655     1  0.0000000  0.6508444  3
    647    646    643    656     1  0.0000000  0.6508444  3
    647   1378   1377   1391     1  0.0000000  0.0000000  2
    647   1378   1377   1392     1  0.0000000  0.0000000  2
    648    641    642    653     1  0.0000000  0.6508444  3
    648    641    642    654     1  0.0000000  0.6508444  3
    648    641    643    655     1  0.0000000  0.6508444  3
    648    641    643    656     1  0.0000000  0.6508444  3
    648    649    650    665     1  0.0000000  0.0000000  2
    649    648    641    666     1  0.0000000  0.6508444  3
    650    649    648    661     1  0.0000000  0.6508444  3
    650    649    648    662     1  0.0000000  0.6508444  3
    651    645    644    657     1  0.0000000  3.3472000  1
    651    645    644    657     1  0.0000000  0.0000000  2
    651    645    644    657     1  180.0000771  0.3347200  3
    651    645    644    658     1  0.0000000  3.3472000  1
    651    645    644    658     1  0.0000000  0.0000000  2
    651    645    644    658     1  180.0000771  0.3347200  3
    651    645   1352   1367     1  0.0000000  8.3680000  1
    651    645   1352   1367     1  180.0000771  10.4600000  2
    652    647    646    659     1  0.0000000  3.3472000  1
    652    647    646    659     1  0.0000000  0.0000000  2
    652    647    646    659     1  180.0000771  0.3347200  3
    652    647    646    660     1  0.0000000  3.3472000  1
    652    647    646    660     1  0.0000000  0.0000000  2
    652    647    646    660     1  180.0000771  0.3347200  3
    652    647   1378   1393     1  0.0000000  8.3680000  1
    652    647   1378   1393     1  180.0000771  10.4600000  2
    653    642    641    666     1  0.0000000  0.6508444  3
    653    642    644    657     1  0.0000000  0.6508444  3
    653    642    644    658     1  0.0000000  0.6508444  3
    654    642    641    666     1  0.0000000  0.6508444  3
    654    642    644    657     1  0.0000000  0.6508444  3
    654    642    644    658     1  0.0000000  0.6508444  3
    655    643    641    666     1  0.0000000  0.6508444  3
    655    643    646    659     1  0.0000000  0.6508444  3
    655    643    646    660     1  0.0000000  0.6508444  3
    656    643    641    666     1  0.0000000  0.6508444  3
    656    643    646    659     1  0.0000000  0.6508444  3
    656    643    646    660     1  0.0000000  0.6508444  3
    657    644    645   1352     1  180.0000771  0.0000000  2
    658    644    645   1352     1  180.0000771  0.0000000  2
    659    646    647   1378     1  180.0000771  0.0000000  2
    660    646    647   1378     1  180.0000771  0.0000000  2
    661    648    641    666     1  0.0000000  0.6508444  3
    661    648    649    663     1  0.0000000  0.6508444  3
    661    648    649    664     1  0.0000000  0.6508444  3
    662    648    641    666     1  0.0000000  0.6508444  3
    662    648    649    663     1  0.0000000  0.6508444  3
    662    648    649    664     1  0.0000000  0.6508444  3
    663    649    650    665     1  0.0000000  0.0000000  2
    664    649    650    665     1  0.0000000  0.0000000  2
    667    668    670    683     1  0.0000000  0.6508444  3
    667    668    670    684     1  0.0000000  0.6508444  3
    667    669    672    685     1  0.0000000  0.6508444  3
    667    669    672    686     1  0.0000000  0.6508444  3
    667    674    675    689     1  0.0000000  0.6508444  3
    667    674    675    690     1  0.0000000  0.6508444  3
    668    667    669    681     1  0.0000000  0.6508444  3
    668    667    669    682     1  0.0000000  0.6508444  3
    668    667    674    687     1  0.0000000  0.6508444  3
    668    667    674    688     1  0.0000000  0.6508444  3
    669    667    668    679     1  0.0000000  0.6508444  3
    669    667    668    680     1  0.0000000  0.6508444  3
    669    667    674    687     1  0.0000000  0.6508444  3
    669    667    674    688     1  0.0000000  0.6508444  3
    670    668    667    692     1  0.0000000  0.6508444  3
    670    671   1404   1419     1  180.0000771  10.4600000  2
    671    670    668    679     1  0.0000000  0.6508444  3
    671    670    668    680     1  0.0000000  0.6508444  3
    671   1404   1403   1417     1  0.0000000  0.0000000  2
    671   1404   1403   1418     1  0.0000000  0.0000000  2
    672    669    667    692     1  0.0000000  0.6508444  3
    672    673   1430   1445     1  180.0000771  10.4600000  2
    673    672    669    681     1  0.0000000  0.6508444  3
    673    672    669    682     1  0.0000000  0.6508444  3
    673   1430   1429   1443     1  0.0000000  0.0000000  2
    673   1430   1429   1444     1  0.0000000  0.0000000  2
    674    667    668    679     1  0.0000000  0.6508444  3
    674    667    668    680     1  0.0000000  0.6508444  3
    674    667    669    681     1  0.0000000  0.6508444  3
    674    667    669    682     1  0.0000000  0.6508444  3
    674    675    676    691     1  0.0000000  0.0000000  2
    675    674    667    692     1  0.0000000  0.6508444  3
    676    675    674    687     1  0.0000000  0.6508444  3
    676    675    674    688     1  0.0000000  0.6508444  3
    677    671    670    683     1  0.0000000  3.3472000  1
    677    671    670    683     1  0.0000000  0.0000000  2
    677    671    670    683     1  180.0000771  0.3347200  3
    677    671    670    684     1  0.0000000  3.3472000  1
    677    671    670    684     1  0.0000000  0.0000000  2
    677    671    670    684     1  180.0000771  0.3347200  3
    677    671   1404   1419     1  0.0000000  8.3680000  1
    677    671   1404   1419     1  180.0000771  10.4600000  2
    678    673    672    685     1  0.0000000  3.3472000  1
    678    673    672    685     1  0.0000000  0.0000000  2
    678    673    672    685     1  180.0000771  0.3347200  3
    678    673    672    686     1  0.0000000  3.3472000  1
    678    673    672    686     1  0.0000000  0.0000000  2
    678    673    672    686     1  180.0000771  0.3347200  3
    678    673   1430   1445     1  0.0000000  8.3680000  1
    678    673   1430   1445     1  180.0000771  10.4600000  2
    679    668    667    692     1  0.0000000  0.6508444  3
    679    668    670    683     1  0.0000000  0.6508444  3
    679    668    670    684     1  0.0000000  0.6508444  3
    680    668    667    692     1  0.0000000  0.6508444  3
    680    668    670    683     1  0.0000000  0.6508444  3
    680    668    670    684     1  0.0000000  0.6508444  3
    681    669    667    692     1  0.0000000  0.6508444  3
    681    669    672    685     1  0.0000000  0.6508444  3
    681    669    672    686     1  0.0000000  0.6508444  3
    682    669    667    692     1  0.0000000  0.6508444  3
    682    669    672    685     1  0.0000000  0.6508444  3
    682    669    672    686     1  0.0000000  0.6508444  3
    683    670    671   1404     1  180.0000771  0.0000000  2
    684    670    671   1404     1  180.0000771  0.0000000  2
    685    672    673   1430     1  180.0000771  0.0000000  2
    686    672    673   1430     1  180.0000771  0.0000000  2
    687    674    667    692     1  0.0000000  0.6508444  3
    687    674    675    689     1  0.0000000  0.6508444  3
    687    674    675    690     1  0.0000000  0.6508444  3
    688    674    667    692     1  0.0000000  0.6508444  3
    688    674    675    689     1  0.0000000  0.6508444  3
    688    674    675    690     1  0.0000000  0.6508444  3
    689    675    676    691     1  0.0000000  0.0000000  2
    690    675    676    691     1  0.0000000  0.0000000  2
    693    694    696    709     1  0.0000000  0.6508444  3
    693    694    696    710     1  0.0000000  0.6508444  3
    693    695    698    711     1  0.0000000  0.6508444  3
    693    695    698    712     1  0.0000000  0.6508444  3
    693    700    701    715     1  0.0000000  0.6508444  3
    693    700    701    716     1  0.0000000  0.6508444  3
    694    693    695    707     1  0.0000000  0.6508444  3
    694    693    695    708     1  0.0000000  0.6508444  3
    694    693    700    713     1  0.0000000  0.6508444  3
    694    693    700    714     1  0.0000000  0.6508444  3
    695    693    694    705     1  0.0000000  0.6508444  3
    695    693    694    706     1  0.0000000  0.6508444  3
    695    693    700    713     1  0.0000000  0.6508444  3
    695    693    700    714     1  0.0000000  0.6508444  3
    696    694    693    718     1  0.0000000  0.6508444  3
    696    697   1456   1471     1  180.0000771  10.4600000  2
    697    696    694    705     1  0.0000000  0.6508444  3
    697    696    694    706     1  0.0000000  0.6508444  3
    697   1456   1455   1469     1  0.0000000  0.0000000  2
    697   1456   1455   1470     1  0.0000000  0.0000000  2
    698    695    693    718     1  0.0000000  0.6508444  3
    698    699   1482   1497     1  180.0000771  10.4600000  2
    699    698    695    707     1  0.0000000  0.6508444  3
    699    698    695    708     1  0.0000000  0.6508444  3
    699   1482   1481   1495     1  0.0000000  0.0000000  2
    699   1482   1481   1496     1  0.0000000  0.0000000  2
    700    693    694    705     1  0.0000000  0.6508444  3
    700    693    694    706     1  0.0000000  0.6508444  3
    700    693    695    707     1  0.0000000  0.6508444  3
    700    693    695    708     1  0.0000000  0.6508444  3
    700    701    702    717     1  0.0000000  0.0000000  2
    701    700    693    718     1  0.0000000  0.6508444  3
    702    701    700    713     1  0.0000000  0.6508444  3
    702    701    700    714     1  0.0000000  0.6508444  3
    703    697    696    709     1  0.0000000  3.3472000  1
    703    697    696    709     1  0.0000000  0.0000000  2
    703    697    696    709     1  180.0000771  0.3347200  3
    703    697    696    710     1  0.0000000  3.3472000  1
    703    697    696    710     1  0.0000000  0.0000000  2
    703    697    696    710     1  180.0000771  0.3347200  3
    703    697   1456   1471     1  0.0000000  8.3680000  1
    703    697   1456   1471     1  180.0000771  10.4600000  2
    704    699    698    711     1  0.0000000  3.3472000  1
    704    699    698    711     1  0.0000000  0.0000000  2
    704    699    698    711     1  180.0000771  0.3347200  3
    704    699    698    712     1  0.0000000  3.3472000  1
    704    699    698    712     1  0.0000000  0.0000000  2
    704    699    698    712     1  180.0000771  0.3347200  3
    704    699   1482   1497     1  0.0000000  8.3680000  1
    704    699   1482   1497     1  180.0000771  10.4600000  2
    705    694    693    718     1  0.0000000  0.6508444  3
    705    694    696    709     1  0.0000000  0.6508444  3
    705    694    696    710     1  0.0000000  0.6508444  3
    706    694    693    718     1  0.0000000  0.6508444  3
    706    694    696    709     1  0.0000000  0.6508444  3
    706    694    696    710     1  0.0000000  0.6508444  3
    707    695    693    718     1  0.0000000  0.6508444  3
    707    695    698    711     1  0.0000000  0.6508444  3
    707    695    698    712     1  0.0000000  0.6508444  3
    708    695    693    718     1  0.0000000  0.6508444  3
    708    695    698    711     1  0.0000000  0.6508444  3
    708    695    698    712     1  0.0000000  0.6508444  3
    709    696    697   1456     1  180.0000771  0.0000000  2
    710    696    697   1456     1  180.0000771  0.0000000  2
    711    698    699   1482     1  180.0000771  0.0000000  2
    712    698    699   1482     1  180.0000771  0.0000000  2
    713    700    693    718     1  0.0000000  0.6508444  3
    713    700    701    715     1  0.0000000  0.6508444  3
    713    700    701    716     1  0.0000000  0.6508444  3
    714    700    693    718     1  0.0000000  0.6508444  3
    714    700    701    715     1  0.0000000  0.6508444  3
    714    700    701    716     1  0.0000000  0.6508444  3
    715    701    702    717     1  0.0000000  0.0000000  2
    716    701    702    717     1  0.0000000  0.0000000  2
    719    720    722    735     1  0.0000000  0.6508444  3
    719    720    722    736     1  0.0000000  0.6508444  3
    719    721    724    737     1  0.0000000  0.6508444  3
    719    721    724    738     1  0.0000000  0.6508444  3
    719    726    727    741     1  0.0000000  0.6508444  3
    719    726    727    742     1  0.0000000  0.6508444  3
    720    719    721    733     1  0.0000000  0.6508444  3
    720    719    721    734     1  0.0000000  0.6508444  3
    720    719    726    739     1  0.0000000  0.6508444  3
    720    719    726    740     1  0.0000000  0.6508444  3
    721    719    720    731     1  0.0000000  0.6508444  3
    721    719    720    732     1  0.0000000  0.6508444  3
    721    719    726    739     1  0.0000000  0.6508444  3
    721    719    726    740     1  0.0000000  0.6508444  3
    722    720    719    744     1  0.0000000  0.6508444  3
    722    723   1508   1523     1  180.0000771  10.4600000  2
    723    722    720    731     1  0.0000000  0.6508444  3
    723    722    720    732     1  0.0000000  0.6508444  3
    723   1508   1507   1521     1  0.0000000  0.0000000  2
    723   1508   1507   1522     1  0.0000000  0.0000000  2
    724    721    719    744     1  0.0000000  0.6508444  3
    724    725   1534   1549     1  180.0000771  10.4600000  2
    725    724    721    733     1  0.0000000  0.6508444  3
    725    724    721    734     1  0.0000000  0.6508444  3
    725   1534   1533   1547     1  0.0000000  0.0000000  2
    725   1534   1533   1548     1  0.0000000  0.0000000  2
    726    719    720    731     1  0.0000000  0.6508444  3
    726    719    720    732     1  0.0000000  0.6508444  3
    726    719    721    733     1  0.0000000  0.6508444  3
    726    719    721    734     1  0.0000000  0.6508444  3
    726    727    728    743     1  0.0000000  0.0000000  2
    727    726    719    744     1  0.0000000  0.6508444  3
    728    727    726    739     1  0.0000000  0.6508444  3
    728    727    726    740     1  0.0000000  0.6508444  3
    729    723    722    735     1  0.0000000  3.3472000  1
    729    723    722    735     1  0.0000000  0.0000000  2
    729    723    722    735     1  180.0000771  0.3347200  3
    729    723    722    736     1  0.0000000  3.3472000  1
    729    723    722    736     1  0.0000000  0.0000000  2
    729    723    722    736     1  180.0000771  0.3347200  3
    729    723   1508   1523     1  0.0000000  8.3680000  1
    729    723   1508   1523     1  180.0000771  10.4600000  2
    730    725    724    737     1  0.0000000  3.3472000  1
    730    725    724    737     1  0.0000000  0.0000000  2
    730    725    724    737     1  180.0000771  0.3347200  3
    730    725    724    738     1  0.0000000  3.3472000  1
    730    725    724    738     1  0.0000000  0.0000000  2
    730    725    724    738     1  180.0000771  0.3347200  3
    730    725   1534   1549     1  0.0000000  8.3680000  1
    730    725   1534   1549     1  180.0000771  10.4600000  2
    731    720    719    744     1  0.0000000  0.6508444  3
    731    720    722    735     1  0.0000000  0.6508444  3
    731    720    722    736     1  0.0000000  0.6508444  3
    732    720    719    744     1  0.0000000  0.6508444  3
    732    720    722    735     1  0.0000000  0.6508444  3
    732    720    722    736     1  0.0000000  0.6508444  3
    733    721    719    744     1  0.0000000  0.6508444  3
    733    721    724    737     1  0.0000000  0.6508444  3
    733    721    724    738     1  0.0000000  0.6508444  3
    734    721    719    744     1  0.0000000  0.6508444  3
    734    721    724    737     1  0.0000000  0.6508444  3
    734    721    724    738     1  0.0000000  0.6508444  3
    735    722    723   1508     1  180.0000771  0.0000000  2
    736    722    723   1508     1  180.0000771  0.0000000  2
    737    724    725   1534     1  180.0000771  0.0000000  2
    738    724    725   1534     1  180.0000771  0.0000000  2
    739    726    719    744     1  0.0000000  0.6508444  3
    739    726    727    741     1  0.0000000  0.6508444  3
    739    726    727    742     1  0.0000000  0.6508444  3
    740    726    719    744     1  0.0000000  0.6508444  3
    740    726    727    741     1  0.0000000  0.6508444  3
    740    726    727    742     1  0.0000000  0.6508444  3
    741    727    728    743     1  0.0000000  0.0000000  2
    742    727    728    743     1  0.0000000  0.0000000  2
    745    746    748    761     1  0.0000000  0.6508444  3
    745    746    748    762     1  0.0000000  0.6508444  3
    745    747    750    763     1  0.0000000  0.6508444  3
    745    747    750    764     1  0.0000000  0.6508444  3
    745    752    753    767     1  0.0000000  0.6508444  3
    745    752    753    768     1  0.0000000  0.6508444  3
    746    745    747    759     1  0.0000000  0.6508444  3
    746    745    747    760     1  0.0000000  0.6508444  3
    746    745    752    765     1  0.0000000  0.6508444  3
    746    745    752    766     1  0.0000000  0.6508444  3
    747    745    746    757     1  0.0000000  0.6508444  3
    747    745    746    758     1  0.0000000  0.6508444  3
    747    745    752    765     1  0.0000000  0.6508444  3
    747    745    752    766     1  0.0000000  0.6508444  3
    748    746    745    770     1  0.0000000  0.6508444  3
    748    749   1560   1575     1  180.0000771  10.4600000  2
    749    748    746    757     1  0.0000000  0.6508444  3
    749    748    746    758     1  0.0000000  0.6508444  3
    749   1560   1559   1573     1  0.0000000  0.0000000  2
    749   1560   1559   1574     1  0.0000000  0.0000000  2
    750    747    745    770     1  0.0000000  0.6508444  3
    750    751   1586   1601     1  180.0000771  10.4600000  2
    751    750    747    759     1  0.0000000  0.6508444  3
    751    750    747    760     1  0.0000000  0.6508444  3
    751   1586   1585   1599     1  0.0000000  0.0000000  2
    751   1586   1585   1600     1  0.0000000  0.0000000  2
    752    745    746    757     1  0.0000000  0.6508444  3
    752    745    746    758     1  0.0000000  0.6508444  3
    752    745    747    759     1  0.0000000  0.6508444  3
    752    745    747    760     1  0.0000000  0.6508444  3
    752    753    754    769     1  0.0000000  0.0000000  2
    753    752    745    770     1  0.0000000  0.6508444  3
    754    753    752    765     1  0.0000000  0.6508444  3
    754    753    752    766     1  0.0000000  0.6508444  3
    755    749    748    761     1  0.0000000  3.3472000  1
    755    749    748    761     1  0.0000000  0.0000000  2
    755    749    748    761     1  180.0000771  0.3347200  3
    755    749    748    762     1  0.0000000  3.3472000  1
    755    749    748    762     1  0.0000000  0.0000000  2
    755    749    748    762     1  180.0000771  0.3347200  3
    755    749   1560   1575     1  0.0000000  8.3680000  1
    755    749   1560   1575     1  180.0000771  10.4600000  2
    756    751    750    763     1  0.0000000  3.3472000  1
    756    751    750    763     1  0.0000000  0.0000000  2
    756    751    750    763     1  180.0000771  0.3347200  3
    756    751    750    764     1  0.0000000  3.3472000  1
    756    751    750    764     1  0.0000000  0.0000000  2
    756    751    750    764     1  180.0000771  0.3347200  3
    756    751   1586   1601     1  0.0000000  8.3680000  1
    756    751   1586   1601     1  180.0000771  10.4600000  2
    757    746    745    770     1  0.0000000  0.6508444  3
    757    746    748    761     1  0.0000000  0.6508444  3
    757    746    748    762     1  0.0000000  0.6508444  3
    758    746    745    770     1  0.0000000  0.6508444  3
    758    746    748    761     1  0.0000000  0.6508444  3
    758    746    748    762     1  0.0000000  0.6508444  3
    759    747    745    770     1  0.0000000  0.6508444  3
    759    747    750    763     1  0.0000000  0.6508444  3
    759    747    750    764     1  0.0000000  0.6508444  3
    760    747    745    770     1  0.0000000  0.6508444  3
    760    747    750    763     1  0.0000000  0.6508444  3
    760    747    750    764     1  0.0000000  0.6508444  3
    761    748    749   1560     1  180.0000771  0.0000000  2
    762    748    749   1560     1  180.0000771  0.0000000  2
    763    750    751   1586     1  180.0000771  0.0000000  2
    764    750    751   1586     1  180.0000771  0.0000000  2
    765    752    745    770     1  0.0000000  0.6508444  3
    765    752    753    767     1  0.0000000  0.6508444  3
    765    752    753    768     1  0.0000000  0.6508444  3
    766    752    745    770     1  0.0000000  0.6508444  3
    766    752    753    767     1  0.0000000  0.6508444  3
    766    752    753    768     1  0.0000000  0.6508444  3
    767    753    754    769     1  0.0000000  0.0000000  2
    768    753    754    769     1  0.0000000  0.0000000  2
    771    772    774    787     1  0.0000000  0.6508444  3
    771    772    774    788     1  0.0000000  0.6508444  3
    771    773    776    789     1  0.0000000  0.6508444  3
    771    773    776    790     1  0.0000000  0.6508444  3
    771    778    779    793     1  0.0000000  0.6508444  3
    771    778    779    794     1  0.0000000  0.6508444  3
    772    771    773    785     1  0.0000000  0.6508444  3
    772    771    773    786     1  0.0000000  0.6508444  3
    772    771    778    791     1  0.0000000  0.6508444  3
    772    771    778    792     1  0.0000000  0.6508444  3
    773    771    772    783     1  0.0000000  0.6508444  3
    773    771    772    784     1  0.0000000  0.6508444  3
    773    771    778    791     1  0.0000000  0.6508444  3
    773    771    778    792     1  0.0000000  0.6508444  3
    774    772    771    796     1  0.0000000  0.6508444  3
    774    775   1603   1604     1  180.0000771  10.4600000  2
    775    774    772    783     1  0.0000000  0.6508444  3
    775    774    772    784     1  0.0000000  0.6508444  3
    775   1603   1605   1606     1  0.0000000  0.0000000  2
    775   1603   1605   1608     1  0.0000000  0.0000000  2
    776    773    771    796     1  0.0000000  0.6508444  3
    776    777   1633   1634     1  180.0000771  10.4600000  2
    777    776    773    785     1  0.0000000  0.6508444  3
    777    776    773    786     1  0.0000000  0.6508444  3
    777   1633   1635   1636     1  0.0000000  0.0000000  2
    777   1633   1635   1638     1  0.0000000  0.0000000  2
    778    771    772    783     1  0.0000000  0.6508444  3
    778    771    772    784     1  0.0000000  0.6508444  3
    778    771    773    785     1  0.0000000  0.6508444  3
    778    771    773    786     1  0.0000000  0.6508444  3
    778    779    780    795     1  0.0000000  0.0000000  2
    779    778    771    796     1  0.0000000  0.6508444  3
    780    779    778    791     1  0.0000000  0.6508444  3
    780    779    778    792     1  0.0000000  0.6508444  3
    781    775    774    787     1  0.0000000  3.3472000  1
    781    775    774    787     1  0.0000000  0.0000000  2
    781    775    774    787     1  180.0000771  0.3347200  3
    781    775    774    788     1  0.0000000  3.3472000  1
    781    775    774    788     1  0.0000000  0.0000000  2
    781    775    774    788     1  180.0000771  0.3347200  3
    781    775   1603   1604     1  0.0000000  8.3680000  1
    781    775   1603   1604     1  180.0000771  10.4600000  2
    782    777    776    789     1  0.0000000  3.3472000  1
    782    777    776    789     1  0.0000000  0.0000000  2
    782    777    776    789     1  180.0000771  0.3347200  3
    782    777    776    790     1  0.0000000  3.3472000  1
    782    777    776    790     1  0.0000000  0.0000000  2
    782    777    776    790     1  180.0000771  0.3347200  3
    782    777   1633   1634     1  0.0000000  8.3680000  1
    782    777   1633   1634     1  180.0000771  10.4600000  2
    783    772    771    796     1  0.0000000  0.6508444  3
    783    772    774    787     1  0.0000000  0.6508444  3
    783    772    774    788     1  0.0000000  0.6508444  3
    784    772    771    796     1  0.0000000  0.6508444  3
    784    772    774    787     1  0.0000000  0.6508444  3
    784    772    774    788     1  0.0000000  0.6508444  3
    785    773    771    796     1  0.0000000  0.6508444  3
    785    773    776    789     1  0.0000000  0.6508444  3
    785    773    776    790     1  0.0000000  0.6508444  3
    786    773    771    796     1  0.0000000  0.6508444  3
    786    773    776    789     1  0.0000000  0.6508444  3
    786    773    776    790     1  0.0000000  0.6508444  3
    787    774    775   1603     1  180.0000771  0.0000000  2
    788    774    775   1603     1  180.0000771  0.0000000  2
    789    776    777   1633     1  180.0000771  0.0000000  2
    790    776    777   1633     1  180.0000771  0.0000000  2
    791    778    771    796     1  0.0000000  0.6508444  3
    791    778    779    793     1  0.0000000  0.6508444  3
    791    778    779    794     1  0.0000000  0.6508444  3
    792    778    771    796     1  0.0000000  0.6508444  3
    792    778    779    793     1  0.0000000  0.6508444  3
    792    778    779    794     1  0.0000000  0.6508444  3
    793    779    780    795     1  0.0000000  0.0000000  2
    794    779    780    795     1  0.0000000  0.0000000  2
    797    798    800    813     1  0.0000000  0.6508444  3
    797    798    800    814     1  0.0000000  0.6508444  3
    797    799    802    815     1  0.0000000  0.6508444  3
    797    799    802    816     1  0.0000000  0.6508444  3
    797    804    805    819     1  0.0000000  0.6508444  3
    797    804    805    820     1  0.0000000  0.6508444  3
    798    797    799    811     1  0.0000000  0.6508444  3
    798    797    799    812     1  0.0000000  0.6508444  3
    798    797    804    817     1  0.0000000  0.6508444  3
    798    797    804    818     1  0.0000000  0.6508444  3
    799    797    798    809     1  0.0000000  0.6508444  3
    799    797    798    810     1  0.0000000  0.6508444  3
    799    797    804    817     1  0.0000000  0.6508444  3
    799    797    804    818     1  0.0000000  0.6508444  3
    800    798    797    822     1  0.0000000  0.6508444  3
    800    801   1663   1664     1  180.0000771  10.4600000  2
    801    800    798    809     1  0.0000000  0.6508444  3
    801    800    798    810     1  0.0000000  0.6508444  3
    801   1663   1665   1666     1  0.0000000  0.0000000  2
    801   1663   1665   1668     1  0.0000000  0.0000000  2
    802    799    797    822     1  0.0000000  0.6508444  3
    802    803   1693   1694     1  180.0000771  10.4600000  2
    803    802    799    811     1  0.0000000  0.6508444  3
    803    802    799    812     1  0.0000000  0.6508444  3
    803   1693   1695   1696     1  0.0000000  0.0000000  2
    803   1693   1695   1698     1  0.0000000  0.0000000  2
    804    797    798    809     1  0.0000000  0.6508444  3
    804    797    798    810     1  0.0000000  0.6508444  3
    804    797    799    811     1  0.0000000  0.6508444  3
    804    797    799    812     1  0.0000000  0.6508444  3
    804    805    806    821     1  0.0000000  0.0000000  2
    805    804    797    822     1  0.0000000  0.6508444  3
    806    805    804    817     1  0.0000000  0.6508444  3
    806    805    804    818     1  0.0000000  0.6508444  3
    807    801    800    813     1  0.0000000  3.3472000  1
    807    801    800    813     1  0.0000000  0.0000000  2
    807    801    800    813     1  180.0000771  0.3347200  3
    807    801    800    814     1  0.0000000  3.3472000  1
    807    801    800    814     1  0.0000000  0.0000000  2
    807    801    800    814     1  180.0000771  0.3347200  3
    807    801   1663   1664     1  0.0000000  8.3680000  1
    807    801   1663   1664     1  180.0000771  10.4600000  2
    808    803    802    815     1  0.0000000  3.3472000  1
    808    803    802    815     1  0.0000000  0.0000000  2
    808    803    802    815     1  180.0000771  0.3347200  3
    808    803    802    816     1  0.0000000  3.3472000  1
    808    803    802    816     1  0.0000000  0.0000000  2
    808    803    802    816     1  180.0000771  0.3347200  3
    808    803   1693   1694     1  0.0000000  8.3680000  1
    808    803   1693   1694     1  180.0000771  10.4600000  2
    809    798    797    822     1  0.0000000  0.6508444  3
    809    798    800    813     1  0.0000000  0.6508444  3
    809    798    800    814     1  0.0000000  0.6508444  3
    810    798    797    822     1  0.0000000  0.6508444  3
    810    798    800    813     1  0.0000000  0.6508444  3
    810    798    800    814     1  0.0000000  0.6508444  3
    811    799    797    822     1  0.0000000  0.6508444  3
    811    799    802    815     1  0.0000000  0.6508444  3
    811    799    802    816     1  0.0000000  0.6508444  3
    812    799    797    822     1  0.0000000  0.6508444  3
    812    799    802    815     1  0.0000000  0.6508444  3
    812    799    802    816     1  0.0000000  0.6508444  3
    813    800    801   1663     1  180.0000771  0.0000000  2
    814    800    801   1663     1  180.0000771  0.0000000  2
    815    802    803   1693     1  180.0000771  0.0000000  2
    816    802    803   1693     1  180.0000771  0.0000000  2
    817    804    797    822     1  0.0000000  0.6508444  3
    817    804    805    819     1  0.0000000  0.6508444  3
    817    804    805    820     1  0.0000000  0.6508444  3
    818    804    797    822     1  0.0000000  0.6508444  3
    818    804    805    819     1  0.0000000  0.6508444  3
    818    804    805    820     1  0.0000000  0.6508444  3
    819    805    806    821     1  0.0000000  0.0000000  2
    820    805    806    821     1  0.0000000  0.0000000  2
    823    824    826    839     1  0.0000000  0.6508444  3
    823    824    826    840     1  0.0000000  0.6508444  3
    823    825    828    841     1  0.0000000  0.6508444  3
    823    825    828    842     1  0.0000000  0.6508444  3
    823    830    831    845     1  0.0000000  0.6508444  3
    823    830    831    846     1  0.0000000  0.6508444  3
    824    823    825    837     1  0.0000000  0.6508444  3
    824    823    825    838     1  0.0000000  0.6508444  3
    824    823    830    843     1  0.0000000  0.6508444  3
    824    823    830    844     1  0.0000000  0.6508444  3
    825    823    824    835     1  0.0000000  0.6508444  3
    825    823    824    836     1  0.0000000  0.6508444  3
    825    823    830    843     1  0.0000000  0.6508444  3
    825    823    830    844     1  0.0000000  0.6508444  3
    826    824    823    848     1  0.0000000  0.6508444  3
    826    827   1723   1724     1  180.0000771  10.4600000  2
    827    826    824    835     1  0.0000000  0.6508444  3
    827    826    824    836     1  0.0000000  0.6508444  3
    827   1723   1725   1726     1  0.0000000  0.0000000  2
    827   1723   1725   1728     1  0.0000000  0.0000000  2
    828    825    823    848     1  0.0000000  0.6508444  3
    828    829   1753   1754     1  180.0000771  10.4600000  2
    829    828    825    837     1  0.0000000  0.6508444  3
    829    828    825    838     1  0.0000000  0.6508444  3
    829   1753   1755   1756     1  0.0000000  0.0000000  2
    829   1753   1755   1758     1  0.0000000  0.0000000  2
    830    823    824    835     1  0.0000000  0.6508444  3
    830    823    824    836     1  0.0000000  0.6508444  3
    830    823    825    837     1  0.0000000  0.6508444  3
    830    823    825    838     1  0.0000000  0.6508444  3
    830    831    832    847     1  0.0000000  0.0000000  2
    831    830    823    848     1  0.0000000  0.6508444  3
    832    831    830    843     1  0.0000000  0.6508444  3
    832    831    830    844     1  0.0000000  0.6508444  3
    833    827    826    839     1  0.0000000  3.3472000  1
    833    827    826    839     1  0.0000000  0.0000000  2
    833    827    826    839     1  180.0000771  0.3347200  3
    833    827    826    840     1  0.0000000  3.3472000  1
    833    827    826    840     1  0.0000000  0.0000000  2
    833    827    826    840     1  180.0000771  0.3347200  3
    833    827   1723   1724     1  0.0000000  8.3680000  1
    833    827   1723   1724     1  180.0000771  10.4600000  2
    834    829    828    841     1  0.0000000  3.3472000  1
    834    829    828    841     1  0.0000000  0.0000000  2
    834    829    828    841     1  180.0000771  0.3347200  3
    834    829    828    842     1  0.0000000  3.3472000  1
    834    829    828    842     1  0.0000000  0.0000000  2
    834    829    828    842     1  180.0000771  0.3347200  3
    834    829   1753   1754     1  0.0000000  8.3680000  1
    834    829   1753   1754     1  180.0000771  10.4600000  2
    835    824    823    848     1  0.0000000  0.6508444  3
    835    824    826    839     1  0.0000000  0.6508444  3
    835    824    826    840     1  0.0000000  0.6508444  3
    836    824    823    848     1  0.0000000  0.6508444  3
    836    824    826    839     1  0.0000000  0.6508444  3
    836    824    826    840     1  0.0000000  0.6508444  3
    837    825    823    848     1  0.0000000  0.6508444  3
    837    825    828    841     1  0.0000000  0.6508444  3
    837    825    828    842     1  0.0000000  0.6508444  3
    838    825    823    848     1  0.0000000  0.6508444  3
    838    825    828    841     1  0.0000000  0.6508444  3
    838    825    828    842     1  0.0000000  0.6508444  3
    839    826    827   1723     1  180.0000771  0.0000000  2
    840    826    827   1723     1  180.0000771  0.0000000  2
    841    828    829   1753     1  180.0000771  0.0000000  2
    842    828    829   1753     1  180.0000771  0.0000000  2
    843    830    823    848     1  0.0000000  0.6508444  3
    843    830    831    845     1  0.0000000  0.6508444  3
    843    830    831    846     1  0.0000000  0.6508444  3
    844    830    823    848     1  0.0000000  0.6508444  3
    844    830    831    845     1  0.0000000  0.6508444  3
    844    830    831    846     1  0.0000000  0.6508444  3
    845    831    832    847     1  0.0000000  0.0000000  2
    846    831    832    847     1  0.0000000  0.0000000  2
    849    850    852    865     1  0.0000000  0.6508444  3
    849    850    852    866     1  0.0000000  0.6508444  3
    849    851    854    867     1  0.0000000  0.6508444  3
    849    851    854    868     1  0.0000000  0.6508444  3
    849    856    857    871     1  0.0000000  0.6508444  3
    849    856    857    872     1  0.0000000  0.6508444  3
    850    849    851    863     1  0.0000000  0.6508444  3
    850    849    851    864     1  0.0000000  0.6508444  3
    850    849    856    869     1  0.0000000  0.6508444  3
    850    849    856    870     1  0.0000000  0.6508444  3
    851    849    850    861     1  0.0000000  0.6508444  3
    851    849    850    862     1  0.0000000  0.6508444  3
    851    849    856    869     1  0.0000000  0.6508444  3
    851    849    856    870     1  0.0000000  0.6508444  3
    852    850    849    874     1  0.0000000  0.6508444  3
    852    853   1783   1784     1  180.0000771  10.4600000  2
    853    852    850    861     1  0.0000000  0.6508444  3
    853    852    850    862     1  0.0000000  0.6508444  3
    853   1783   1785   1786     1  0.0000000  0.0000000  2
    853   1783   1785   1788     1  0.0000000  0.0000000  2
    854    851    849    874     1  0.0000000  0.6508444  3
    854    855   1813   1814     1  180.0000771  10.4600000  2
    855    854    851    863     1  0.0000000  0.6508444  3
    855    854    851    864     1  0.0000000  0.6508444  3
    855   1813   1815   1816     1  0.0000000  0.0000000  2
    855   1813   1815   1818     1  0.0000000  0.0000000  2
    856    849    850    861     1  0.0000000  0.6508444  3
    856    849    850    862     1  0.0000000  0.6508444  3
    856    849    851    863     1  0.0000000  0.6508444  3
    856    849    851    864     1  0.0000000  0.6508444  3
    856    857    858    873     1  0.0000000  0.0000000  2
    857    856    849    874     1  0.0000000  0.6508444  3
    858    857    856    869     1  0.0000000  0.6508444  3
    858    857    856    870     1  0.0000000  0.6508444  3
    859    853    852    865     1  0.0000000  3.3472000  1
    859    853    852    865     1  0.0000000  0.0000000  2
    859    853    852    865     1  180.0000771  0.3347200  3
    859    853    852    866     1  0.0000000  3.3472000  1
    859    853    852    866     1  0.0000000  0.0000000  2
    859    853    852    866     1  180.0000771  0.3347200  3
    859    853   1783   1784     1  0.0000000  8.3680000  1
    859    853   1783   1784     1  180.0000771  10.4600000  2
    860    855    854    867     1  0.0000000  3.3472000  1
    860    855    854    867     1  0.0000000  0.0000000  2
    860    855    854    867     1  180.0000771  0.3347200  3
    860    855    854    868     1  0.0000000  3.3472000  1
    860    855    854    868     1  0.0000000  0.0000000  2
    860    855    854    868     1  180.0000771  0.3347200  3
    860    855   1813   1814     1  0.0000000  8.3680000  1
    860    855   1813   1814     1  180.0000771  10.4600000  2
    861    850    849    874     1  0.0000000  0.6508444  3
    861    850    852    865     1  0.0000000  0.6508444  3
    861    850    852    866     1  0.0000000  0.6508444  3
    862    850    849    874     1  0.0000000  0.6508444  3
    862    850    852    865     1  0.0000000  0.6508444  3
    862    850    852    866     1  0.0000000  0.6508444  3
    863    851    849    874     1  0.0000000  0.6508444  3
    863    851    854    867     1  0.0000000  0.6508444  3
    863    851    854    868     1  0.0000000  0.6508444  3
    864    851    849    874     1  0.0000000  0.6508444  3
    864    851    854    867     1  0.0000000  0.6508444  3
    864    851    854    868     1  0.0000000  0.6508444  3
    865    852    853   1783     1  180.0000771  0.0000000  2
    866    852    853   1783     1  180.0000771  0.0000000  2
    867    854    855   1813     1  180.0000771  0.0000000  2
    868    854    855   1813     1  180.0000771  0.0000000  2
    869    856    849    874     1  0.0000000  0.6508444  3
    869    856    857    871     1  0.0000000  0.6508444  3
    869    856    857    872     1  0.0000000  0.6508444  3
    870    856    849    874     1  0.0000000  0.6508444  3
    870    856    857    871     1  0.0000000  0.6508444  3
    870    856    857    872     1  0.0000000  0.6508444  3
    871    857    858    873     1  0.0000000  0.0000000  2
    872    857    858    873     1  0.0000000  0.0000000  2
    875    876    878    891     1  0.0000000  0.6508444  3
    875    876    878    892     1  0.0000000  0.6508444  3
    875    877    880    893     1  0.0000000  0.6508444  3
    875    877    880    894     1  0.0000000  0.6508444  3
    875    882    883    897     1  0.0000000  0.6508444  3
    875    882    883    898     1  0.0000000  0.6508444  3
    876    875    877    889     1  0.0000000  0.6508444  3
    876    875    877    890     1  0.0000000  0.6508444  3
    876    875    882    895     1  0.0000000  0.6508444  3
    876    875    882    896     1  0.0000000  0.6508444  3
    877    875    876    887     1  0.0000000  0.6508444  3
    877    875    876    888     1  0.0000000  0.6508444  3
    877    875    882    895     1  0.0000000  0.6508444  3
    877    875    882    896     1  0.0000000  0.6508444  3
    878    876    875    900     1  0.0000000  0.6508444  3
    878    879   1843   1844     1  180.0000771  10.4600000  2
    879    878    876    887     1  0.0000000  0.6508444  3
    879    878    876    888     1  0.0000000  0.6508444  3
    879   1843   1845   1846     1  0.0000000  0.0000000  2
    879   1843   1845   1848     1  0.0000000  0.0000000  2
    880    877    875    900     1  0.0000000  0.6508444  3
    880    881   1873   1874     1  180.0000771  10.4600000  2
    881    880    877    889     1  0.0000000  0.6508444  3
    881    880    877    890     1  0.0000000  0.6508444  3
    881   1873   1875   1876     1  0.0000000  0.0000000  2
    881   1873   1875   1878     1  0.0000000  0.0000000  2
    882    875    876    887     1  0.0000000  0.6508444  3
    882    875    876    888     1  0.0000000  0.6508444  3
    882    875    877    889     1  0.0000000  0.6508444  3
    882    875    877    890     1  0.0000000  0.6508444  3
    882    883    884    899     1  0.0000000  0.0000000  2
    883    882    875    900     1  0.0000000  0.6508444  3
    884    883    882    895     1  0.0000000  0.6508444  3
    884    883    882    896     1  0.0000000  0.6508444  3
    885    879    878    891     1  0.0000000  3.3472000  1
    885    879    878    891     1  0.0000000  0.0000000  2
    885    879    878    891     1  180.0000771  0.3347200  3
    885    879    878    892     1  0.0000000  3.3472000  1
    885    879    878    892     1  0.0000000  0.0000000  2
    885    879    878    892     1  180.0000771  0.3347200  3
    885    879   1843   1844     1  0.0000000  8.3680000  1
    885    879   1843   1844     1  180.0000771  10.4600000  2
    886    881    880    893     1  0.0000000  3.3472000  1
    886    881    880    893     1  0.0000000  0.0000000  2
    886    881    880    893     1  180.0000771  0.3347200  3
    886    881    880    894     1  0.0000000  3.3472000  1
    886    881    880    894     1  0.0000000  0.0000000  2
    886    881    880    894     1  180.0000771  0.3347200  3
    886    881   1873   1874     1  0.0000000  8.3680000  1
    886    881   1873   1874     1  180.0000771  10.4600000  2
    887    876    875    900     1  0.0000000  0.6508444  3
    887    876    878    891     1  0.0000000  0.6508444  3
    887    876    878    892     1  0.0000000  0.6508444  3
    888    876    875    900     1  0.0000000  0.6508444  3
    888    876    878    891     1  0.0000000  0.6508444  3
    888    876    878    892     1  0.0000000  0.6508444  3
    889    877    875    900     1  0.0000000  0.6508444  3
    889    877    880    893     1  0.0000000  0.6508444  3
    889    877    880    894     1  0.0000000  0.6508444  3
    890    877    875    900     1  0.0000000  0.6508444  3
    890    877    880    893     1  0.0000000  0.6508444  3
    890    877    880    894     1  0.0000000  0.6508444  3
    891    878    879   1843     1  180.0000771  0.0000000  2
    892    878    879   1843     1  180.0000771  0.0000000  2
    893    880    881   1873     1  180.0000771  0.0000000  2
    894    880    881   1873     1  180.0000771  0.0000000  2
    895    882    875    900     1  0.0000000  0.6508444  3
    895    882    883    897     1  0.0000000  0.6508444  3
    895    882    883    898     1  0.0000000  0.6508444  3
    896    882    875    900     1  0.0000000  0.6508444  3
    896    882    883    897     1  0.0000000  0.6508444  3
    896    882    883    898     1  0.0000000  0.6508444  3
    897    883    884    899     1  0.0000000  0.0000000  2
    898    883    884    899     1  0.0000000  0.0000000  2
    901    902    904    917     1  0.0000000  0.6508444  3
    901    902    904    918     1  0.0000000  0.6508444  3
    901    903    906    919     1  0.0000000  0.6508444  3
    901    903    906    920     1  0.0000000  0.6508444  3
    901    908    909    923     1  0.0000000  0.6508444  3
    901    908    909    924     1  0.0000000  0.6508444  3
    902    901    903    915     1  0.0000000  0.6508444  3
    902    901    903    916     1  0.0000000  0.6508444  3
    902    901    908    921     1  0.0000000  0.6508444  3
    902    901    908    922     1  0.0000000  0.6508444  3
    903    901    902    913     1  0.0000000  0.6508444  3
    903    901    902    914     1  0.0000000  0.6508444  3
    903    901    908    921     1  0.0000000  0.6508444  3
    903    901    908    922     1  0.0000000  0.6508444  3
    904    902    901    926     1  0.0000000  0.6508444  3
    904    905   1903   1904     1  180.0000771  10.4600000  2
    905    904    902    913     1  0.0000000  0.6508444  3
    905    904    902    914     1  0.0000000  0.6508444  3
    905   1903   1905   1906     1  0.0000000  0.0000000  2
    905   1903   1905   1908     1  0.0000000  0.0000000  2
    906    903    901    926     1  0.0000000  0.6508444  3
    906    907   1933   1934     1  180.0000771  10.4600000  2
    907    906    903    915     1  0.0000000  0.6508444  3
    907    906    903    916     1  0.0000000  0.6508444  3
    907   1933   1935   1936     1  0.0000000  0.0000000  2
    907   1933   1935   1938     1  0.0000000  0.0000000  2
    908    901    902    913     1  0.0000000  0.6508444  3
    908    901    902    914     1  0.0000000  0.6508444  3
    908    901    903    915     1  0.0000000  0.6508444  3
    908    901    903    916     1  0.0000000  0.6508444  3
    908    909    910    925     1  0.0000000  0.0000000  2
    909    908    901    926     1  0.0000000  0.6508444  3
    910    909    908    921     1  0.0000000  0.6508444  3
    910    909    908    922     1  0.0000000  0.6508444  3
    911    905    904    917     1  0.0000000  3.3472000  1
    911    905    904    917     1  0.0000000  0.0000000  2
    911    905    904    917     1  180.0000771  0.3347200  3
    911    905    904    918     1  0.0000000  3.3472000  1
    911    905    904    918     1  0.0000000  0.0000000  2
    911    905    904    918     1  180.0000771  0.3347200  3
    911    905   1903   1904     1  0.0000000  8.3680000  1
    911    905   1903   1904     1  180.0000771  10.4600000  2
    912    907    906    919     1  0.0000000  3.3472000  1
    912    907    906    919     1  0.0000000  0.0000000  2
    912    907    906    919     1  180.0000771  0.3347200  3
    912    907    906    920     1  0.0000000  3.3472000  1
    912    907    906    920     1  0.0000000  0.0000000  2
    912    907    906    920     1  180.0000771  0.3347200  3
    912    907   1933   1934     1  0.0000000  8.3680000  1
    912    907   1933   1934     1  180.0000771  10.4600000  2
    913    902    901    926     1  0.0000000  0.6508444  3
    913    902    904    917     1  0.0000000  0.6508444  3
    913    902    904    918     1  0.0000000  0.6508444  3
    914    902    901    926     1  0.0000000  0.6508444  3
    914    902    904    917     1  0.0000000  0.6508444  3
    914    902    904    918     1  0.0000000  0.6508444  3
    915    903    901    926     1  0.0000000  0.6508444  3
    915    903    906    919     1  0.0000000  0.6508444  3
    915    903    906    920     1  0.0000000  0.6508444  3
    916    903    901    926     1  0.0000000  0.6508444  3
    916    903    906    919     1  0.0000000  0.6508444  3
    916    903    906    920     1  0.0000000  0.6508444  3
    917    904    905   1903     1  180.0000771  0.0000000  2
    918    904    905   1903     1  180.0000771  0.0000000  2
    919    906    907   1933     1  180.0000771  0.0000000  2
    920    906    907   1933     1  180.0000771  0.0000000  2
    921    908    901    926     1  0.0000000  0.6508444  3
    921    908    909    923     1  0.0000000  0.6508444  3
    921    908    909    924     1  0.0000000  0.6508444  3
    922    908    901    926     1  0.0000000  0.6508444  3
    922    908    909    923     1  0.0000000  0.6508444  3
    922    908    909    924     1  0.0000000  0.6508444  3
    923    909    910    925     1  0.0000000  0.0000000  2
    924    909    910    925     1  0.0000000  0.0000000  2
    927    928    930    943     1  0.0000000  0.6508444  3
    927    928    930    944     1  0.0000000  0.6508444  3
    927    929    932    945     1  0.0000000  0.6508444  3
    927    929    932    946     1  0.0000000  0.6508444  3
    927    934    935    949     1  0.0000000  0.6508444  3
    927    934    935    950     1  0.0000000  0.6508444  3
    928    927    929    941     1  0.0000000  0.6508444  3
    928    927    929    942     1  0.0000000  0.6508444  3
    928    927    934    947     1  0.0000000  0.6508444  3
    928    927    934    948     1  0.0000000  0.6508444  3
    929    927    928    939     1  0.0000000  0.6508444  3
    929    927    928    940     1  0.0000000  0.6508444  3
    929    927    934    947     1  0.0000000  0.6508444  3
    929    927    934    948     1  0.0000000  0.6508444  3
    930    928    927    952     1  0.0000000  0.6508444  3
    930    931   1963   1964     1  180.0000771  10.4600000  2
    931    930    928    939     1  0.0000000  0.6508444  3
    931    930    928    940     1  0.0000000  0.6508444  3
    931   1963   1965   1966     1  0.0000000  0.0000000  2
    931   1963   1965   1968     1  0.0000000  0.0000000  2
    932    929    927    952     1  0.0000000  0.6508444  3
    932    933   1993   1994     1  180.0000771  10.4600000  2
    933    932    929    941     1  0.0000000  0.6508444  3
    933    932    929    942     1  0.0000000  0.6508444  3
    933   1993   1995   1996     1  0.0000000  0.0000000  2
    933   1993   1995   1998     1  0.0000000  0.0000000  2
    934    927    928    939     1  0.0000000  0.6508444  3
    934    927    928    940     1  0.0000000  0.6508444  3
    934    927    929    941     1  0.0000000  0.6508444  3
    934    927    929    942     1  0.0000000  0.6508444  3
    934    935    936    951     1  0.0000000  0.0000000  2
    935    934    927    952     1  0.0000000  0.6508444  3
    936    935    934    947     1  0.0000000  0.6508444  3
    936    935    934    948     1  0.0000000  0.6508444  3
    937    931    930    943     1  0.0000000  3.3472000  1
    937    931    930    943     1  0.0000000  0.0000000  2
    937    931    930    943     1  180.0000771  0.3347200  3
    937    931    930    944     1  0.0000000  3.3472000  1
    937    931    930    944     1  0.0000000  0.0000000  2
    937    931    930    944     1  180.0000771  0.3347200  3
    937    931   1963   1964     1  0.0000000  8.3680000  1
    937    931   1963   1964     1  180.0000771  10.4600000  2
    938    933    932    945     1  0.0000000  3.3472000  1
    938    933    932    945     1  0.0000000  0.0000000  2
    938    933    932    945     1  180.0000771  0.3347200  3
    938    933    932    946     1  0.0000000  3.3472000  1
    938    933    932    946     1  0.0000000  0.0000000  2
    938    933    932    946     1  180.0000771  0.3347200  3
    938    933   1993   1994     1  0.0000000  8.3680000  1
    938    933   1993   1994     1  180.0000771  10.4600000  2
    939    928    927    952     1  0.0000000  0.6508444  3
    939    928    930    943     1  0.0000000  0.6508444  3
    939    928    930    944     1  0.0000000  0.6508444  3
    940    928    927    952     1  0.0000000  0.6508444  3
    940    928    930    943     1  0.0000000  0.6508444  3
    940    928    930    944     1  0.0000000  0.6508444  3
    941    929    927    952     1  0.0000000  0.6508444  3
    941    929    932    945     1  0.0000000  0.6508444  3
    941    929    932    946     1  0.0000000  0.6508444  3
    942    929    927    952     1  0.0000000  0.6508444  3
    942    929    932    945     1  0.0000000  0.6508444  3
    942    929    932    946     1  0.0000000  0.6508444  3
    943    930    931   1963     1  180.0000771  0.0000000  2
    944    930    931   1963     1  180.0000771  0.0000000  2
    945    932    933   1993     1  180.0000771  0.0000000  2
    946    932    933   1993     1  180.0000771  0.0000000  2
    947    934    927    952     1  0.0000000  0.6508444  3
    947    934    935    949     1  0.0000000  0.6508444  3
    947    934    935    950     1  0.0000000  0.6508444  3
    948    934    927    952     1  0.0000000  0.6508444  3
    948    934    935    949     1  0.0000000  0.6508444  3
    948    934    935    950     1  0.0000000  0.6508444  3
    949    935    936    951     1  0.0000000  0.0000000  2
    950    935    936    951     1  0.0000000  0.0000000  2
    953    954    956    969     1  0.0000000  0.6508444  3
    953    954    956    970     1  0.0000000  0.6508444  3
    953    955    958    971     1  0.0000000  0.6508444  3
    953    955    958    972     1  0.0000000  0.6508444  3
    953    960    961    975     1  0.0000000  0.6508444  3
    953    960    961    976     1  0.0000000  0.6508444  3
    954    953    955    967     1  0.0000000  0.6508444  3
    954    953    955    968     1  0.0000000  0.6508444  3
    954    953    960    973     1  0.0000000  0.6508444  3
    954    953    960    974     1  0.0000000  0.6508444  3
    955    953    954    965     1  0.0000000  0.6508444  3
    955    953    954    966     1  0.0000000  0.6508444  3
    955    953    960    973     1  0.0000000  0.6508444  3
    955    953    960    974     1  0.0000000  0.6508444  3
    956    954    953    978     1  0.0000000  0.6508444  3
    956    957   2023   2024     1  180.0000771  10.4600000  2
    957    956    954    965     1  0.0000000  0.6508444  3
    957    956    954    966     1  0.0000000  0.6508444  3
    957   2023   2025   2026     1  0.0000000  0.0000000  2
    957   2023   2025   2028     1  0.0000000  0.0000000  2
    958    955    953    978     1  0.0000000  0.6508444  3
    958    959   2053   2054     1  180.0000771  10.4600000  2
    959    958    955    967     1  0.0000000  0.6508444  3
    959    958    955    968     1  0.0000000  0.6508444  3
    959   2053   2055   2056     1  0.0000000  0.0000000  2
    959   2053   2055   2058     1  0.0000000  0.0000000  2
    960    953    954    965     1  0.0000000  0.6508444  3
    960    953    954    966     1  0.0000000  0.6508444  3
    960    953    955    967     1  0.0000000  0.6508444  3
    960    953    955    968     1  0.0000000  0.6508444  3
    960    961    962    977     1  0.0000000  0.0000000  2
    961    960    953    978     1  0.0000000  0.6508444  3
    962    961    960    973     1  0.0000000  0.6508444  3
    962    961    960    974     1  0.0000000  0.6508444  3
    963    957    956    969     1  0.0000000  3.3472000  1
    963    957    956    969     1  0.0000000  0.0000000  2
    963    957    956    969     1  180.0000771  0.3347200  3
    963    957    956    970     1  0.0000000  3.3472000  1
    963    957    956    970     1  0.0000000  0.0000000  2
    963    957    956    970     1  180.0000771  0.3347200  3
    963    957   2023   2024     1  0.0000000  8.3680000  1
    963    957   2023   2024     1  180.0000771  10.4600000  2
    964    959    958    971     1  0.0000000  3.3472000  1
    964    959    958    971     1  0.0000000  0.0000000  2
    964    959    958    971     1  180.0000771  0.3347200  3
    964    959    958    972     1  0.0000000  3.3472000  1
    964    959    958    972     1  0.0000000  0.0000000  2
    964    959    958    972     1  180.0000771  0.3347200  3
    964    959   2053   2054     1  0.0000000  8.3680000  1
    964    959   2053   2054     1  180.0000771  10.4600000  2
    965    954    953    978     1  0.0000000  0.6508444  3
    965    954    956    969     1  0.0000000  0.6508444  3
    965    954    956    970     1  0.0000000  0.6508444  3
    966    954    953    978     1  0.0000000  0.6508444  3
    966    954    956    969     1  0.0000000  0.6508444  3
    966    954    956    970     1  0.0000000  0.6508444  3
    967    955    953    978     1  0.0000000  0.6508444  3
    967    955    958    971     1  0.0000000  0.6508444  3
    967    955    958    972     1  0.0000000  0.6508444  3
    968    955    953    978     1  0.0000000  0.6508444  3
    968    955    958    971     1  0.0000000  0.6508444  3
    968    955    958    972     1  0.0000000  0.6508444  3
    969    956    957   2023     1  180.0000771  0.0000000  2
    970    956    957   2023     1  180.0000771  0.0000000  2
    971    958    959   2053     1  180.0000771  0.0000000  2
    972    958    959   2053     1  180.0000771  0.0000000  2
    973    960    953    978     1  0.0000000  0.6508444  3
    973    960    961    975     1  0.0000000  0.6508444  3
    973    960    961    976     1  0.0000000  0.6508444  3
    974    960    953    978     1  0.0000000  0.6508444  3
    974    960    961    975     1  0.0000000  0.6508444  3
    974    960    961    976     1  0.0000000  0.6508444  3
    975    961    962    977     1  0.0000000  0.0000000  2
    976    961    962    977     1  0.0000000  0.0000000  2
    979    980    982    995     1  0.0000000  0.6508444  3
    979    980    982    996     1  0.0000000  0.6508444  3
    979    981    984    997     1  0.0000000  0.6508444  3
    979    981    984    998     1  0.0000000  0.6508444  3
    979    986    987   1001     1  0.0000000  0.6508444  3
    979    986    987   1002     1  0.0000000  0.6508444  3
    980    979    981    993     1  0.0000000  0.6508444  3
    980    979    981    994     1  0.0000000  0.6508444  3
    980    979    986    999     1  0.0000000  0.6508444  3
    980    979    986   1000     1  0.0000000  0.6508444  3
    981    979    980    991     1  0.0000000  0.6508444  3
    981    979    980    992     1  0.0000000  0.6508444  3
    981    979    986    999     1  0.0000000  0.6508444  3
    981    979    986   1000     1  0.0000000  0.6508444  3
    982    980    979   1004     1  0.0000000  0.6508444  3
    982    983   2083   2084     1  180.0000771  10.4600000  2
    983    982    980    991     1  0.0000000  0.6508444  3
    983    982    980    992     1  0.0000000  0.6508444  3
    983   2083   2085   2086     1  0.0000000  0.0000000  2
    983   2083   2085   2088     1  0.0000000  0.0000000  2
    984    981    979   1004     1  0.0000000  0.6508444  3
    984    985   2113   2114     1  180.0000771  10.4600000  2
    985    984    981    993     1  0.0000000  0.6508444  3
    985    984    981    994     1  0.0000000  0.6508444  3
    985   2113   2115   2116     1  0.0000000  0.0000000  2
    985   2113   2115   2118     1  0.0000000  0.0000000  2
    986    979    980    991     1  0.0000000  0.6508444  3
    986    979    980    992     1  0.0000000  0.6508444  3
    986    979    981    993     1  0.0000000  0.6508444  3
    986    979    981    994     1  0.0000000  0.6508444  3
    986    987    988   1003     1  0.0000000  0.0000000  2
    987    986    979   1004     1  0.0000000  0.6508444  3
    988    987    986    999     1  0.0000000  0.6508444  3
    988    987    986   1000     1  0.0000000  0.6508444  3
    989    983    982    995     1  0.0000000  3.3472000  1
    989    983    982    995     1  0.0000000  0.0000000  2
    989    983    982    995     1  180.0000771  0.3347200  3
    989    983    982    996     1  0.0000000  3.3472000  1
    989    983    982    996     1  0.0000000  0.0000000  2
    989    983    982    996     1  180.0000771  0.3347200  3
    989    983   2083   2084     1  0.0000000  8.3680000  1
    989    983   2083   2084     1  180.0000771  10.4600000  2
    990    985    984    997     1  0.0000000  3.3472000  1
    990    985    984    997     1  0.0000000  0.0000000  2
    990    985    984    997     1  180.0000771  0.3347200  3
    990    985    984    998     1  0.0000000  3.3472000  1
    990    985    984    998     1  0.0000000  0.0000000  2
    990    985    984    998     1  180.0000771  0.3347200  3
    990    985   2113   2114     1  0.0000000  8.3680000  1
    990    985   2113   2114     1  180.0000771  10.4600000  2
    991    980    979   1004     1  0.0000000  0.6508444  3
    991    980    982    995     1  0.0000000  0.6508444  3
    991    980    982    996     1  0.0000000  0.6508444  3
    992    980    979   1004     1  0.0000000  0.6508444  3
    992    980    982    995     1  0.0000000  0.6508444  3
    992    980    982    996     1  0.0000000  0.6508444  3
    993    981    979   1004     1  0.0000000  0.6508444  3
    993    981    984    997     1  0.0000000  0.6508444  3
    993    981    984    998     1  0.0000000  0.6508444  3
    994    981    979   1004     1  0.0000000  0.6508444  3
    994    981    984    997     1  0.0000000  0.6508444  3
    994    981    984    998     1  0.0000000  0.6508444  3
    995    982    983   2083     1  180.0000771  0.0000000  2
    996    982    983   2083     1  180.0000771  0.0000000  2
    997    984    985   2113     1  180.0000771  0.0000000  2
    998    984    985   2113     1  180.0000771  0.0000000  2
    999    986    979   1004     1  0.0000000  0.6508444  3
    999    986    987   1001     1  0.0000000  0.6508444  3
    999    986    987   1002     1  0.0000000  0.6508444  3
   1000    986    979   1004     1  0.0000000  0.6508444  3
   1000    986    987   1001     1  0.0000000  0.6508444  3
   1000    986    987   1002     1  0.0000000  0.6508444  3
   1001    987    988   1003     1  0.0000000  0.0000000  2
   1002    987    988   1003     1  0.0000000  0.0000000  2
   1005   1006   1008   1021     1  0.0000000  0.6508444  3
   1005   1006   1008   1022     1  0.0000000  0.6508444  3
   1005   1007   1010   1023     1  0.0000000  0.6508444  3
   1005   1007   1010   1024     1  0.0000000  0.6508444  3
   1005   1012   1013   1027     1  0.0000000  0.6508444  3
   1005   1012   1013   1028     1  0.0000000  0.6508444  3
   1006   1005   1007   1019     1  0.0000000  0.6508444  3
   1006   1005   1007   1020     1  0.0000000  0.6508444  3
   1006   1005   1012   1025     1  0.0000000  0.6508444  3
   1006   1005   1012   1026     1  0.0000000  0.6508444  3
   1007   1005   1006   1017     1  0.0000000  0.6508444  3
   1007   1005   1006   1018     1  0.0000000  0.6508444  3
   1007   1005   1012   1025     1  0.0000000  0.6508444  3
   1007   1005   1012   1026     1  0.0000000  0.6508444  3
   1008   1006   1005   1030     1  0.0000000  0.6508444  3
   1008   1009   2143   2144     1  180.0000771  10.4600000  2
   1009   1008   1006   1017     1  0.0000000  0.6508444  3
   1009   1008   1006   1018     1  0.0000000  0.6508444  3
   1009   2143   2145   2146     1  0.0000000  0.0000000  2
   1009   2143   2145   2148     1  0.0000000  0.0000000  2
   1010   1007   1005   1030     1  0.0000000  0.6508444  3
   1010   1011   2173   2174     1  180.0000771  10.4600000  2
   1011   1010   1007   1019     1  0.0000000  0.6508444  3
   1011   1010   1007   1020     1  0.0000000  0.6508444  3
   1011   2173   2175   2176     1  0.0000000  0.0000000  2
   1011   2173   2175   2178     1  0.0000000  0.0000000  2
   1012   1005   1006   1017     1  0.0000000  0.6508444  3
   1012   1005   1006   1018     1  0.0000000  0.6508444  3
   1012   1005   1007   1019     1  0.0000000  0.6508444  3
   1012   1005   1007   1020     1  0.0000000  0.6508444  3
   1012   1013   1014   1029     1  0.0000000  0.0000000  2
   1013   1012   1005   1030     1  0.0000000  0.6508444  3
   1014   1013   1012   1025     1  0.0000000  0.6508444  3
   1014   1013   1012   1026     1  0.0000000  0.6508444  3
   1015   1009   1008   1021     1  0.0000000  3.3472000  1
   1015   1009   1008   1021     1  0.0000000  0.0000000  2
   1015   1009   1008   1021     1  180.0000771  0.3347200  3
   1015   1009   1008   1022     1  0.0000000  3.3472000  1
   1015   1009   1008   1022     1  0.0000000  0.0000000  2
   1015   1009   1008   1022     1  180.0000771  0.3347200  3
   1015   1009   2143   2144     1  0.0000000  8.3680000  1
   1015   1009   2143   2144     1  180.0000771  10.4600000  2
   1016   1011   1010   1023     1  0.0000000  3.3472000  1
   1016   1011   1010   1023     1  0.0000000  0.0000000  2
   1016   1011   1010   1023     1  180.0000771  0.3347200  3
   1016   1011   1010   1024     1  0.0000000  3.3472000  1
   1016   1011   1010   1024     1  0.0000000  0.0000000  2
   1016   1011   1010   1024     1  180.0000771  0.3347200  3
   1016   1011   2173   2174     1  0.0000000  8.3680000  1
   1016   1011   2173   2174     1  180.0000771  10.4600000  2
   1017   1006   1005   1030     1  0.0000000  0.6508444  3
   1017   1006   1008   1021     1  0.0000000  0.6508444  3
   1017   1006   1008   1022     1  0.0000000  0.6508444  3
   1018   1006   1005   1030     1  0.0000000  0.6508444  3
   1018   1006   1008   1021     1  0.0000000  0.6508444  3
   1018   1006   1008   1022     1  0.0000000  0.6508444  3
   1019   1007   1005   1030     1  0.0000000  0.6508444  3
   1019   1007   1010   1023     1  0.0000000  0.6508444  3
   1019   1007   1010   1024     1  0.0000000  0.6508444  3
   1020   1007   1005   1030     1  0.0000000  0.6508444  3
   1020   1007   1010   1023     1  0.0000000  0.6508444  3
   1020   1007   1010   1024     1  0.0000000  0.6508444  3
   1021   1008   1009   2143     1  180.0000771  0.0000000  2
   1022   1008   1009   2143     1  180.0000771  0.0000000  2
   1023   1010   1011   2173     1  180.0000771  0.0000000  2
   1024   1010   1011   2173     1  180.0000771  0.0000000  2
   1025   1012   1005   1030     1  0.0000000  0.6508444  3
   1025   1012   1013   1027     1  0.0000000  0.6508444  3
   1025   1012   1013   1028     1  0.0000000  0.6508444  3
   1026   1012   1005   1030     1  0.0000000  0.6508444  3
   1026   1012   1013   1027     1  0.0000000  0.6508444  3
   1026   1012   1013   1028     1  0.0000000  0.6508444  3
   1027   1013   1014   1029     1  0.0000000  0.0000000  2
   1028   1013   1014   1029     1  0.0000000  0.0000000  2
   1031   1032   1034   1047     1  0.0000000  0.6508444  3
   1031   1032   1034   1048     1  0.0000000  0.6508444  3
   1031   1033   1036   1049     1  0.0000000  0.6508444  3
   1031   1033   1036   1050     1  0.0000000  0.6508444  3
   1031   1038   1039   1053     1  0.0000000  0.6508444  3
   1031   1038   1039   1054     1  0.0000000  0.6508444  3
   1032   1031   1033   1045     1  0.0000000  0.6508444  3
   1032   1031   1033   1046     1  0.0000000  0.6508444  3
   1032   1031   1038   1051     1  0.0000000  0.6508444  3
   1032   1031   1038   1052     1  0.0000000  0.6508444  3
   1033   1031   1032   1043     1  0.0000000  0.6508444  3
   1033   1031   1032   1044     1  0.0000000  0.6508444  3
   1033   1031   1038   1051     1  0.0000000  0.6508444  3
   1033   1031   1038   1052     1  0.0000000  0.6508444  3
   1034   1032   1031   1056     1  0.0000000  0.6508444  3
   1034   1035   2203   2204     1  180.0000771  10.4600000  2
   1035   1034   1032   1043     1  0.0000000  0.6508444  3
   1035   1034   1032   1044     1  0.0000000  0.6508444  3
   1035   2203   2205   2206     1  0.0000000  0.0000000  2
   1035   2203   2205   2208     1  0.0000000  0.0000000  2
   1036   1033   1031   1056     1  0.0000000  0.6508444  3
   1036   1037   2233   2234     1  180.0000771  10.4600000  2
   1037   1036   1033   1045     1  0.0000000  0.6508444  3
   1037   1036   1033   1046     1  0.0000000  0.6508444  3
   1037   2233   2235   2236     1  0.0000000  0.0000000  2
   1037   2233   2235   2238     1  0.0000000  0.0000000  2
   1038   1031   1032   1043     1  0.0000000  0.6508444  3
   1038   1031   1032   1044     1  0.0000000  0.6508444  3
   1038   1031   1033   1045     1  0.0000000  0.6508444  3
   1038   1031   1033   1046     1  0.0000000  0.6508444  3
   1038   1039   1040   1055     1  0.0000000  0.0000000  2
   1039   1038   1031   1056     1  0.0000000  0.6508444  3
   1040   1039   1038   1051     1  0.0000000  0.6508444  3
   1040   1039   1038   1052     1  0.0000000  0.6508444  3
   1041   1035   1034   1047     1  0.0000000  3.3472000  1
   1041   1035   1034   1047     1  0.0000000  0.0000000  2
   1041   1035   1034   1047     1  180.0000771  0.3347200  3
   1041   1035   1034   1048     1  0.0000000  3.3472000  1
   1041   1035   1034   1048     1  0.0000000  0.0000000  2
   1041   1035   1034   1048     1  180.0000771  0.3347200  3
   1041   1035   2203   2204     1  0.0000000  8.3680000  1
   1041   1035   2203   2204     1  180.0000771  10.4600000  2
   1042   1037   1036   1049     1  0.0000000  3.3472000  1
   1042   1037   1036   1049     1  0.0000000  0.0000000  2
   1042   1037   1036   1049     1  180.0000771  0.3347200  3
   1042   1037   1036   1050     1  0.0000000  3.3472000  1
   1042   1037   1036   1050     1  0.0000000  0.0000000  2
   1042   1037   1036   1050     1  180.0000771  0.3347200  3
   1042   1037   2233   2234     1  0.0000000  8.3680000  1
   1042   1037   2233   2234     1  180.0000771  10.4600000  2
   1043   1032   1031   1056     1  0.0000000  0.6508444  3
   1043   1032   1034   1047     1  0.0000000  0.6508444  3
   1043   1032   1034   1048     1  0.0000000  0.6508444  3
   1044   1032   1031   1056     1  0.0000000  0.6508444  3
   1044   1032   1034   1047     1  0.0000000  0.6508444  3
   1044   1032   1034   1048     1  0.0000000  0.6508444  3
   1045   1033   1031   1056     1  0.0000000  0.6508444  3
   1045   1033   1036   1049     1  0.0000000  0.6508444  3
   1045   1033   1036   1050     1  0.0000000  0.6508444  3
   1046   1033   1031   1056     1  0.0000000  0.6508444  3
   1046   1033   1036   1049     1  0.0000000  0.6508444  3
   1046   1033   1036   1050     1  0.0000000  0.6508444  3
   1047   1034   1035   2203     1  180.0000771  0.0000000  2
   1048   1034   1035   2203     1  180.0000771  0.0000000  2
   1049   1036   1037   2233     1  180.0000771  0.0000000  2
   1050   1036   1037   2233     1  180.0000771  0.0000000  2
   1051   1038   1031   1056     1  0.0000000  0.6508444  3
   1051   1038   1039   1053     1  0.0000000  0.6508444  3
   1051   1038   1039   1054     1  0.0000000  0.6508444  3
   1052   1038   1031   1056     1  0.0000000  0.6508444  3
   1052   1038   1039   1053     1  0.0000000  0.6508444  3
   1052   1038   1039   1054     1  0.0000000  0.6508444  3
   1053   1039   1040   1055     1  0.0000000  0.0000000  2
   1054   1039   1040   1055     1  0.0000000  0.0000000  2
   1057   1058   1060   1073     1  0.0000000  0.6508444  3
   1057   1058   1060   1074     1  0.0000000  0.6508444  3
   1057   1059   1062   1075     1  0.0000000  0.6508444  3
   1057   1059   1062   1076     1  0.0000000  0.6508444  3
   1057   1064   1065   1079     1  0.0000000  0.6508444  3
   1057   1064   1065   1080     1  0.0000000  0.6508444  3
   1058   1057   1059   1071     1  0.0000000  0.6508444  3
   1058   1057   1059   1072     1  0.0000000  0.6508444  3
   1058   1057   1064   1077     1  0.0000000  0.6508444  3
   1058   1057   1064   1078     1  0.0000000  0.6508444  3
   1059   1057   1058   1069     1  0.0000000  0.6508444  3
   1059   1057   1058   1070     1  0.0000000  0.6508444  3
   1059   1057   1064   1077     1  0.0000000  0.6508444  3
   1059   1057   1064   1078     1  0.0000000  0.6508444  3
   1060   1058   1057   1082     1  0.0000000  0.6508444  3
   1060   1061   2263   2264     1  180.0000771  10.4600000  2
   1061   1060   1058   1069     1  0.0000000  0.6508444  3
   1061   1060   1058   1070     1  0.0000000  0.6508444  3
   1061   2263   2265   2266     1  0.0000000  0.0000000  2
   1061   2263   2265   2268     1  0.0000000  0.0000000  2
   1062   1059   1057   1082     1  0.0000000  0.6508444  3
   1062   1063   2293   2294     1  180.0000771  10.4600000  2
   1063   1062   1059   1071     1  0.0000000  0.6508444  3
   1063   1062   1059   1072     1  0.0000000  0.6508444  3
   1063   2293   2295   2296     1  0.0000000  0.0000000  2
   1063   2293   2295   2298     1  0.0000000  0.0000000  2
   1064   1057   1058   1069     1  0.0000000  0.6508444  3
   1064   1057   1058   1070     1  0.0000000  0.6508444  3
   1064   1057   1059   1071     1  0.0000000  0.6508444  3
   1064   1057   1059   1072     1  0.0000000  0.6508444  3
   1064   1065   1066   1081     1  0.0000000  0.0000000  2
   1065   1064   1057   1082     1  0.0000000  0.6508444  3
   1066   1065   1064   1077     1  0.0000000  0.6508444  3
   1066   1065   1064   1078     1  0.0000000  0.6508444  3
   1067   1061   1060   1073     1  0.0000000  3.3472000  1
   1067   1061   1060   1073     1  0.0000000  0.0000000  2
   1067   1061   1060   1073     1  180.0000771  0.3347200  3
   1067   1061   1060   1074     1  0.0000000  3.3472000  1
   1067   1061   1060   1074     1  0.0000000  0.0000000  2
   1067   1061   1060   1074     1  180.0000771  0.3347200  3
   1067   1061   2263   2264     1  0.0000000  8.3680000  1
   1067   1061   2263   2264     1  180.0000771  10.4600000  2
   1068   1063   1062   1075     1  0.0000000  3.3472000  1
   1068   1063   1062   1075     1  0.0000000  0.0000000  2
   1068   1063   1062   1075     1  180.0000771  0.3347200  3
   1068   1063   1062   1076     1  0.0000000  3.3472000  1
   1068   1063   1062   1076     1  0.0000000  0.0000000  2
   1068   1063   1062   1076     1  180.0000771  0.3347200  3
   1068   1063   2293   2294     1  0.0000000  8.3680000  1
   1068   1063   2293   2294     1  180.0000771  10.4600000  2
   1069   1058   1057   1082     1  0.0000000  0.6508444  3
   1069   1058   1060   1073     1  0.0000000  0.6508444  3
   1069   1058   1060   1074     1  0.0000000  0.6508444  3
   1070   1058   1057   1082     1  0.0000000  0.6508444  3
   1070   1058   1060   1073     1  0.0000000  0.6508444  3
   1070   1058   1060   1074     1  0.0000000  0.6508444  3
   1071   1059   1057   1082     1  0.0000000  0.6508444  3
   1071   1059   1062   1075     1  0.0000000  0.6508444  3
   1071   1059   1062   1076     1  0.0000000  0.6508444  3
   1072   1059   1057   1082     1  0.0000000  0.6508444  3
   1072   1059   1062   1075     1  0.0000000  0.6508444  3
   1072   1059   1062   1076     1  0.0000000  0.6508444  3
   1073   1060   1061   2263     1  180.0000771  0.0000000  2
   1074   1060   1061   2263     1  180.0000771  0.0000000  2
   1075   1062   1063   2293     1  180.0000771  0.0000000  2
   1076   1062   1063   2293     1  180.0000771  0.0000000  2
   1077   1064   1057   1082     1  0.0000000  0.6508444  3
   1077   1064   1065   1079     1  0.0000000  0.6508444  3
   1077   1064   1065   1080     1  0.0000000  0.6508444  3
   1078   1064   1057   1082     1  0.0000000  0.6508444  3
   1078   1064   1065   1079     1  0.0000000  0.6508444  3
   1078   1064   1065   1080     1  0.0000000  0.6508444  3
   1079   1065   1066   1081     1  0.0000000  0.0000000  2
   1080   1065   1066   1081     1  0.0000000  0.0000000  2
   1083   1084   1086   1099     1  0.0000000  0.6508444  3
   1083   1084   1086   1100     1  0.0000000  0.6508444  3
   1083   1085   1088   1101     1  0.0000000  0.6508444  3
   1083   1085   1088   1102     1  0.0000000  0.6508444  3
   1083   1090   1091   1105     1  0.0000000  0.6508444  3
   1083   1090   1091   1106     1  0.0000000  0.6508444  3
   1084   1083   1085   1097     1  0.0000000  0.6508444  3
   1084   1083   1085   1098     1  0.0000000  0.6508444  3
   1084   1083   1090   1103     1  0.0000000  0.6508444  3
   1084   1083   1090   1104     1  0.0000000  0.6508444  3
   1085   1083   1084   1095     1  0.0000000  0.6508444  3
   1085   1083   1084   1096     1  0.0000000  0.6508444  3
   1085   1083   1090   1103     1  0.0000000  0.6508444  3
   1085   1083   1090   1104     1  0.0000000  0.6508444  3
   1086   1084   1083   1108     1  0.0000000  0.6508444  3
   1086   1087   2323   2324     1  180.0000771  10.4600000  2
   1087   1086   1084   1095     1  0.0000000  0.6508444  3
   1087   1086   1084   1096     1  0.0000000  0.6508444  3
   1087   2323   2325   2326     1  0.0000000  0.0000000  2
   1087   2323   2325   2328     1  0.0000000  0.0000000  2
   1088   1085   1083   1108     1  0.0000000  0.6508444  3
   1088   1089   2353   2354     1  180.0000771  10.4600000  2
   1089   1088   1085   1097     1  0.0000000  0.6508444  3
   1089   1088   1085   1098     1  0.0000000  0.6508444  3
   1089   2353   2355   2356     1  0.0000000  0.0000000  2
   1089   2353   2355   2358     1  0.0000000  0.0000000  2
   1090   1083   1084   1095     1  0.0000000  0.6508444  3
   1090   1083   1084   1096     1  0.0000000  0.6508444  3
   1090   1083   1085   1097     1  0.0000000  0.6508444  3
   1090   1083   1085   1098     1  0.0000000  0.6508444  3
   1090   1091   1092   1107     1  0.0000000  0.0000000  2
   1091   1090   1083   1108     1  0.0000000  0.6508444  3
   1092   1091   1090   1103     1  0.0000000  0.6508444  3
   1092   1091   1090   1104     1  0.0000000  0.6508444  3
   1093   1087   1086   1099     1  0.0000000  3.3472000  1
   1093   1087   1086   1099     1  0.0000000  0.0000000  2
   1093   1087   1086   1099     1  180.0000771  0.3347200  3
   1093   1087   1086   1100     1  0.0000000  3.3472000  1
   1093   1087   1086   1100     1  0.0000000  0.0000000  2
   1093   1087   1086   1100     1  180.0000771  0.3347200  3
   1093   1087   2323   2324     1  0.0000000  8.3680000  1
   1093   1087   2323   2324     1  180.0000771  10.4600000  2
   1094   1089   1088   1101     1  0.0000000  3.3472000  1
   1094   1089   1088   1101     1  0.0000000  0.0000000  2
   1094   1089   1088   1101     1  180.0000771  0.3347200  3
   1094   1089   1088   1102     1  0.0000000  3.3472000  1
   1094   1089   1088   1102     1  0.0000000  0.0000000  2
   1094   1089   1088   1102     1  180.0000771  0.3347200  3
   1094   1089   2353   2354     1  0.0000000  8.3680000  1
   1094   1089   2353   2354     1  180.0000771  10.4600000  2
   1095   1084   1083   1108     1  0.0000000  0.6508444  3
   1095   1084   1086   1099     1  0.0000000  0.6508444  3
   1095   1084   1086   1100     1  0.0000000  0.6508444  3
   1096   1084   1083   1108     1  0.0000000  0.6508444  3
   1096   1084   1086   1099     1  0.0000000  0.6508444  3
   1096   1084   1086   1100     1  0.0000000  0.6508444  3
   1097   1085   1083   1108     1  0.0000000  0.6508444  3
   1097   1085   1088   1101     1  0.0000000  0.6508444  3
   1097   1085   1088   1102     1  0.0000000  0.6508444  3
   1098   1085   1083   1108     1  0.0000000  0.6508444  3
   1098   1085   1088   1101     1  0.0000000  0.6508444  3
   1098   1085   1088   1102     1  0.0000000  0.6508444  3
   1099   1086   1087   2323     1  180.0000771  0.0000000  2
   1100   1086   1087   2323     1  180.0000771  0.0000000  2
   1101   1088   1089   2353     1  180.0000771  0.0000000  2
   1102   1088   1089   2353     1  180.0000771  0.0000000  2
   1103   1090   1083   1108     1  0.0000000  0.6508444  3
   1103   1090   1091   1105     1  0.0000000  0.6508444  3
   1103   1090   1091   1106     1  0.0000000  0.6508444  3
   1104   1090   1083   1108     1  0.0000000  0.6508444  3
   1104   1090   1091   1105     1  0.0000000  0.6508444  3
   1104   1090   1091   1106     1  0.0000000  0.6508444  3
   1105   1091   1092   1107     1  0.0000000  0.0000000  2
   1106   1091   1092   1107     1  0.0000000  0.0000000  2
   1109   1110   1112   1125     1  0.0000000  0.6508444  3
   1109   1110   1112   1126     1  0.0000000  0.6508444  3
   1109   1111   1114   1127     1  0.0000000  0.6508444  3
   1109   1111   1114   1128     1  0.0000000  0.6508444  3
   1109   1116   1117   1131     1  0.0000000  0.6508444  3
   1109   1116   1117   1132     1  0.0000000  0.6508444  3
   1110   1109   1111   1123     1  0.0000000  0.6508444  3
   1110   1109   1111   1124     1  0.0000000  0.6508444  3
   1110   1109   1116   1129     1  0.0000000  0.6508444  3
   1110   1109   1116   1130     1  0.0000000  0.6508444  3
   1111   1109   1110   1121     1  0.0000000  0.6508444  3
   1111   1109   1110   1122     1  0.0000000  0.6508444  3
   1111   1109   1116   1129     1  0.0000000  0.6508444  3
   1111   1109   1116   1130     1  0.0000000  0.6508444  3
   1112   1110   1109   1134     1  0.0000000  0.6508444  3
   1112   1113   2383   2384     1  180.0000771  10.4600000  2
   1113   1112   1110   1121     1  0.0000000  0.6508444  3
   1113   1112   1110   1122     1  0.0000000  0.6508444  3
   1113   2383   2385   2386     1  0.0000000  0.0000000  2
   1113   2383   2385   2388     1  0.0000000  0.0000000  2
   1114   1111   1109   1134     1  0.0000000  0.6508444  3
   1114   1115   2413   2414     1  180.0000771  10.4600000  2
   1115   1114   1111   1123     1  0.0000000  0.6508444  3
   1115   1114   1111   1124     1  0.0000000  0.6508444  3
   1115   2413   2415   2416     1  0.0000000  0.0000000  2
   1115   2413   2415   2418     1  0.0000000  0.0000000  2
   1116   1109   1110   1121     1  0.0000000  0.6508444  3
   1116   1109   1110   1122     1  0.0000000  0.6508444  3
   1116   1109   1111   1123     1  0.0000000  0.6508444  3
   1116   1109   1111   1124     1  0.0000000  0.6508444  3
   1116   1117   1118   1133     1  0.0000000  0.0000000  2
   1117   1116   1109   1134     1  0.0000000  0.6508444  3
   1118   1117   1116   1129     1  0.0000000  0.6508444  3
   1118   1117   1116   1130     1  0.0000000  0.6508444  3
   1119   1113   1112   1125     1  0.0000000  3.3472000  1
   1119   1113   1112   1125     1  0.0000000  0.0000000  2
   1119   1113   1112   1125     1  180.0000771  0.3347200  3
   1119   1113   1112   1126     1  0.0000000  3.3472000  1
   1119   1113   1112   1126     1  0.0000000  0.0000000  2
   1119   1113   1112   1126     1  180.0000771  0.3347200  3
   1119   1113   2383   2384     1  0.0000000  8.3680000  1
   1119   1113   2383   2384     1  180.0000771  10.4600000  2
   1120   1115   1114   1127     1  0.0000000  3.3472000  1
   1120   1115   1114   1127     1  0.0000000  0.0000000  2
   1120   1115   1114   1127     1  180.0000771  0.3347200  3
   1120   1115   1114   1128     1  0.0000000  3.3472000  1
   1120   1115   1114   1128     1  0.0000000  0.0000000  2
   1120   1115   1114   1128     1  180.0000771  0.3347200  3
   1120   1115   2413   2414     1  0.0000000  8.3680000  1
   1120   1115   2413   2414     1  180.0000771  10.4600000  2
   1121   1110   1109   1134     1  0.0000000  0.6508444  3
   1121   1110   1112   1125     1  0.0000000  0.6508444  3
   1121   1110   1112   1126     1  0.0000000  0.6508444  3
   1122   1110   1109   1134     1  0.0000000  0.6508444  3
   1122   1110   1112   1125     1  0.0000000  0.6508444  3
   1122   1110   1112   1126     1  0.0000000  0.6508444  3
   1123   1111   1109   1134     1  0.0000000  0.6508444  3
   1123   1111   1114   1127     1  0.0000000  0.6508444  3
   1123   1111   1114   1128     1  0.0000000  0.6508444  3
   1124   1111   1109   1134     1  0.0000000  0.6508444  3
   1124   1111   1114   1127     1  0.0000000  0.6508444  3
   1124   1111   1114   1128     1  0.0000000  0.6508444  3
   1125   1112   1113   2383     1  180.0000771  0.0000000  2
   1126   1112   1113   2383     1  180.0000771  0.0000000  2
   1127   1114   1115   2413     1  180.0000771  0.0000000  2
   1128   1114   1115   2413     1  180.0000771  0.0000000  2
   1129   1116   1109   1134     1  0.0000000  0.6508444  3
   1129   1116   1117   1131     1  0.0000000  0.6508444  3
   1129   1116   1117   1132     1  0.0000000  0.6508444  3
   1130   1116   1109   1134     1  0.0000000  0.6508444  3
   1130   1116   1117   1131     1  0.0000000  0.6508444  3
   1130   1116   1117   1132     1  0.0000000  0.6508444  3
   1131   1117   1118   1133     1  0.0000000  0.0000000  2
   1132   1117   1118   1133     1  0.0000000  0.0000000  2
   1135   1136   1138   1151     1  0.0000000  0.6508444  3
   1135   1136   1138   1152     1  0.0000000  0.6508444  3
   1135   1137   1140   1153     1  0.0000000  0.6508444  3
   1135   1137   1140   1154     1  0.0000000  0.6508444  3
   1135   1142   1143   1157     1  0.0000000  0.6508444  3
   1135   1142   1143   1158     1  0.0000000  0.6508444  3
   1136   1135   1137   1149     1  0.0000000  0.6508444  3
   1136   1135   1137   1150     1  0.0000000  0.6508444  3
   1136   1135   1142   1155     1  0.0000000  0.6508444  3
   1136   1135   1142   1156     1  0.0000000  0.6508444  3
   1137   1135   1136   1147     1  0.0000000  0.6508444  3
   1137   1135   1136   1148     1  0.0000000  0.6508444  3
   1137   1135   1142   1155     1  0.0000000  0.6508444  3
   1137   1135   1142   1156     1  0.0000000  0.6508444  3
   1138   1136   1135   1160     1  0.0000000  0.6508444  3
   1138   1139   2443   2444     1  180.0000771  10.4600000  2
   1139   1138   1136   1147     1  0.0000000  0.6508444  3
   1139   1138   1136   1148     1  0.0000000  0.6508444  3
   1139   2443   2445   2446     1  0.0000000  0.0000000  2
   1139   2443   2445   2448     1  0.0000000  0.0000000  2
   1140   1137   1135   1160     1  0.0000000  0.6508444  3
   1140   1141   2473   2474     1  180.0000771  10.4600000  2
   1141   1140   1137   1149     1  0.0000000  0.6508444  3
   1141   1140   1137   1150     1  0.0000000  0.6508444  3
   1141   2473   2475   2476     1  0.0000000  0.0000000  2
   1141   2473   2475   2478     1  0.0000000  0.0000000  2
   1142   1135   1136   1147     1  0.0000000  0.6508444  3
   1142   1135   1136   1148     1  0.0000000  0.6508444  3
   1142   1135   1137   1149     1  0.0000000  0.6508444  3
   1142   1135   1137   1150     1  0.0000000  0.6508444  3
   1142   1143   1144   1159     1  0.0000000  0.0000000  2
   1143   1142   1135   1160     1  0.0000000  0.6508444  3
   1144   1143   1142   1155     1  0.0000000  0.6508444  3
   1144   1143   1142   1156     1  0.0000000  0.6508444  3
   1145   1139   1138   1151     1  0.0000000  3.3472000  1
   1145   1139   1138   1151     1  0.0000000  0.0000000  2
   1145   1139   1138   1151     1  180.0000771  0.3347200  3
   1145   1139   1138   1152     1  0.0000000  3.3472000  1
   1145   1139   1138   1152     1  0.0000000  0.0000000  2
   1145   1139   1138   1152     1  180.0000771  0.3347200  3
   1145   1139   2443   2444     1  0.0000000  8.3680000  1
   1145   1139   2443   2444     1  180.0000771  10.4600000  2
   1146   1141   1140   1153     1  0.0000000  3.3472000  1
   1146   1141   1140   1153     1  0.0000000  0.0000000  2
   1146   1141   1140   1153     1  180.0000771  0.3347200  3
   1146   1141   1140   1154     1  0.0000000  3.3472000  1
   1146   1141   1140   1154     1  0.0000000  0.0000000  2
   1146   1141   1140   1154     1  180.0000771  0.3347200  3
   1146   1141   2473   2474     1  0.0000000  8.3680000  1
   1146   1141   2473   2474     1  180.0000771  10.4600000  2
   1147   1136   1135   1160     1  0.0000000  0.6508444  3
   1147   1136   1138   1151     1  0.0000000  0.6508444  3
   1147   1136   1138   1152     1  0.0000000  0.6508444  3
   1148   1136   1135   1160     1  0.0000000  0.6508444  3
   1148   1136   1138   1151     1  0.0000000  0.6508444  3
   1148   1136   1138   1152     1  0.0000000  0.6508444  3
   1149   1137   1135   1160     1  0.0000000  0.6508444  3
   1149   1137   1140   1153     1  0.0000000  0.6508444  3
   1149   1137   1140   1154     1  0.0000000  0.6508444  3
   1150   1137   1135   1160     1  0.0000000  0.6508444  3
   1150   1137   1140   1153     1  0.0000000  0.6508444  3
   1150   1137   1140   1154     1  0.0000000  0.6508444  3
   1151   1138   1139   2443     1  180.0000771  0.0000000  2
   1152   1138   1139   2443     1  180.0000771  0.0000000  2
   1153   1140   1141   2473     1  180.0000771  0.0000000  2
   1154   1140   1141   2473     1  180.0000771  0.0000000  2
   1155   1142   1135   1160     1  0.0000000  0.6508444  3
   1155   1142   1143   1157     1  0.0000000  0.6508444  3
   1155   1142   1143   1158     1  0.0000000  0.6508444  3
   1156   1142   1135   1160     1  0.0000000  0.6508444  3
   1156   1142   1143   1157     1  0.0000000  0.6508444  3
   1156   1142   1143   1158     1  0.0000000  0.6508444  3
   1157   1143   1144   1159     1  0.0000000  0.0000000  2
   1158   1143   1144   1159     1  0.0000000  0.0000000  2
   1161   1162   1164   1177     1  0.0000000  0.6508444  3
   1161   1162   1164   1178     1  0.0000000  0.6508444  3
   1161   1163   1166   1179     1  0.0000000  0.6508444  3
   1161   1163   1166   1180     1  0.0000000  0.6508444  3
   1161   1168   1169   1183     1  0.0000000  0.6508444  3
   1161   1168   1169   1184     1  0.0000000  0.6508444  3
   1162   1161   1163   1175     1  0.0000000  0.6508444  3
   1162   1161   1163   1176     1  0.0000000  0.6508444  3
   1162   1161   1168   1181     1  0.0000000  0.6508444  3
   1162   1161   1168   1182     1  0.0000000  0.6508444  3
   1163   1161   1162   1173     1  0.0000000  0.6508444  3
   1163   1161   1162   1174     1  0.0000000  0.6508444  3
   1163   1161   1168   1181     1  0.0000000  0.6508444  3
   1163   1161   1168   1182     1  0.0000000  0.6508444  3
   1164   1162   1161   1186     1  0.0000000  0.6508444  3
   1164   1165   2503   2504     1  180.0000771  10.4600000  2
   1165   1164   1162   1173     1  0.0000000  0.6508444  3
   1165   1164   1162   1174     1  0.0000000  0.6508444  3
   1165   2503   2505   2506     1  0.0000000  0.0000000  2
   1165   2503   2505   2508     1  0.0000000  0.0000000  2
   1166   1163   1161   1186     1  0.0000000  0.6508444  3
   1166   1167   2533   2534     1  180.0000771  10.4600000  2
   1167   1166   1163   1175     1  0.0000000  0.6508444  3
   1167   1166   1163   1176     1  0.0000000  0.6508444  3
   1167   2533   2535   2536     1  0.0000000  0.0000000  2
   1167   2533   2535   2538     1  0.0000000  0.0000000  2
   1168   1161   1162   1173     1  0.0000000  0.6508444  3
   1168   1161   1162   1174     1  0.0000000  0.6508444  3
   1168   1161   1163   1175     1  0.0000000  0.6508444  3
   1168   1161   1163   1176     1  0.0000000  0.6508444  3
   1168   1169   1170   1185     1  0.0000000  0.0000000  2
   1169   1168   1161   1186     1  0.0000000  0.6508444  3
   1170   1169   1168   1181     1  0.0000000  0.6508444  3
   1170   1169   1168   1182     1  0.0000000  0.6508444  3
   1171   1165   1164   1177     1  0.0000000  3.3472000  1
   1171   1165   1164   1177     1  0.0000000  0.0000000  2
   1171   1165   1164   1177     1  180.0000771  0.3347200  3
   1171   1165   1164   1178     1  0.0000000  3.3472000  1
   1171   1165   1164   1178     1  0.0000000  0.0000000  2
   1171   1165   1164   1178     1  180.0000771  0.3347200  3
   1171   1165   2503   2504     1  0.0000000  8.3680000  1
   1171   1165   2503   2504     1  180.0000771  10.4600000  2
   1172   1167   1166   1179     1  0.0000000  3.3472000  1
   1172   1167   1166   1179     1  0.0000000  0.0000000  2
   1172   1167   1166   1179     1  180.0000771  0.3347200  3
   1172   1167   1166   1180     1  0.0000000  3.3472000  1
   1172   1167   1166   1180     1  0.0000000  0.0000000  2
   1172   1167   1166   1180     1  180.0000771  0.3347200  3
   1172   1167   2533   2534     1  0.0000000  8.3680000  1
   1172   1167   2533   2534     1  180.0000771  10.4600000  2
   1173   1162   1161   1186     1  0.0000000  0.6508444  3
   1173   1162   1164   1177     1  0.0000000  0.6508444  3
   1173   1162   1164   1178     1  0.0000000  0.6508444  3
   1174   1162   1161   1186     1  0.0000000  0.6508444  3
   1174   1162   1164   1177     1  0.0000000  0.6508444  3
   1174   1162   1164   1178     1  0.0000000  0.6508444  3
   1175   1163   1161   1186     1  0.0000000  0.6508444  3
   1175   1163   1166   1179     1  0.0000000  0.6508444  3
   1175   1163   1166   1180     1  0.0000000  0.6508444  3
   1176   1163   1161   1186     1  0.0000000  0.6508444  3
   1176   1163   1166   1179     1  0.0000000  0.6508444  3
   1176   1163   1166   1180     1  0.0000000  0.6508444  3
   1177   1164   1165   2503     1  180.0000771  0.0000000  2
   1178   1164   1165   2503     1  180.0000771  0.0000000  2
   1179   1166   1167   2533     1  180.0000771  0.0000000  2
   1180   1166   1167   2533     1  180.0000771  0.0000000  2
   1181   1168   1161   1186     1  0.0000000  0.6508444  3
   1181   1168   1169   1183     1  0.0000000  0.6508444  3
   1181   1168   1169   1184     1  0.0000000  0.6508444  3
   1182   1168   1161   1186     1  0.0000000  0.6508444  3
   1182   1168   1169   1183     1  0.0000000  0.6508444  3
   1182   1168   1169   1184     1  0.0000000  0.6508444  3
   1183   1169   1170   1185     1  0.0000000  0.0000000  2
   1184   1169   1170   1185     1  0.0000000  0.0000000  2
   1187   1188   1190   1203     1  0.0000000  0.6508444  3
   1187   1188   1190   1204     1  0.0000000  0.6508444  3
   1187   1189   1192   1205     1  0.0000000  0.6508444  3
   1187   1189   1192   1206     1  0.0000000  0.6508444  3
   1187   1194   1195   1209     1  0.0000000  0.6508444  3
   1187   1194   1195   1210     1  0.0000000  0.6508444  3
   1188   1187   1189   1201     1  0.0000000  0.6508444  3
   1188   1187   1189   1202     1  0.0000000  0.6508444  3
   1188   1187   1194   1207     1  0.0000000  0.6508444  3
   1188   1187   1194   1208     1  0.0000000  0.6508444  3
   1189   1187   1188   1199     1  0.0000000  0.6508444  3
   1189   1187   1188   1200     1  0.0000000  0.6508444  3
   1189   1187   1194   1207     1  0.0000000  0.6508444  3
   1189   1187   1194   1208     1  0.0000000  0.6508444  3
   1190   1188   1187   1212     1  0.0000000  0.6508444  3
   1190   1191   2563   2564     1  180.0000771  10.4600000  2
   1191   1190   1188   1199     1  0.0000000  0.6508444  3
   1191   1190   1188   1200     1  0.0000000  0.6508444  3
   1191   2563   2565   2566     1  0.0000000  0.0000000  2
   1191   2563   2565   2568     1  0.0000000  0.0000000  2
   1192   1189   1187   1212     1  0.0000000  0.6508444  3
   1192   1193   2593   2594     1  180.0000771  10.4600000  2
   1193   1192   1189   1201     1  0.0000000  0.6508444  3
   1193   1192   1189   1202     1  0.0000000  0.6508444  3
   1193   2593   2595   2596     1  0.0000000  0.0000000  2
   1193   2593   2595   2598     1  0.0000000  0.0000000  2
   1194   1187   1188   1199     1  0.0000000  0.6508444  3
   1194   1187   1188   1200     1  0.0000000  0.6508444  3
   1194   1187   1189   1201     1  0.0000000  0.6508444  3
   1194   1187   1189   1202     1  0.0000000  0.6508444  3
   1194   1195   1196   1211     1  0.0000000  0.0000000  2
   1195   1194   1187   1212     1  0.0000000  0.6508444  3
   1196   1195   1194   1207     1  0.0000000  0.6508444  3
   1196   1195   1194   1208     1  0.0000000  0.6508444  3
   1197   1191   1190   1203     1  0.0000000  3.3472000  1
   1197   1191   1190   1203     1  0.0000000  0.0000000  2
   1197   1191   1190   1203     1  180.0000771  0.3347200  3
   1197   1191   1190   1204     1  0.0000000  3.3472000  1
   1197   1191   1190   1204     1  0.0000000  0.0000000  2
   1197   1191   1190   1204     1  180.0000771  0.3347200  3
   1197   1191   2563   2564     1  0.0000000  8.3680000  1
   1197   1191   2563   2564     1  180.0000771  10.4600000  2
   1198   1193   1192   1205     1  0.0000000  3.3472000  1
   1198   1193   1192   1205     1  0.0000000  0.0000000  2
   1198   1193   1192   1205     1  180.0000771  0.3347200  3
   1198   1193   1192   1206     1  0.0000000  3.3472000  1
   1198   1193   1192   1206     1  0.0000000  0.0000000  2
   1198   1193   1192   1206     1  180.0000771  0.3347200  3
   1198   1193   2593   2594     1  0.0000000  8.3680000  1
   1198   1193   2593   2594     1  180.0000771  10.4600000  2
   1199   1188   1187   1212     1  0.0000000  0.6508444  3
   1199   1188   1190   1203     1  0.0000000  0.6508444  3
   1199   1188   1190   1204     1  0.0000000  0.6508444  3
   1200   1188   1187   1212     1  0.0000000  0.6508444  3
   1200   1188   1190   1203     1  0.0000000  0.6508444  3
   1200   1188   1190   1204     1  0.0000000  0.6508444  3
   1201   1189   1187   1212     1  0.0000000  0.6508444  3
   1201   1189   1192   1205     1  0.0000000  0.6508444  3
   1201   1189   1192   1206     1  0.0000000  0.6508444  3
   1202   1189   1187   1212     1  0.0000000  0.6508444  3
   1202   1189   1192   1205     1  0.0000000  0.6508444  3
   1202   1189   1192   1206     1  0.0000000  0.6508444  3
   1203   1190   1191   2563     1  180.0000771  0.0000000  2
   1204   1190   1191   2563     1  180.0000771  0.0000000  2
   1205   1192   1193   2593     1  180.0000771  0.0000000  2
   1206   1192   1193   2593     1  180.0000771  0.0000000  2
   1207   1194   1187   1212     1  0.0000000  0.6508444  3
   1207   1194   1195   1209     1  0.0000000  0.6508444  3
   1207   1194   1195   1210     1  0.0000000  0.6508444  3
   1208   1194   1187   1212     1  0.0000000  0.6508444  3
   1208   1194   1195   1209     1  0.0000000  0.6508444  3
   1208   1194   1195   1210     1  0.0000000  0.6508444  3
   1209   1195   1196   1211     1  0.0000000  0.0000000  2
   1210   1195   1196   1211     1  0.0000000  0.0000000  2
   1213   1214   1216   1229     1  0.0000000  0.6508444  3
   1213   1214   1216   1230     1  0.0000000  0.6508444  3
   1213   1215   1218   1231     1  0.0000000  0.6508444  3
   1213   1215   1218   1232     1  0.0000000  0.6508444  3
   1213   1220   1221   1235     1  0.0000000  0.6508444  3
   1213   1220   1221   1236     1  0.0000000  0.6508444  3
   1214   1213   1215   1227     1  0.0000000  0.6508444  3
   1214   1213   1215   1228     1  0.0000000  0.6508444  3
   1214   1213   1220   1233     1  0.0000000  0.6508444  3
   1214   1213   1220   1234     1  0.0000000  0.6508444  3
   1215   1213   1214   1225     1  0.0000000  0.6508444  3
   1215   1213   1214   1226     1  0.0000000  0.6508444  3
   1215   1213   1220   1233     1  0.0000000  0.6508444  3
   1215   1213   1220   1234     1  0.0000000  0.6508444  3
   1216   1214   1213   1238     1  0.0000000  0.6508444  3
   1216   1217   2623   2624     1  180.0000771  10.4600000  2
   1217   1216   1214   1225     1  0.0000000  0.6508444  3
   1217   1216   1214   1226     1  0.0000000  0.6508444  3
   1217   2623   2625   2626     1  0.0000000  0.0000000  2
   1217   2623   2625   2628     1  0.0000000  0.0000000  2
   1218   1215   1213   1238     1  0.0000000  0.6508444  3
   1218   1219   2653   2654     1  180.0000771  10.4600000  2
   1219   1218   1215   1227     1  0.0000000  0.6508444  3
   1219   1218   1215   1228     1  0.0000000  0.6508444  3
   1219   2653   2655   2656     1  0.0000000  0.0000000  2
   1219   2653   2655   2658     1  0.0000000  0.0000000  2
   1220   1213   1214   1225     1  0.0000000  0.6508444  3
   1220   1213   1214   1226     1  0.0000000  0.6508444  3
   1220   1213   1215   1227     1  0.0000000  0.6508444  3
   1220   1213   1215   1228     1  0.0000000  0.6508444  3
   1220   1221   1222   1237     1  0.0000000  0.0000000  2
   1221   1220   1213   1238     1  0.0000000  0.6508444  3
   1222   1221   1220   1233     1  0.0000000  0.6508444  3
   1222   1221   1220   1234     1  0.0000000  0.6508444  3
   1223   1217   1216   1229     1  0.0000000  3.3472000  1
   1223   1217   1216   1229     1  0.0000000  0.0000000  2
   1223   1217   1216   1229     1  180.0000771  0.3347200  3
   1223   1217   1216   1230     1  0.0000000  3.3472000  1
   1223   1217   1216   1230     1  0.0000000  0.0000000  2
   1223   1217   1216   1230     1  180.0000771  0.3347200  3
   1223   1217   2623   2624     1  0.0000000  8.3680000  1
   1223   1217   2623   2624     1  180.0000771  10.4600000  2
   1224   1219   1218   1231     1  0.0000000  3.3472000  1
   1224   1219   1218   1231     1  0.0000000  0.0000000  2
   1224   1219   1218   1231     1  180.0000771  0.3347200  3
   1224   1219   1218   1232     1  0.0000000  3.3472000  1
   1224   1219   1218   1232     1  0.0000000  0.0000000  2
   1224   1219   1218   1232     1  180.0000771  0.3347200  3
   1224   1219   2653   2654     1  0.0000000  8.3680000  1
   1224   1219   2653   2654     1  180.0000771  10.4600000  2
   1225   1214   1213   1238     1  0.0000000  0.6508444  3
   1225   1214   1216   1229     1  0.0000000  0.6508444  3
   1225   1214   1216   1230     1  0.0000000  0.6508444  3
   1226   1214   1213   1238     1  0.0000000  0.6508444  3
   1226   1214   1216   1229     1  0.0000000  0.6508444  3
   1226   1214   1216   1230     1  0.0000000  0.6508444  3
   1227   1215   1213   1238     1  0.0000000  0.6508444  3
   1227   1215   1218   1231     1  0.0000000  0.6508444  3
   1227   1215   1218   1232     1  0.0000000  0.6508444  3
   1228   1215   1213   1238     1  0.0000000  0.6508444  3
   1228   1215   1218   1231     1  0.0000000  0.6508444  3
   1228   1215   1218   1232     1  0.0000000  0.6508444  3
   1229   1216   1217   2623     1  180.0000771  0.0000000  2
   1230   1216   1217   2623     1  180.0000771  0.0000000  2
   1231   1218   1219   2653     1  180.0000771  0.0000000  2
   1232   1218   1219   2653     1  180.0000771  0.0000000  2
   1233   1220   1213   1238     1  0.0000000  0.6508444  3
   1233   1220   1221   1235     1  0.0000000  0.6508444  3
   1233   1220   1221   1236     1  0.0000000  0.6508444  3
   1234   1220   1213   1238     1  0.0000000  0.6508444  3
   1234   1220   1221   1235     1  0.0000000  0.6508444  3
   1234   1220   1221   1236     1  0.0000000  0.6508444  3
   1235   1221   1222   1237     1  0.0000000  0.0000000  2
   1236   1221   1222   1237     1  0.0000000  0.0000000  2
   1239   1240   1242   1255     1  0.0000000  0.6508444  3
   1239   1240   1242   1256     1  0.0000000  0.6508444  3
   1239   1241   1244   1257     1  0.0000000  0.6508444  3
   1239   1241   1244   1258     1  0.0000000  0.6508444  3
   1239   1246   1247   1261     1  0.0000000  0.6508444  3
   1239   1246   1247   1262     1  0.0000000  0.6508444  3
   1240   1239   1241   1253     1  0.0000000  0.6508444  3
   1240   1239   1241   1254     1  0.0000000  0.6508444  3
   1240   1239   1246   1259     1  0.0000000  0.6508444  3
   1240   1239   1246   1260     1  0.0000000  0.6508444  3
   1241   1239   1240   1251     1  0.0000000  0.6508444  3
   1241   1239   1240   1252     1  0.0000000  0.6508444  3
   1241   1239   1246   1259     1  0.0000000  0.6508444  3
   1241   1239   1246   1260     1  0.0000000  0.6508444  3
   1242   1240   1239   1264     1  0.0000000  0.6508444  3
   1242   1243   2683   2684     1  180.0000771  10.4600000  2
   1243   1242   1240   1251     1  0.0000000  0.6508444  3
   1243   1242   1240   1252     1  0.0000000  0.6508444  3
   1243   2683   2685   2686     1  0.0000000  0.0000000  2
   1243   2683   2685   2688     1  0.0000000  0.0000000  2
   1244   1241   1239   1264     1  0.0000000  0.6508444  3
   1244   1245   2713   2714     1  180.0000771  10.4600000  2
   1245   1244   1241   1253     1  0.0000000  0.6508444  3
   1245   1244   1241   1254     1  0.0000000  0.6508444  3
   1245   2713   2715   2716     1  0.0000000  0.0000000  2
   1245   2713   2715   2718     1  0.0000000  0.0000000  2
   1246   1239   1240   1251     1  0.0000000  0.6508444  3
   1246   1239   1240   1252     1  0.0000000  0.6508444  3
   1246   1239   1241   1253     1  0.0000000  0.6508444  3
   1246   1239   1241   1254     1  0.0000000  0.6508444  3
   1246   1247   1248   1263     1  0.0000000  0.0000000  2
   1247   1246   1239   1264     1  0.0000000  0.6508444  3
   1248   1247   1246   1259     1  0.0000000  0.6508444  3
   1248   1247   1246   1260     1  0.0000000  0.6508444  3
   1249   1243   1242   1255     1  0.0000000  3.3472000  1
   1249   1243   1242   1255     1  0.0000000  0.0000000  2
   1249   1243   1242   1255     1  180.0000771  0.3347200  3
   1249   1243   1242   1256     1  0.0000000  3.3472000  1
   1249   1243   1242   1256     1  0.0000000  0.0000000  2
   1249   1243   1242   1256     1  180.0000771  0.3347200  3
   1249   1243   2683   2684     1  0.0000000  8.3680000  1
   1249   1243   2683   2684     1  180.0000771  10.4600000  2
   1250   1245   1244   1257     1  0.0000000  3.3472000  1
   1250   1245   1244   1257     1  0.0000000  0.0000000  2
   1250   1245   1244   1257     1  180.0000771  0.3347200  3
   1250   1245   1244   1258     1  0.0000000  3.3472000  1
   1250   1245   1244   1258     1  0.0000000  0.0000000  2
   1250   1245   1244   1258     1  180.0000771  0.3347200  3
   1250   1245   2713   2714     1  0.0000000  8.3680000  1
   1250   1245   2713   2714     1  180.0000771  10.4600000  2
   1251   1240   1239   1264     1  0.0000000  0.6508444  3
   1251   1240   1242   1255     1  0.0000000  0.6508444  3
   1251   1240   1242   1256     1  0.0000000  0.6508444  3
   1252   1240   1239   1264     1  0.0000000  0.6508444  3
   1252   1240   1242   1255     1  0.0000000  0.6508444  3
   1252   1240   1242   1256     1  0.0000000  0.6508444  3
   1253   1241   1239   1264     1  0.0000000  0.6508444  3
   1253   1241   1244   1257     1  0.0000000  0.6508444  3
   1253   1241   1244   1258     1  0.0000000  0.6508444  3
   1254   1241   1239   1264     1  0.0000000  0.6508444  3
   1254   1241   1244   1257     1  0.0000000  0.6508444  3
   1254   1241   1244   1258     1  0.0000000  0.6508444  3
   1255   1242   1243   2683     1  180.0000771  0.0000000  2
   1256   1242   1243   2683     1  180.0000771  0.0000000  2
   1257   1244   1245   2713     1  180.0000771  0.0000000  2
   1258   1244   1245   2713     1  180.0000771  0.0000000  2
   1259   1246   1239   1264     1  0.0000000  0.6508444  3
   1259   1246   1247   1261     1  0.0000000  0.6508444  3
   1259   1246   1247   1262     1  0.0000000  0.6508444  3
   1260   1246   1239   1264     1  0.0000000  0.6508444  3
   1260   1246   1247   1261     1  0.0000000  0.6508444  3
   1260   1246   1247   1262     1  0.0000000  0.6508444  3
   1261   1247   1248   1263     1  0.0000000  0.0000000  2
   1262   1247   1248   1263     1  0.0000000  0.0000000  2
   1265   1266   1268   1281     1  0.0000000  0.6508444  3
   1265   1266   1268   1282     1  0.0000000  0.6508444  3
   1265   1267   1270   1283     1  0.0000000  0.6508444  3
   1265   1267   1270   1284     1  0.0000000  0.6508444  3
   1265   1272   1273   1287     1  0.0000000  0.6508444  3
   1265   1272   1273   1288     1  0.0000000  0.6508444  3
   1266   1265   1267   1279     1  0.0000000  0.6508444  3
   1266   1265   1267   1280     1  0.0000000  0.6508444  3
   1266   1265   1272   1285     1  0.0000000  0.6508444  3
   1266   1265   1272   1286     1  0.0000000  0.6508444  3
   1267   1265   1266   1277     1  0.0000000  0.6508444  3
   1267   1265   1266   1278     1  0.0000000  0.6508444  3
   1267   1265   1272   1285     1  0.0000000  0.6508444  3
   1267   1265   1272   1286     1  0.0000000  0.6508444  3
   1268   1266   1265   1290     1  0.0000000  0.6508444  3
   1268   1269   2743   2744     1  180.0000771  10.4600000  2
   1269   1268   1266   1277     1  0.0000000  0.6508444  3
   1269   1268   1266   1278     1  0.0000000  0.6508444  3
   1269   2743   2745   2746     1  0.0000000  0.0000000  2
   1269   2743   2745   2748     1  0.0000000  0.0000000  2
   1270   1267   1265   1290     1  0.0000000  0.6508444  3
   1270   1271   2773   2774     1  180.0000771  10.4600000  2
   1271   1270   1267   1279     1  0.0000000  0.6508444  3
   1271   1270   1267   1280     1  0.0000000  0.6508444  3
   1271   2773   2775   2776     1  0.0000000  0.0000000  2
   1271   2773   2775   2778     1  0.0000000  0.0000000  2
   1272   1265   1266   1277     1  0.0000000  0.6508444  3
   1272   1265   1266   1278     1  0.0000000  0.6508444  3
   1272   1265   1267   1279     1  0.0000000  0.6508444  3
   1272   1265   1267   1280     1  0.0000000  0.6508444  3
   1272   1273   1274   1289     1  0.0000000  0.0000000  2
   1273   1272   1265   1290     1  0.0000000  0.6508444  3
   1274   1273   1272   1285     1  0.0000000  0.6508444  3
   1274   1273   1272   1286     1  0.0000000  0.6508444  3
   1275   1269   1268   1281     1  0.0000000  3.3472000  1
   1275   1269   1268   1281     1  0.0000000  0.0000000  2
   1275   1269   1268   1281     1  180.0000771  0.3347200  3
   1275   1269   1268   1282     1  0.0000000  3.3472000  1
   1275   1269   1268   1282     1  0.0000000  0.0000000  2
   1275   1269   1268   1282     1  180.0000771  0.3347200  3
   1275   1269   2743   2744     1  0.0000000  8.3680000  1
   1275   1269   2743   2744     1  180.0000771  10.4600000  2
   1276   1271   1270   1283     1  0.0000000  3.3472000  1
   1276   1271   1270   1283     1  0.0000000  0.0000000  2
   1276   1271   1270   1283     1  180.0000771  0.3347200  3
   1276   1271   1270   1284     1  0.0000000  3.3472000  1
   1276   1271   1270   1284     1  0.0000000  0.0000000  2
   1276   1271   1270   1284     1  180.0000771  0.3347200  3
   1276   1271   2773   2774     1  0.0000000  8.3680000  1
   1276   1271   2773   2774     1  180.0000771  10.4600000  2
   1277   1266   1265   1290     1  0.0000000  0.6508444  3
   1277   1266   1268   1281     1  0.0000000  0.6508444  3
   1277   1266   1268   1282     1  0.0000000  0.6508444  3
   1278   1266   1265   1290     1  0.0000000  0.6508444  3
   1278   1266   1268   1281     1  0.0000000  0.6508444  3
   1278   1266   1268   1282     1  0.0000000  0.6508444  3
   1279   1267   1265   1290     1  0.0000000  0.6508444  3
   1279   1267   1270   1283     1  0.0000000  0.6508444  3
   1279   1267   1270   1284     1  0.0000000  0.6508444  3
   1280   1267   1265   1290     1  0.0000000  0.6508444  3
   1280   1267   1270   1283     1  0.0000000  0.6508444  3
   1280   1267   1270   1284     1  0.0000000  0.6508444  3
   1281   1268   1269   2743     1  180.0000771  0.0000000  2
   1282   1268   1269   2743     1  180.0000771  0.0000000  2
   1283   1270   1271   2773     1  180.0000771  0.0000000  2
   1284   1270   1271   2773     1  180.0000771  0.0000000  2
   1285   1272   1265   1290     1  0.0000000  0.6508444  3
   1285   1272   1273   1287     1  0.0000000  0.6508444  3
   1285   1272   1273   1288     1  0.0000000  0.6508444  3
   1286   1272   1265   1290     1  0.0000000  0.6508444  3
   1286   1272   1273   1287     1  0.0000000  0.6508444  3
   1286   1272   1273   1288     1  0.0000000  0.6508444  3
   1287   1273   1274   1289     1  0.0000000  0.0000000  2
   1288   1273   1274   1289     1  0.0000000  0.0000000  2
   1291   1292   1294   1307     1  0.0000000  0.6508444  3
   1291   1292   1294   1308     1  0.0000000  0.6508444  3
   1291   1293   1296   1309     1  0.0000000  0.6508444  3
   1291   1293   1296   1310     1  0.0000000  0.6508444  3
   1291   1298   1299   1313     1  0.0000000  0.6508444  3
   1291   1298   1299   1314     1  0.0000000  0.6508444  3
   1292   1291   1293   1305     1  0.0000000  0.6508444  3
   1292   1291   1293   1306     1  0.0000000  0.6508444  3
   1292   1291   1298   1311     1  0.0000000  0.6508444  3
   1292   1291   1298   1312     1  0.0000000  0.6508444  3
   1293   1291   1292   1303     1  0.0000000  0.6508444  3
   1293   1291   1292   1304     1  0.0000000  0.6508444  3
   1293   1291   1298   1311     1  0.0000000  0.6508444  3
   1293   1291   1298   1312     1  0.0000000  0.6508444  3
   1294   1292   1291   1316     1  0.0000000  0.6508444  3
   1294   1295   2803   2804     1  180.0000771  10.4600000  2
   1295   1294   1292   1303     1  0.0000000  0.6508444  3
   1295   1294   1292   1304     1  0.0000000  0.6508444  3
   1295   2803   2805   2806     1  0.0000000  0.0000000  2
   1295   2803   2805   2808     1  0.0000000  0.0000000  2
   1296   1293   1291   1316     1  0.0000000  0.6508444  3
   1296   1297   2833   2834     1  180.0000771  10.4600000  2
   1297   1296   1293   1305     1  0.0000000  0.6508444  3
   1297   1296   1293   1306     1  0.0000000  0.6508444  3
   1297   2833   2835   2836     1  0.0000000  0.0000000  2
   1297   2833   2835   2838     1  0.0000000  0.0000000  2
   1298   1291   1292   1303     1  0.0000000  0.6508444  3
   1298   1291   1292   1304     1  0.0000000  0.6508444  3
   1298   1291   1293   1305     1  0.0000000  0.6508444  3
   1298   1291   1293   1306     1  0.0000000  0.6508444  3
   1298   1299   1300   1315     1  0.0000000  0.0000000  2
   1299   1298   1291   1316     1  0.0000000  0.6508444  3
   1300   1299   1298   1311     1  0.0000000  0.6508444  3
   1300   1299   1298   1312     1  0.0000000  0.6508444  3
   1301   1295   1294   1307     1  0.0000000  3.3472000  1
   1301   1295   1294   1307     1  0.0000000  0.0000000  2
   1301   1295   1294   1307     1  180.0000771  0.3347200  3
   1301   1295   1294   1308     1  0.0000000  3.3472000  1
   1301   1295   1294   1308     1  0.0000000  0.0000000  2
   1301   1295   1294   1308     1  180.0000771  0.3347200  3
   1301   1295   2803   2804     1  0.0000000  8.3680000  1
   1301   1295   2803   2804     1  180.0000771  10.4600000  2
   1302   1297   1296   1309     1  0.0000000  3.3472000  1
   1302   1297   1296   1309     1  0.0000000  0.0000000  2
   1302   1297   1296   1309     1  180.0000771  0.3347200  3
   1302   1297   1296   1310     1  0.0000000  3.3472000  1
   1302   1297   1296   1310     1  0.0000000  0.0000000  2
   1302   1297   1296   1310     1  180.0000771  0.3347200  3
   1302   1297   2833   2834     1  0.0000000  8.3680000  1
   1302   1297   2833   2834     1  180.0000771  10.4600000  2
   1303   1292   1291   1316     1  0.0000000  0.6508444  3
   1303   1292   1294   1307     1  0.0000000  0.6508444  3
   1303   1292   1294   1308     1  0.0000000  0.6508444  3
   1304   1292   1291   1316     1  0.0000000  0.6508444  3
   1304   1292   1294   1307     1  0.0000000  0.6508444  3
   1304   1292   1294   1308     1  0.0000000  0.6508444  3
   1305   1293   1291   1316     1  0.0000000  0.6508444  3
   1305   1293   1296   1309     1  0.0000000  0.6508444  3
   1305   1293   1296   1310     1  0.0000000  0.6508444  3
   1306   1293   1291   1316     1  0.0000000  0.6508444  3
   1306   1293   1296   1309     1  0.0000000  0.6508444  3
   1306   1293   1296   1310     1  0.0000000  0.6508444  3
   1307   1294   1295   2803     1  180.0000771  0.0000000  2
   1308   1294   1295   2803     1  180.0000771  0.0000000  2
   1309   1296   1297   2833     1  180.0000771  0.0000000  2
   1310   1296   1297   2833     1  180.0000771  0.0000000  2
   1311   1298   1291   1316     1  0.0000000  0.6508444  3
   1311   1298   1299   1313     1  0.0000000  0.6508444  3
   1311   1298   1299   1314     1  0.0000000  0.6508444  3
   1312   1298   1291   1316     1  0.0000000  0.6508444  3
   1312   1298   1299   1313     1  0.0000000  0.6508444  3
   1312   1298   1299   1314     1  0.0000000  0.6508444  3
   1313   1299   1300   1315     1  0.0000000  0.0000000  2
   1314   1299   1300   1315     1  0.0000000  0.0000000  2
   1317   1318   1320   1333     1  0.0000000  0.6508444  3
   1317   1318   1320   1334     1  0.0000000  0.6508444  3
   1317   1319   1322   1335     1  0.0000000  0.6508444  3
   1317   1319   1322   1336     1  0.0000000  0.6508444  3
   1317   1324   1325   1339     1  0.0000000  0.6508444  3
   1317   1324   1325   1340     1  0.0000000  0.6508444  3
   1318   1317   1319   1331     1  0.0000000  0.6508444  3
   1318   1317   1319   1332     1  0.0000000  0.6508444  3
   1318   1317   1324   1337     1  0.0000000  0.6508444  3
   1318   1317   1324   1338     1  0.0000000  0.6508444  3
   1319   1317   1318   1329     1  0.0000000  0.6508444  3
   1319   1317   1318   1330     1  0.0000000  0.6508444  3
   1319   1317   1324   1337     1  0.0000000  0.6508444  3
   1319   1317   1324   1338     1  0.0000000  0.6508444  3
   1320   1318   1317   1342     1  0.0000000  0.6508444  3
   1320   1321   2863   2864     1  180.0000771  10.4600000  2
   1321   1320   1318   1329     1  0.0000000  0.6508444  3
   1321   1320   1318   1330     1  0.0000000  0.6508444  3
   1321   2863   2865   2866     1  0.0000000  0.0000000  2
   1321   2863   2865   2868     1  0.0000000  0.0000000  2
   1322   1319   1317   1342     1  0.0000000  0.6508444  3
   1322   1323   2893   2894     1  180.0000771  10.4600000  2
   1323   1322   1319   1331     1  0.0000000  0.6508444  3
   1323   1322   1319   1332     1  0.0000000  0.6508444  3
   1323   2893   2895   2896     1  0.0000000  0.0000000  2
   1323   2893   2895   2898     1  0.0000000  0.0000000  2
   1324   1317   1318   1329     1  0.0000000  0.6508444  3
   1324   1317   1318   1330     1  0.0000000  0.6508444  3
   1324   1317   1319   1331     1  0.0000000  0.6508444  3
   1324   1317   1319   1332     1  0.0000000  0.6508444  3
   1324   1325   1326   1341     1  0.0000000  0.0000000  2
   1325   1324   1317   1342     1  0.0000000  0.6508444  3
   1326   1325   1324   1337     1  0.0000000  0.6508444  3
   1326   1325   1324   1338     1  0.0000000  0.6508444  3
   1327   1321   1320   1333     1  0.0000000  3.3472000  1
   1327   1321   1320   1333     1  0.0000000  0.0000000  2
   1327   1321   1320   1333     1  180.0000771  0.3347200  3
   1327   1321   1320   1334     1  0.0000000  3.3472000  1
   1327   1321   1320   1334     1  0.0000000  0.0000000  2
   1327   1321   1320   1334     1  180.0000771  0.3347200  3
   1327   1321   2863   2864     1  0.0000000  8.3680000  1
   1327   1321   2863   2864     1  180.0000771  10.4600000  2
   1328   1323   1322   1335     1  0.0000000  3.3472000  1
   1328   1323   1322   1335     1  0.0000000  0.0000000  2
   1328   1323   1322   1335     1  180.0000771  0.3347200  3
   1328   1323   1322   1336     1  0.0000000  3.3472000  1
   1328   1323   1322   1336     1  0.0000000  0.0000000  2
   1328   1323   1322   1336     1  180.0000771  0.3347200  3
   1328   1323   2893   2894     1  0.0000000  8.3680000  1
   1328   1323   2893   2894     1  180.0000771  10.4600000  2
   1329   1318   1317   1342     1  0.0000000  0.6508444  3
   1329   1318   1320   1333     1  0.0000000  0.6508444  3
   1329   1318   1320   1334     1  0.0000000  0.6508444  3
   1330   1318   1317   1342     1  0.0000000  0.6508444  3
   1330   1318   1320   1333     1  0.0000000  0.6508444  3
   1330   1318   1320   1334     1  0.0000000  0.6508444  3
   1331   1319   1317   1342     1  0.0000000  0.6508444  3
   1331   1319   1322   1335     1  0.0000000  0.6508444  3
   1331   1319   1322   1336     1  0.0000000  0.6508444  3
   1332   1319   1317   1342     1  0.0000000  0.6508444  3
   1332   1319   1322   1335     1  0.0000000  0.6508444  3
   1332   1319   1322   1336     1  0.0000000  0.6508444  3
   1333   1320   1321   2863     1  180.0000771  0.0000000  2
   1334   1320   1321   2863     1  180.0000771  0.0000000  2
   1335   1322   1323   2893     1  180.0000771  0.0000000  2
   1336   1322   1323   2893     1  180.0000771  0.0000000  2
   1337   1324   1317   1342     1  0.0000000  0.6508444  3
   1337   1324   1325   1339     1  0.0000000  0.6508444  3
   1337   1324   1325   1340     1  0.0000000  0.6508444  3
   1338   1324   1317   1342     1  0.0000000  0.6508444  3
   1338   1324   1325   1339     1  0.0000000  0.6508444  3
   1338   1324   1325   1340     1  0.0000000  0.6508444  3
   1339   1325   1326   1341     1  0.0000000  0.0000000  2
   1340   1325   1326   1341     1  0.0000000  0.0000000  2
   1343   1344   1346   1359     1  0.0000000  0.6508444  3
   1343   1344   1346   1360     1  0.0000000  0.6508444  3
   1343   1345   1348   1361     1  0.0000000  0.6508444  3
   1343   1345   1348   1362     1  0.0000000  0.6508444  3
   1343   1350   1351   1365     1  0.0000000  0.6508444  3
   1343   1350   1351   1366     1  0.0000000  0.6508444  3
   1344   1343   1345   1357     1  0.0000000  0.6508444  3
   1344   1343   1345   1358     1  0.0000000  0.6508444  3
   1344   1343   1350   1363     1  0.0000000  0.6508444  3
   1344   1343   1350   1364     1  0.0000000  0.6508444  3
   1345   1343   1344   1355     1  0.0000000  0.6508444  3
   1345   1343   1344   1356     1  0.0000000  0.6508444  3
   1345   1343   1350   1363     1  0.0000000  0.6508444  3
   1345   1343   1350   1364     1  0.0000000  0.6508444  3
   1346   1344   1343   1368     1  0.0000000  0.6508444  3
   1346   1347   2923   2924     1  180.0000771  10.4600000  2
   1347   1346   1344   1355     1  0.0000000  0.6508444  3
   1347   1346   1344   1356     1  0.0000000  0.6508444  3
   1347   2923   2925   2926     1  0.0000000  0.0000000  2
   1347   2923   2925   2928     1  0.0000000  0.0000000  2
   1348   1345   1343   1368     1  0.0000000  0.6508444  3
   1348   1349   2953   2954     1  180.0000771  10.4600000  2
   1349   1348   1345   1357     1  0.0000000  0.6508444  3
   1349   1348   1345   1358     1  0.0000000  0.6508444  3
   1349   2953   2955   2956     1  0.0000000  0.0000000  2
   1349   2953   2955   2958     1  0.0000000  0.0000000  2
   1350   1343   1344   1355     1  0.0000000  0.6508444  3
   1350   1343   1344   1356     1  0.0000000  0.6508444  3
   1350   1343   1345   1357     1  0.0000000  0.6508444  3
   1350   1343   1345   1358     1  0.0000000  0.6508444  3
   1350   1351   1352   1367     1  0.0000000  0.0000000  2
   1351   1350   1343   1368     1  0.0000000  0.6508444  3
   1352   1351   1350   1363     1  0.0000000  0.6508444  3
   1352   1351   1350   1364     1  0.0000000  0.6508444  3
   1353   1347   1346   1359     1  0.0000000  3.3472000  1
   1353   1347   1346   1359     1  0.0000000  0.0000000  2
   1353   1347   1346   1359     1  180.0000771  0.3347200  3
   1353   1347   1346   1360     1  0.0000000  3.3472000  1
   1353   1347   1346   1360     1  0.0000000  0.0000000  2
   1353   1347   1346   1360     1  180.0000771  0.3347200  3
   1353   1347   2923   2924     1  0.0000000  8.3680000  1
   1353   1347   2923   2924     1  180.0000771  10.4600000  2
   1354   1349   1348   1361     1  0.0000000  3.3472000  1
   1354   1349   1348   1361     1  0.0000000  0.0000000  2
   1354   1349   1348   1361     1  180.0000771  0.3347200  3
   1354   1349   1348   1362     1  0.0000000  3.3472000  1
   1354   1349   1348   1362     1  0.0000000  0.0000000  2
   1354   1349   1348   1362     1  180.0000771  0.3347200  3
   1354   1349   2953   2954     1  0.0000000  8.3680000  1
   1354   1349   2953   2954     1  180.0000771  10.4600000  2
   1355   1344   1343   1368     1  0.0000000  0.6508444  3
   1355   1344   1346   1359     1  0.0000000  0.6508444  3
   1355   1344   1346   1360     1  0.0000000  0.6508444  3
   1356   1344   1343   1368     1  0.0000000  0.6508444  3
   1356   1344   1346   1359     1  0.0000000  0.6508444  3
   1356   1344   1346   1360     1  0.0000000  0.6508444  3
   1357   1345   1343   1368     1  0.0000000  0.6508444  3
   1357   1345   1348   1361     1  0.0000000  0.6508444  3
   1357   1345   1348   1362     1  0.0000000  0.6508444  3
   1358   1345   1343   1368     1  0.0000000  0.6508444  3
   1358   1345   1348   1361     1  0.0000000  0.6508444  3
   1358   1345   1348   1362     1  0.0000000  0.6508444  3
   1359   1346   1347   2923     1  180.0000771  0.0000000  2
   1360   1346   1347   2923     1  180.0000771  0.0000000  2
   1361   1348   1349   2953     1  180.0000771  0.0000000  2
   1362   1348   1349   2953     1  180.0000771  0.0000000  2
   1363   1350   1343   1368     1  0.0000000  0.6508444  3
   1363   1350   1351   1365     1  0.0000000  0.6508444  3
   1363   1350   1351   1366     1  0.0000000  0.6508444  3
   1364   1350   1343   1368     1  0.0000000  0.6508444  3
   1364   1350   1351   1365     1  0.0000000  0.6508444  3
   1364   1350   1351   1366     1  0.0000000  0.6508444  3
   1365   1351   1352   1367     1  0.0000000  0.0000000  2
   1366   1351   1352   1367     1  0.0000000  0.0000000  2
   1369   1370   1372   1385     1  0.0000000  0.6508444  3
   1369   1370   1372   1386     1  0.0000000  0.6508444  3
   1369   1371   1374   1387     1  0.0000000  0.6508444  3
   1369   1371   1374   1388     1  0.0000000  0.6508444  3
   1369   1376   1377   1391     1  0.0000000  0.6508444  3
   1369   1376   1377   1392     1  0.0000000  0.6508444  3
   1370   1369   1371   1383     1  0.0000000  0.6508444  3
   1370   1369   1371   1384     1  0.0000000  0.6508444  3
   1370   1369   1376   1389     1  0.0000000  0.6508444  3
   1370   1369   1376   1390     1  0.0000000  0.6508444  3
   1371   1369   1370   1381     1  0.0000000  0.6508444  3
   1371   1369   1370   1382     1  0.0000000  0.6508444  3
   1371   1369   1376   1389     1  0.0000000  0.6508444  3
   1371   1369   1376   1390     1  0.0000000  0.6508444  3
   1372   1370   1369   1394     1  0.0000000  0.6508444  3
   1372   1373   2983   2984     1  180.0000771  10.4600000  2
   1373   1372   1370   1381     1  0.0000000  0.6508444  3
   1373   1372   1370   1382     1  0.0000000  0.6508444  3
   1373   2983   2985   2986     1  0.0000000  0.0000000  2
   1373   2983   2985   2988     1  0.0000000  0.0000000  2
   1374   1371   1369   1394     1  0.0000000  0.6508444  3
   1374   1375   3013   3014     1  180.0000771  10.4600000  2
   1375   1374   1371   1383     1  0.0000000  0.6508444  3
   1375   1374   1371   1384     1  0.0000000  0.6508444  3
   1375   3013   3015   3016     1  0.0000000  0.0000000  2
   1375   3013   3015   3018     1  0.0000000  0.0000000  2
   1376   1369   1370   1381     1  0.0000000  0.6508444  3
   1376   1369   1370   1382     1  0.0000000  0.6508444  3
   1376   1369   1371   1383     1  0.0000000  0.6508444  3
   1376   1369   1371   1384     1  0.0000000  0.6508444  3
   1376   1377   1378   1393     1  0.0000000  0.0000000  2
   1377   1376   1369   1394     1  0.0000000  0.6508444  3
   1378   1377   1376   1389     1  0.0000000  0.6508444  3
   1378   1377   1376   1390     1  0.0000000  0.6508444  3
   1379   1373   1372   1385     1  0.0000000  3.3472000  1
   1379   1373   1372   1385     1  0.0000000  0.0000000  2
   1379   1373   1372   1385     1  180.0000771  0.3347200  3
   1379   1373   1372   1386     1  0.0000000  3.3472000  1
   1379   1373   1372   1386     1  0.0000000  0.0000000  2
   1379   1373   1372   1386     1  180.0000771  0.3347200  3
   1379   1373   2983   2984     1  0.0000000  8.3680000  1
   1379   1373   2983   2984     1  180.0000771  10.4600000  2
   1380   1375   1374   1387     1  0.0000000  3.3472000  1
   1380   1375   1374   1387     1  0.0000000  0.0000000  2
   1380   1375   1374   1387     1  180.0000771  0.3347200  3
   1380   1375   1374   1388     1  0.0000000  3.3472000  1
   1380   1375   1374   1388     1  0.0000000  0.0000000  2
   1380   1375   1374   1388     1  180.0000771  0.3347200  3
   1380   1375   3013   3014     1  0.0000000  8.3680000  1
   1380   1375   3013   3014     1  180.0000771  10.4600000  2
   1381   1370   1369   1394     1  0.0000000  0.6508444  3
   1381   1370   1372   1385     1  0.0000000  0.6508444  3
   1381   1370   1372   1386     1  0.0000000  0.6508444  3
   1382   1370   1369   1394     1  0.0000000  0.6508444  3
   1382   1370   1372   1385     1  0.0000000  0.6508444  3
   1382   1370   1372   1386     1  0.0000000  0.6508444  3
   1383   1371   1369   1394     1  0.0000000  0.6508444  3
   1383   1371   1374   1387     1  0.0000000  0.6508444  3
   1383   1371   1374   1388     1  0.0000000  0.6508444  3
   1384   1371   1369   1394     1  0.0000000  0.6508444  3
   1384   1371   1374   1387     1  0.0000000  0.6508444  3
   1384   1371   1374   1388     1  0.0000000  0.6508444  3
   1385   1372   1373   2983     1  180.0000771  0.0000000  2
   1386   1372   1373   2983     1  180.0000771  0.0000000  2
   1387   1374   1375   3013     1  180.0000771  0.0000000  2
   1388   1374   1375   3013     1  180.0000771  0.0000000  2
   1389   1376   1369   1394     1  0.0000000  0.6508444  3
   1389   1376   1377   1391     1  0.0000000  0.6508444  3
   1389   1376   1377   1392     1  0.0000000  0.6508444  3
   1390   1376   1369   1394     1  0.0000000  0.6508444  3
   1390   1376   1377   1391     1  0.0000000  0.6508444  3
   1390   1376   1377   1392     1  0.0000000  0.6508444  3
   1391   1377   1378   1393     1  0.0000000  0.0000000  2
   1392   1377   1378   1393     1  0.0000000  0.0000000  2
   1395   1396   1398   1411     1  0.0000000  0.6508444  3
   1395   1396   1398   1412     1  0.0000000  0.6508444  3
   1395   1397   1400   1413     1  0.0000000  0.6508444  3
   1395   1397   1400   1414     1  0.0000000  0.6508444  3
   1395   1402   1403   1417     1  0.0000000  0.6508444  3
   1395   1402   1403   1418     1  0.0000000  0.6508444  3
   1396   1395   1397   1409     1  0.0000000  0.6508444  3
   1396   1395   1397   1410     1  0.0000000  0.6508444  3
   1396   1395   1402   1415     1  0.0000000  0.6508444  3
   1396   1395   1402   1416     1  0.0000000  0.6508444  3
   1397   1395   1396   1407     1  0.0000000  0.6508444  3
   1397   1395   1396   1408     1  0.0000000  0.6508444  3
   1397   1395   1402   1415     1  0.0000000  0.6508444  3
   1397   1395   1402   1416     1  0.0000000  0.6508444  3
   1398   1396   1395   1420     1  0.0000000  0.6508444  3
   1398   1399   3043   3044     1  180.0000771  10.4600000  2
   1399   1398   1396   1407     1  0.0000000  0.6508444  3
   1399   1398   1396   1408     1  0.0000000  0.6508444  3
   1399   3043   3045   3046     1  0.0000000  0.0000000  2
   1399   3043   3045   3048     1  0.0000000  0.0000000  2
   1400   1397   1395   1420     1  0.0000000  0.6508444  3
   1400   1401   3073   3074     1  180.0000771  10.4600000  2
   1401   1400   1397   1409     1  0.0000000  0.6508444  3
   1401   1400   1397   1410     1  0.0000000  0.6508444  3
   1401   3073   3075   3076     1  0.0000000  0.0000000  2
   1401   3073   3075   3078     1  0.0000000  0.0000000  2
   1402   1395   1396   1407     1  0.0000000  0.6508444  3
   1402   1395   1396   1408     1  0.0000000  0.6508444  3
   1402   1395   1397   1409     1  0.0000000  0.6508444  3
   1402   1395   1397   1410     1  0.0000000  0.6508444  3
   1402   1403   1404   1419     1  0.0000000  0.0000000  2
   1403   1402   1395   1420     1  0.0000000  0.6508444  3
   1404   1403   1402   1415     1  0.0000000  0.6508444  3
   1404   1403   1402   1416     1  0.0000000  0.6508444  3
   1405   1399   1398   1411     1  0.0000000  3.3472000  1
   1405   1399   1398   1411     1  0.0000000  0.0000000  2
   1405   1399   1398   1411     1  180.0000771  0.3347200  3
   1405   1399   1398   1412     1  0.0000000  3.3472000  1
   1405   1399   1398   1412     1  0.0000000  0.0000000  2
   1405   1399   1398   1412     1  180.0000771  0.3347200  3
   1405   1399   3043   3044     1  0.0000000  8.3680000  1
   1405   1399   3043   3044     1  180.0000771  10.4600000  2
   1406   1401   1400   1413     1  0.0000000  3.3472000  1
   1406   1401   1400   1413     1  0.0000000  0.0000000  2
   1406   1401   1400   1413     1  180.0000771  0.3347200  3
   1406   1401   1400   1414     1  0.0000000  3.3472000  1
   1406   1401   1400   1414     1  0.0000000  0.0000000  2
   1406   1401   1400   1414     1  180.0000771  0.3347200  3
   1406   1401   3073   3074     1  0.0000000  8.3680000  1
   1406   1401   3073   3074     1  180.0000771  10.4600000  2
   1407   1396   1395   1420     1  0.0000000  0.6508444  3
   1407   1396   1398   1411     1  0.0000000  0.6508444  3
   1407   1396   1398   1412     1  0.0000000  0.6508444  3
   1408   1396   1395   1420     1  0.0000000  0.6508444  3
   1408   1396   1398   1411     1  0.0000000  0.6508444  3
   1408   1396   1398   1412     1  0.0000000  0.6508444  3
   1409   1397   1395   1420     1  0.0000000  0.6508444  3
   1409   1397   1400   1413     1  0.0000000  0.6508444  3
   1409   1397   1400   1414     1  0.0000000  0.6508444  3
   1410   1397   1395   1420     1  0.0000000  0.6508444  3
   1410   1397   1400   1413     1  0.0000000  0.6508444  3
   1410   1397   1400   1414     1  0.0000000  0.6508444  3
   1411   1398   1399   3043     1  180.0000771  0.0000000  2
   1412   1398   1399   3043     1  180.0000771  0.0000000  2
   1413   1400   1401   3073     1  180.0000771  0.0000000  2
   1414   1400   1401   3073     1  180.0000771  0.0000000  2
   1415   1402   1395   1420     1  0.0000000  0.6508444  3
   1415   1402   1403   1417     1  0.0000000  0.6508444  3
   1415   1402   1403   1418     1  0.0000000  0.6508444  3
   1416   1402   1395   1420     1  0.0000000  0.6508444  3
   1416   1402   1403   1417     1  0.0000000  0.6508444  3
   1416   1402   1403   1418     1  0.0000000  0.6508444  3
   1417   1403   1404   1419     1  0.0000000  0.0000000  2
   1418   1403   1404   1419     1  0.0000000  0.0000000  2
   1421   1422   1424   1437     1  0.0000000  0.6508444  3
   1421   1422   1424   1438     1  0.0000000  0.6508444  3
   1421   1423   1426   1439     1  0.0000000  0.6508444  3
   1421   1423   1426   1440     1  0.0000000  0.6508444  3
   1421   1428   1429   1443     1  0.0000000  0.6508444  3
   1421   1428   1429   1444     1  0.0000000  0.6508444  3
   1422   1421   1423   1435     1  0.0000000  0.6508444  3
   1422   1421   1423   1436     1  0.0000000  0.6508444  3
   1422   1421   1428   1441     1  0.0000000  0.6508444  3
   1422   1421   1428   1442     1  0.0000000  0.6508444  3
   1423   1421   1422   1433     1  0.0000000  0.6508444  3
   1423   1421   1422   1434     1  0.0000000  0.6508444  3
   1423   1421   1428   1441     1  0.0000000  0.6508444  3
   1423   1421   1428   1442     1  0.0000000  0.6508444  3
   1424   1422   1421   1446     1  0.0000000  0.6508444  3
   1424   1425   3103   3104     1  180.0000771  10.4600000  2
   1425   1424   1422   1433     1  0.0000000  0.6508444  3
   1425   1424   1422   1434     1  0.0000000  0.6508444  3
   1425   3103   3105   3106     1  0.0000000  0.0000000  2
   1425   3103   3105   3108     1  0.0000000  0.0000000  2
   1426   1423   1421   1446     1  0.0000000  0.6508444  3
   1426   1427   3133   3134     1  180.0000771  10.4600000  2
   1427   1426   1423   1435     1  0.0000000  0.6508444  3
   1427   1426   1423   1436     1  0.0000000  0.6508444  3
   1427   3133   3135   3136     1  0.0000000  0.0000000  2
   1427   3133   3135   3138     1  0.0000000  0.0000000  2
   1428   1421   1422   1433     1  0.0000000  0.6508444  3
   1428   1421   1422   1434     1  0.0000000  0.6508444  3
   1428   1421   1423   1435     1  0.0000000  0.6508444  3
   1428   1421   1423   1436     1  0.0000000  0.6508444  3
   1428   1429   1430   1445     1  0.0000000  0.0000000  2
   1429   1428   1421   1446     1  0.0000000  0.6508444  3
   1430   1429   1428   1441     1  0.0000000  0.6508444  3
   1430   1429   1428   1442     1  0.0000000  0.6508444  3
   1431   1425   1424   1437     1  0.0000000  3.3472000  1
   1431   1425   1424   1437     1  0.0000000  0.0000000  2
   1431   1425   1424   1437     1  180.0000771  0.3347200  3
   1431   1425   1424   1438     1  0.0000000  3.3472000  1
   1431   1425   1424   1438     1  0.0000000  0.0000000  2
   1431   1425   1424   1438     1  180.0000771  0.3347200  3
   1431   1425   3103   3104     1  0.0000000  8.3680000  1
   1431   1425   3103   3104     1  180.0000771  10.4600000  2
   1432   1427   1426   1439     1  0.0000000  3.3472000  1
   1432   1427   1426   1439     1  0.0000000  0.0000000  2
   1432   1427   1426   1439     1  180.0000771  0.3347200  3
   1432   1427   1426   1440     1  0.0000000  3.3472000  1
   1432   1427   1426   1440     1  0.0000000  0.0000000  2
   1432   1427   1426   1440     1  180.0000771  0.3347200  3
   1432   1427   3133   3134     1  0.0000000  8.3680000  1
   1432   1427   3133   3134     1  180.0000771  10.4600000  2
   1433   1422   1421   1446     1  0.0000000  0.6508444  3
   1433   1422   1424   1437     1  0.0000000  0.6508444  3
   1433   1422   1424   1438     1  0.0000000  0.6508444  3
   1434   1422   1421   1446     1  0.0000000  0.6508444  3
   1434   1422   1424   1437     1  0.0000000  0.6508444  3
   1434   1422   1424   1438     1  0.0000000  0.6508444  3
   1435   1423   1421   1446     1  0.0000000  0.6508444  3
   1435   1423   1426   1439     1  0.0000000  0.6508444  3
   1435   1423   1426   1440     1  0.0000000  0.6508444  3
   1436   1423   1421   1446     1  0.0000000  0.6508444  3
   1436   1423   1426   1439     1  0.0000000  0.6508444  3
   1436   1423   1426   1440     1  0.0000000  0.6508444  3
   1437   1424   1425   3103     1  180.0000771  0.0000000  2
   1438   1424   1425   3103     1  180.0000771  0.0000000  2
   1439   1426   1427   3133     1  180.0000771  0.0000000  2
   1440   1426   1427   3133     1  180.0000771  0.0000000  2
   1441   1428   1421   1446     1  0.0000000  0.6508444  3
   1441   1428   1429   1443     1  0.0000000  0.6508444  3
   1441   1428   1429   1444     1  0.0000000  0.6508444  3
   1442   1428   1421   1446     1  0.0000000  0.6508444  3
   1442   1428   1429   1443     1  0.0000000  0.6508444  3
   1442   1428   1429   1444     1  0.0000000  0.6508444  3
   1443   1429   1430   1445     1  0.0000000  0.0000000  2
   1444   1429   1430   1445     1  0.0000000  0.0000000  2
   1447   1448   1450   1463     1  0.0000000  0.6508444  3
   1447   1448   1450   1464     1  0.0000000  0.6508444  3
   1447   1449   1452   1465     1  0.0000000  0.6508444  3
   1447   1449   1452   1466     1  0.0000000  0.6508444  3
   1447   1454   1455   1469     1  0.0000000  0.6508444  3
   1447   1454   1455   1470     1  0.0000000  0.6508444  3
   1448   1447   1449   1461     1  0.0000000  0.6508444  3
   1448   1447   1449   1462     1  0.0000000  0.6508444  3
   1448   1447   1454   1467     1  0.0000000  0.6508444  3
   1448   1447   1454   1468     1  0.0000000  0.6508444  3
   1449   1447   1448   1459     1  0.0000000  0.6508444  3
   1449   1447   1448   1460     1  0.0000000  0.6508444  3
   1449   1447   1454   1467     1  0.0000000  0.6508444  3
   1449   1447   1454   1468     1  0.0000000  0.6508444  3
   1450   1448   1447   1472     1  0.0000000  0.6508444  3
   1450   1451   3163   3164     1  180.0000771  10.4600000  2
   1451   1450   1448   1459     1  0.0000000  0.6508444  3
   1451   1450   1448   1460     1  0.0000000  0.6508444  3
   1451   3163   3165   3166     1  0.0000000  0.0000000  2
   1451   3163   3165   3168     1  0.0000000  0.0000000  2
   1452   1449   1447   1472     1  0.0000000  0.6508444  3
   1452   1453   3193   3194     1  180.0000771  10.4600000  2
   1453   1452   1449   1461     1  0.0000000  0.6508444  3
   1453   1452   1449   1462     1  0.0000000  0.6508444  3
   1453   3193   3195   3196     1  0.0000000  0.0000000  2
   1453   3193   3195   3198     1  0.0000000  0.0000000  2
   1454   1447   1448   1459     1  0.0000000  0.6508444  3
   1454   1447   1448   1460     1  0.0000000  0.6508444  3
   1454   1447   1449   1461     1  0.0000000  0.6508444  3
   1454   1447   1449   1462     1  0.0000000  0.6508444  3
   1454   1455   1456   1471     1  0.0000000  0.0000000  2
   1455   1454   1447   1472     1  0.0000000  0.6508444  3
   1456   1455   1454   1467     1  0.0000000  0.6508444  3
   1456   1455   1454   1468     1  0.0000000  0.6508444  3
   1457   1451   1450   1463     1  0.0000000  3.3472000  1
   1457   1451   1450   1463     1  0.0000000  0.0000000  2
   1457   1451   1450   1463     1  180.0000771  0.3347200  3
   1457   1451   1450   1464     1  0.0000000  3.3472000  1
   1457   1451   1450   1464     1  0.0000000  0.0000000  2
   1457   1451   1450   1464     1  180.0000771  0.3347200  3
   1457   1451   3163   3164     1  0.0000000  8.3680000  1
   1457   1451   3163   3164     1  180.0000771  10.4600000  2
   1458   1453   1452   1465     1  0.0000000  3.3472000  1
   1458   1453   1452   1465     1  0.0000000  0.0000000  2
   1458   1453   1452   1465     1  180.0000771  0.3347200  3
   1458   1453   1452   1466     1  0.0000000  3.3472000  1
   1458   1453   1452   1466     1  0.0000000  0.0000000  2
   1458   1453   1452   1466     1  180.0000771  0.3347200  3
   1458   1453   3193   3194     1  0.0000000  8.3680000  1
   1458   1453   3193   3194     1  180.0000771  10.4600000  2
   1459   1448   1447   1472     1  0.0000000  0.6508444  3
   1459   1448   1450   1463     1  0.0000000  0.6508444  3
   1459   1448   1450   1464     1  0.0000000  0.6508444  3
   1460   1448   1447   1472     1  0.0000000  0.6508444  3
   1460   1448   1450   1463     1  0.0000000  0.6508444  3
   1460   1448   1450   1464     1  0.0000000  0.6508444  3
   1461   1449   1447   1472     1  0.0000000  0.6508444  3
   1461   1449   1452   1465     1  0.0000000  0.6508444  3
   1461   1449   1452   1466     1  0.0000000  0.6508444  3
   1462   1449   1447   1472     1  0.0000000  0.6508444  3
   1462   1449   1452   1465     1  0.0000000  0.6508444  3
   1462   1449   1452   1466     1  0.0000000  0.6508444  3
   1463   1450   1451   3163     1  180.0000771  0.0000000  2
   1464   1450   1451   3163     1  180.0000771  0.0000000  2
   1465   1452   1453   3193     1  180.0000771  0.0000000  2
   1466   1452   1453   3193     1  180.0000771  0.0000000  2
   1467   1454   1447   1472     1  0.0000000  0.6508444  3
   1467   1454   1455   1469     1  0.0000000  0.6508444  3
   1467   1454   1455   1470     1  0.0000000  0.6508444  3
   1468   1454   1447   1472     1  0.0000000  0.6508444  3
   1468   1454   1455   1469     1  0.0000000  0.6508444  3
   1468   1454   1455   1470     1  0.0000000  0.6508444  3
   1469   1455   1456   1471     1  0.0000000  0.0000000  2
   1470   1455   1456   1471     1  0.0000000  0.0000000  2
   1473   1474   1476   1489     1  0.0000000  0.6508444  3
   1473   1474   1476   1490     1  0.0000000  0.6508444  3
   1473   1475   1478   1491     1  0.0000000  0.6508444  3
   1473   1475   1478   1492     1  0.0000000  0.6508444  3
   1473   1480   1481   1495     1  0.0000000  0.6508444  3
   1473   1480   1481   1496     1  0.0000000  0.6508444  3
   1474   1473   1475   1487     1  0.0000000  0.6508444  3
   1474   1473   1475   1488     1  0.0000000  0.6508444  3
   1474   1473   1480   1493     1  0.0000000  0.6508444  3
   1474   1473   1480   1494     1  0.0000000  0.6508444  3
   1475   1473   1474   1485     1  0.0000000  0.6508444  3
   1475   1473   1474   1486     1  0.0000000  0.6508444  3
   1475   1473   1480   1493     1  0.0000000  0.6508444  3
   1475   1473   1480   1494     1  0.0000000  0.6508444  3
   1476   1474   1473   1498     1  0.0000000  0.6508444  3
   1476   1477   3223   3224     1  180.0000771  10.4600000  2
   1477   1476   1474   1485     1  0.0000000  0.6508444  3
   1477   1476   1474   1486     1  0.0000000  0.6508444  3
   1477   3223   3225   3226     1  0.0000000  0.0000000  2
   1477   3223   3225   3228     1  0.0000000  0.0000000  2
   1478   1475   1473   1498     1  0.0000000  0.6508444  3
   1478   1479   3253   3254     1  180.0000771  10.4600000  2
   1479   1478   1475   1487     1  0.0000000  0.6508444  3
   1479   1478   1475   1488     1  0.0000000  0.6508444  3
   1479   3253   3255   3256     1  0.0000000  0.0000000  2
   1479   3253   3255   3258     1  0.0000000  0.0000000  2
   1480   1473   1474   1485     1  0.0000000  0.6508444  3
   1480   1473   1474   1486     1  0.0000000  0.6508444  3
   1480   1473   1475   1487     1  0.0000000  0.6508444  3
   1480   1473   1475   1488     1  0.0000000  0.6508444  3
   1480   1481   1482   1497     1  0.0000000  0.0000000  2
   1481   1480   1473   1498     1  0.0000000  0.6508444  3
   1482   1481   1480   1493     1  0.0000000  0.6508444  3
   1482   1481   1480   1494     1  0.0000000  0.6508444  3
   1483   1477   1476   1489     1  0.0000000  3.3472000  1
   1483   1477   1476   1489     1  0.0000000  0.0000000  2
   1483   1477   1476   1489     1  180.0000771  0.3347200  3
   1483   1477   1476   1490     1  0.0000000  3.3472000  1
   1483   1477   1476   1490     1  0.0000000  0.0000000  2
   1483   1477   1476   1490     1  180.0000771  0.3347200  3
   1483   1477   3223   3224     1  0.0000000  8.3680000  1
   1483   1477   3223   3224     1  180.0000771  10.4600000  2
   1484   1479   1478   1491     1  0.0000000  3.3472000  1
   1484   1479   1478   1491     1  0.0000000  0.0000000  2
   1484   1479   1478   1491     1  180.0000771  0.3347200  3
   1484   1479   1478   1492     1  0.0000000  3.3472000  1
   1484   1479   1478   1492     1  0.0000000  0.0000000  2
   1484   1479   1478   1492     1  180.0000771  0.3347200  3
   1484   1479   3253   3254     1  0.0000000  8.3680000  1
   1484   1479   3253   3254     1  180.0000771  10.4600000  2
   1485   1474   1473   1498     1  0.0000000  0.6508444  3
   1485   1474   1476   1489     1  0.0000000  0.6508444  3
   1485   1474   1476   1490     1  0.0000000  0.6508444  3
   1486   1474   1473   1498     1  0.0000000  0.6508444  3
   1486   1474   1476   1489     1  0.0000000  0.6508444  3
   1486   1474   1476   1490     1  0.0000000  0.6508444  3
   1487   1475   1473   1498     1  0.0000000  0.6508444  3
   1487   1475   1478   1491     1  0.0000000  0.6508444  3
   1487   1475   1478   1492     1  0.0000000  0.6508444  3
   1488   1475   1473   1498     1  0.0000000  0.6508444  3
   1488   1475   1478   1491     1  0.0000000  0.6508444  3
   1488   1475   1478   1492     1  0.0000000  0.6508444  3
   1489   1476   1477   3223     1  180.0000771  0.0000000  2
   1490   1476   1477   3223     1  180.0000771  0.0000000  2
   1491   1478   1479   3253     1  180.0000771  0.0000000  2
   1492   1478   1479   3253     1  180.0000771  0.0000000  2
   1493   1480   1473   1498     1  0.0000000  0.6508444  3
   1493   1480   1481   1495     1  0.0000000  0.6508444  3
   1493   1480   1481   1496     1  0.0000000  0.6508444  3
   1494   1480   1473   1498     1  0.0000000  0.6508444  3
   1494   1480   1481   1495     1  0.0000000  0.6508444  3
   1494   1480   1481   1496     1  0.0000000  0.6508444  3
   1495   1481   1482   1497     1  0.0000000  0.0000000  2
   1496   1481   1482   1497     1  0.0000000  0.0000000  2
   1499   1500   1502   1515     1  0.0000000  0.6508444  3
   1499   1500   1502   1516     1  0.0000000  0.6508444  3
   1499   1501   1504   1517     1  0.0000000  0.6508444  3
   1499   1501   1504   1518     1  0.0000000  0.6508444  3
   1499   1506   1507   1521     1  0.0000000  0.6508444  3
   1499   1506   1507   1522     1  0.0000000  0.6508444  3
   1500   1499   1501   1513     1  0.0000000  0.6508444  3
   1500   1499   1501   1514     1  0.0000000  0.6508444  3
   1500   1499   1506   1519     1  0.0000000  0.6508444  3
   1500   1499   1506   1520     1  0.0000000  0.6508444  3
   1501   1499   1500   1511     1  0.0000000  0.6508444  3
   1501   1499   1500   1512     1  0.0000000  0.6508444  3
   1501   1499   1506   1519     1  0.0000000  0.6508444  3
   1501   1499   1506   1520     1  0.0000000  0.6508444  3
   1502   1500   1499   1524     1  0.0000000  0.6508444  3
   1502   1503   3283   3284     1  180.0000771  10.4600000  2
   1503   1502   1500   1511     1  0.0000000  0.6508444  3
   1503   1502   1500   1512     1  0.0000000  0.6508444  3
   1503   3283   3285   3286     1  0.0000000  0.0000000  2
   1503   3283   3285   3288     1  0.0000000  0.0000000  2
   1504   1501   1499   1524     1  0.0000000  0.6508444  3
   1504   1505   3313   3314     1  180.0000771  10.4600000  2
   1505   1504   1501   1513     1  0.0000000  0.6508444  3
   1505   1504   1501   1514     1  0.0000000  0.6508444  3
   1505   3313   3315   3316     1  0.0000000  0.0000000  2
   1505   3313   3315   3318     1  0.0000000  0.0000000  2
   1506   1499   1500   1511     1  0.0000000  0.6508444  3
   1506   1499   1500   1512     1  0.0000000  0.6508444  3
   1506   1499   1501   1513     1  0.0000000  0.6508444  3
   1506   1499   1501   1514     1  0.0000000  0.6508444  3
   1506   1507   1508   1523     1  0.0000000  0.0000000  2
   1507   1506   1499   1524     1  0.0000000  0.6508444  3
   1508   1507   1506   1519     1  0.0000000  0.6508444  3
   1508   1507   1506   1520     1  0.0000000  0.6508444  3
   1509   1503   1502   1515     1  0.0000000  3.3472000  1
   1509   1503   1502   1515     1  0.0000000  0.0000000  2
   1509   1503   1502   1515     1  180.0000771  0.3347200  3
   1509   1503   1502   1516     1  0.0000000  3.3472000  1
   1509   1503   1502   1516     1  0.0000000  0.0000000  2
   1509   1503   1502   1516     1  180.0000771  0.3347200  3
   1509   1503   3283   3284     1  0.0000000  8.3680000  1
   1509   1503   3283   3284     1  180.0000771  10.4600000  2
   1510   1505   1504   1517     1  0.0000000  3.3472000  1
   1510   1505   1504   1517     1  0.0000000  0.0000000  2
   1510   1505   1504   1517     1  180.0000771  0.3347200  3
   1510   1505   1504   1518     1  0.0000000  3.3472000  1
   1510   1505   1504   1518     1  0.0000000  0.0000000  2
   1510   1505   1504   1518     1  180.0000771  0.3347200  3
   1510   1505   3313   3314     1  0.0000000  8.3680000  1
   1510   1505   3313   3314     1  180.0000771  10.4600000  2
   1511   1500   1499   1524     1  0.0000000  0.6508444  3
   1511   1500   1502   1515     1  0.0000000  0.6508444  3
   1511   1500   1502   1516     1  0.0000000  0.6508444  3
   1512   1500   1499   1524     1  0.0000000  0.6508444  3
   1512   1500   1502   1515     1  0.0000000  0.6508444  3
   1512   1500   1502   1516     1  0.0000000  0.6508444  3
   1513   1501   1499   1524     1  0.0000000  0.6508444  3
   1513   1501   1504   1517     1  0.0000000  0.6508444  3
   1513   1501   1504   1518     1  0.0000000  0.6508444  3
   1514   1501   1499   1524     1  0.0000000  0.6508444  3
   1514   1501   1504   1517     1  0.0000000  0.6508444  3
   1514   1501   1504   1518     1  0.0000000  0.6508444  3
   1515   1502   1503   3283     1  180.0000771  0.0000000  2
   1516   1502   1503   3283     1  180.0000771  0.0000000  2
   1517   1504   1505   3313     1  180.0000771  0.0000000  2
   1518   1504   1505   3313     1  180.0000771  0.0000000  2
   1519   1506   1499   1524     1  0.0000000  0.6508444  3
   1519   1506   1507   1521     1  0.0000000  0.6508444  3
   1519   1506   1507   1522     1  0.0000000  0.6508444  3
   1520   1506   1499   1524     1  0.0000000  0.6508444  3
   1520   1506   1507   1521     1  0.0000000  0.6508444  3
   1520   1506   1507   1522     1  0.0000000  0.6508444  3
   1521   1507   1508   1523     1  0.0000000  0.0000000  2
   1522   1507   1508   1523     1  0.0000000  0.0000000  2
   1525   1526   1528   1541     1  0.0000000  0.6508444  3
   1525   1526   1528   1542     1  0.0000000  0.6508444  3
   1525   1527   1530   1543     1  0.0000000  0.6508444  3
   1525   1527   1530   1544     1  0.0000000  0.6508444  3
   1525   1532   1533   1547     1  0.0000000  0.6508444  3
   1525   1532   1533   1548     1  0.0000000  0.6508444  3
   1526   1525   1527   1539     1  0.0000000  0.6508444  3
   1526   1525   1527   1540     1  0.0000000  0.6508444  3
   1526   1525   1532   1545     1  0.0000000  0.6508444  3
   1526   1525   1532   1546     1  0.0000000  0.6508444  3
   1527   1525   1526   1537     1  0.0000000  0.6508444  3
   1527   1525   1526   1538     1  0.0000000  0.6508444  3
   1527   1525   1532   1545     1  0.0000000  0.6508444  3
   1527   1525   1532   1546     1  0.0000000  0.6508444  3
   1528   1526   1525   1550     1  0.0000000  0.6508444  3
   1528   1529   3343   3344     1  180.0000771  10.4600000  2
   1529   1528   1526   1537     1  0.0000000  0.6508444  3
   1529   1528   1526   1538     1  0.0000000  0.6508444  3
   1529   3343   3345   3346     1  0.0000000  0.0000000  2
   1529   3343   3345   3348     1  0.0000000  0.0000000  2
   1530   1527   1525   1550     1  0.0000000  0.6508444  3
   1530   1531   3373   3374     1  180.0000771  10.4600000  2
   1531   1530   1527   1539     1  0.0000000  0.6508444  3
   1531   1530   1527   1540     1  0.0000000  0.6508444  3
   1531   3373   3375   3376     1  0.0000000  0.0000000  2
   1531   3373   3375   3378     1  0.0000000  0.0000000  2
   1532   1525   1526   1537     1  0.0000000  0.6508444  3
   1532   1525   1526   1538     1  0.0000000  0.6508444  3
   1532   1525   1527   1539     1  0.0000000  0.6508444  3
   1532   1525   1527   1540     1  0.0000000  0.6508444  3
   1532   1533   1534   1549     1  0.0000000  0.0000000  2
   1533   1532   1525   1550     1  0.0000000  0.6508444  3
   1534   1533   1532   1545     1  0.0000000  0.6508444  3
   1534   1533   1532   1546     1  0.0000000  0.6508444  3
   1535   1529   1528   1541     1  0.0000000  3.3472000  1
   1535   1529   1528   1541     1  0.0000000  0.0000000  2
   1535   1529   1528   1541     1  180.0000771  0.3347200  3
   1535   1529   1528   1542     1  0.0000000  3.3472000  1
   1535   1529   1528   1542     1  0.0000000  0.0000000  2
   1535   1529   1528   1542     1  180.0000771  0.3347200  3
   1535   1529   3343   3344     1  0.0000000  8.3680000  1
   1535   1529   3343   3344     1  180.0000771  10.4600000  2
   1536   1531   1530   1543     1  0.0000000  3.3472000  1
   1536   1531   1530   1543     1  0.0000000  0.0000000  2
   1536   1531   1530   1543     1  180.0000771  0.3347200  3
   1536   1531   1530   1544     1  0.0000000  3.3472000  1
   1536   1531   1530   1544     1  0.0000000  0.0000000  2
   1536   1531   1530   1544     1  180.0000771  0.3347200  3
   1536   1531   3373   3374     1  0.0000000  8.3680000  1
   1536   1531   3373   3374     1  180.0000771  10.4600000  2
   1537   1526   1525   1550     1  0.0000000  0.6508444  3
   1537   1526   1528   1541     1  0.0000000  0.6508444  3
   1537   1526   1528   1542     1  0.0000000  0.6508444  3
   1538   1526   1525   1550     1  0.0000000  0.6508444  3
   1538   1526   1528   1541     1  0.0000000  0.6508444  3
   1538   1526   1528   1542     1  0.0000000  0.6508444  3
   1539   1527   1525   1550     1  0.0000000  0.6508444  3
   1539   1527   1530   1543     1  0.0000000  0.6508444  3
   1539   1527   1530   1544     1  0.0000000  0.6508444  3
   1540   1527   1525   1550     1  0.0000000  0.6508444  3
   1540   1527   1530   1543     1  0.0000000  0.6508444  3
   1540   1527   1530   1544     1  0.0000000  0.6508444  3
   1541   1528   1529   3343     1  180.0000771  0.0000000  2
   1542   1528   1529   3343     1  180.0000771  0.0000000  2
   1543   1530   1531   3373     1  180.0000771  0.0000000  2
   1544   1530   1531   3373     1  180.0000771  0.0000000  2
   1545   1532   1525   1550     1  0.0000000  0.6508444  3
   1545   1532   1533   1547     1  0.0000000  0.6508444  3
   1545   1532   1533   1548     1  0.0000000  0.6508444  3
   1546   1532   1525   1550     1  0.0000000  0.6508444  3
   1546   1532   1533   1547     1  0.0000000  0.6508444  3
   1546   1532   1533   1548     1  0.0000000  0.6508444  3
   1547   1533   1534   1549     1  0.0000000  0.0000000  2
   1548   1533   1534   1549     1  0.0000000  0.0000000  2
   1551   1552   1554   1567     1  0.0000000  0.6508444  3
   1551   1552   1554   1568     1  0.0000000  0.6508444  3
   1551   1553   1556   1569     1  0.0000000  0.6508444  3
   1551   1553   1556   1570     1  0.0000000  0.6508444  3
   1551   1558   1559   1573     1  0.0000000  0.6508444  3
   1551   1558   1559   1574     1  0.0000000  0.6508444  3
   1552   1551   1553   1565     1  0.0000000  0.6508444  3
   1552   1551   1553   1566     1  0.0000000  0.6508444  3
   1552   1551   1558   1571     1  0.0000000  0.6508444  3
   1552   1551   1558   1572     1  0.0000000  0.6508444  3
   1553   1551   1552   1563     1  0.0000000  0.6508444  3
   1553   1551   1552   1564     1  0.0000000  0.6508444  3
   1553   1551   1558   1571     1  0.0000000  0.6508444  3
   1553   1551   1558   1572     1  0.0000000  0.6508444  3
   1554   1552   1551   1576     1  0.0000000  0.6508444  3
   1554   1555   3403   3404     1  180.0000771  10.4600000  2
   1555   1554   1552   1563     1  0.0000000  0.6508444  3
   1555   1554   1552   1564     1  0.0000000  0.6508444  3
   1555   3403   3405   3406     1  0.0000000  0.0000000  2
   1555   3403   3405   3408     1  0.0000000  0.0000000  2
   1556   1553   1551   1576     1  0.0000000  0.6508444  3
   1556   1557   3433   3434     1  180.0000771  10.4600000  2
   1557   1556   1553   1565     1  0.0000000  0.6508444  3
   1557   1556   1553   1566     1  0.0000000  0.6508444  3
   1557   3433   3435   3436     1  0.0000000  0.0000000  2
   1557   3433   3435   3438     1  0.0000000  0.0000000  2
   1558   1551   1552   1563     1  0.0000000  0.6508444  3
   1558   1551   1552   1564     1  0.0000000  0.6508444  3
   1558   1551   1553   1565     1  0.0000000  0.6508444  3
   1558   1551   1553   1566     1  0.0000000  0.6508444  3
   1558   1559   1560   1575     1  0.0000000  0.0000000  2
   1559   1558   1551   1576     1  0.0000000  0.6508444  3
   1560   1559   1558   1571     1  0.0000000  0.6508444  3
   1560   1559   1558   1572     1  0.0000000  0.6508444  3
   1561   1555   1554   1567     1  0.0000000  3.3472000  1
   1561   1555   1554   1567     1  0.0000000  0.0000000  2
   1561   1555   1554   1567     1  180.0000771  0.3347200  3
   1561   1555   1554   1568     1  0.0000000  3.3472000  1
   1561   1555   1554   1568     1  0.0000000  0.0000000  2
   1561   1555   1554   1568     1  180.0000771  0.3347200  3
   1561   1555   3403   3404     1  0.0000000  8.3680000  1
   1561   1555   3403   3404     1  180.0000771  10.4600000  2
   1562   1557   1556   1569     1  0.0000000  3.3472000  1
   1562   1557   1556   1569     1  0.0000000  0.0000000  2
   1562   1557   1556   1569     1  180.0000771  0.3347200  3
   1562   1557   1556   1570     1  0.0000000  3.3472000  1
   1562   1557   1556   1570     1  0.0000000  0.0000000  2
   1562   1557   1556   1570     1  180.0000771  0.3347200  3
   1562   1557   3433   3434     1  0.0000000  8.3680000  1
   1562   1557   3433   3434     1  180.0000771  10.4600000  2
   1563   1552   1551   1576     1  0.0000000  0.6508444  3
   1563   1552   1554   1567     1  0.0000000  0.6508444  3
   1563   1552   1554   1568     1  0.0000000  0.6508444  3
   1564   1552   1551   1576     1  0.0000000  0.6508444  3
   1564   1552   1554   1567     1  0.0000000  0.6508444  3
   1564   1552   1554   1568     1  0.0000000  0.6508444  3
   1565   1553   1551   1576     1  0.0000000  0.6508444  3
   1565   1553   1556   1569     1  0.0000000  0.6508444  3
   1565   1553   1556   1570     1  0.0000000  0.6508444  3
   1566   1553   1551   1576     1  0.0000000  0.6508444  3
   1566   1553   1556   1569     1  0.0000000  0.6508444  3
   1566   1553   1556   1570     1  0.0000000  0.6508444  3
   1567   1554   1555   3403     1  180.0000771  0.0000000  2
   1568   1554   1555   3403     1  180.0000771  0.0000000  2
   1569   1556   1557   3433     1  180.0000771  0.0000000  2
   1570   1556   1557   3433     1  180.0000771  0.0000000  2
   1571   1558   1551   1576     1  0.0000000  0.6508444  3
   1571   1558   1559   1573     1  0.0000000  0.6508444  3
   1571   1558   1559   1574     1  0.0000000  0.6508444  3
   1572   1558   1551   1576     1  0.0000000  0.6508444  3
   1572   1558   1559   1573     1  0.0000000  0.6508444  3
   1572   1558   1559   1574     1  0.0000000  0.6508444  3
   1573   1559   1560   1575     1  0.0000000  0.0000000  2
   1574   1559   1560   1575     1  0.0000000  0.0000000  2
   1577   1578   1580   1593     1  0.0000000  0.6508444  3
   1577   1578   1580   1594     1  0.0000000  0.6508444  3
   1577   1579   1582   1595     1  0.0000000  0.6508444  3
   1577   1579   1582   1596     1  0.0000000  0.6508444  3
   1577   1584   1585   1599     1  0.0000000  0.6508444  3
   1577   1584   1585   1600     1  0.0000000  0.6508444  3
   1578   1577   1579   1591     1  0.0000000  0.6508444  3
   1578   1577   1579   1592     1  0.0000000  0.6508444  3
   1578   1577   1584   1597     1  0.0000000  0.6508444  3
   1578   1577   1584   1598     1  0.0000000  0.6508444  3
   1579   1577   1578   1589     1  0.0000000  0.6508444  3
   1579   1577   1578   1590     1  0.0000000  0.6508444  3
   1579   1577   1584   1597     1  0.0000000  0.6508444  3
   1579   1577   1584   1598     1  0.0000000  0.6508444  3
   1580   1578   1577   1602     1  0.0000000  0.6508444  3
   1580   1581   3463   3464     1  180.0000771  10.4600000  2
   1581   1580   1578   1589     1  0.0000000  0.6508444  3
   1581   1580   1578   1590     1  0.0000000  0.6508444  3
   1581   3463   3465   3466     1  0.0000000  0.0000000  2
   1581   3463   3465   3468     1  0.0000000  0.0000000  2
   1582   1579   1577   1602     1  0.0000000  0.6508444  3
   1582   1583   3493   3494     1  180.0000771  10.4600000  2
   1583   1582   1579   1591     1  0.0000000  0.6508444  3
   1583   1582   1579   1592     1  0.0000000  0.6508444  3
   1583   3493   3495   3496     1  0.0000000  0.0000000  2
   1583   3493   3495   3498     1  0.0000000  0.0000000  2
   1584   1577   1578   1589     1  0.0000000  0.6508444  3
   1584   1577   1578   1590     1  0.0000000  0.6508444  3
   1584   1577   1579   1591     1  0.0000000  0.6508444  3
   1584   1577   1579   1592     1  0.0000000  0.6508444  3
   1584   1585   1586   1601     1  0.0000000  0.0000000  2
   1585   1584   1577   1602     1  0.0000000  0.6508444  3
   1586   1585   1584   1597     1  0.0000000  0.6508444  3
   1586   1585   1584   1598     1  0.0000000  0.6508444  3
   1587   1581   1580   1593     1  0.0000000  3.3472000  1
   1587   1581   1580   1593     1  0.0000000  0.0000000  2
   1587   1581   1580   1593     1  180.0000771  0.3347200  3
   1587   1581   1580   1594     1  0.0000000  3.3472000  1
   1587   1581   1580   1594     1  0.0000000  0.0000000  2
   1587   1581   1580   1594     1  180.0000771  0.3347200  3
   1587   1581   3463   3464     1  0.0000000  8.3680000  1
   1587   1581   3463   3464     1  180.0000771  10.4600000  2
   1588   1583   1582   1595     1  0.0000000  3.3472000  1
   1588   1583   1582   1595     1  0.0000000  0.0000000  2
   1588   1583   1582   1595     1  180.0000771  0.3347200  3
   1588   1583   1582   1596     1  0.0000000  3.3472000  1
   1588   1583   1582   1596     1  0.0000000  0.0000000  2
   1588   1583   1582   1596     1  180.0000771  0.3347200  3
   1588   1583   3493   3494     1  0.0000000  8.3680000  1
   1588   1583   3493   3494     1  180.0000771  10.4600000  2
   1589   1578   1577   1602     1  0.0000000  0.6508444  3
   1589   1578   1580   1593     1  0.0000000  0.6508444  3
   1589   1578   1580   1594     1  0.0000000  0.6508444  3
   1590   1578   1577   1602     1  0.0000000  0.6508444  3
   1590   1578   1580   1593     1  0.0000000  0.6508444  3
   1590   1578   1580   1594     1  0.0000000  0.6508444  3
   1591   1579   1577   1602     1  0.0000000  0.6508444  3
   1591   1579   1582   1595     1  0.0000000  0.6508444  3
   1591   1579   1582   1596     1  0.0000000  0.6508444  3
   1592   1579   1577   1602     1  0.0000000  0.6508444  3
   1592   1579   1582   1595     1  0.0000000  0.6508444  3
   1592   1579   1582   1596     1  0.0000000  0.6508444  3
   1593   1580   1581   3463     1  180.0000771  0.0000000  2
   1594   1580   1581   3463     1  180.0000771  0.0000000  2
   1595   1582   1583   3493     1  180.0000771  0.0000000  2
   1596   1582   1583   3493     1  180.0000771  0.0000000  2
   1597   1584   1577   1602     1  0.0000000  0.6508444  3
   1597   1584   1585   1599     1  0.0000000  0.6508444  3
   1597   1584   1585   1600     1  0.0000000  0.6508444  3
   1598   1584   1577   1602     1  0.0000000  0.6508444  3
   1598   1584   1585   1599     1  0.0000000  0.6508444  3
   1598   1584   1585   1600     1  0.0000000  0.6508444  3
   1599   1585   1586   1601     1  0.0000000  0.0000000  2
   1600   1585   1586   1601     1  0.0000000  0.0000000  2
   1603   1605   1607   1609     1  0.0000000  0.6508444  3
   1603   1605   1607   1610     1  0.0000000  0.6508444  3
   1604   1603   1605   1607     1  0.0000000  0.0000000  2
   1604   1603   1605   1606     1  0.0000000  0.0000000  2
   1604   1603   1605   1608     1  0.0000000  0.0000000  2
   1605   1607   1611   1632     1  0.0000000  0.6508444  3
   1606   1605   1607   1611     1  0.0000000  0.6508444  3
   1606   1605   1607   1609     1  0.0000000  0.6508444  3
   1606   1605   1607   1610     1  0.0000000  0.6508444  3
   1607   1611   1612   1622     1  0.0000000  0.6508444  3
   1607   1611   1612   1623     1  0.0000000  0.6508444  3
   1607   1611   1613   1614     1  0.0000000  0.6508444  3
   1607   1611   1613   1616     1  0.0000000  0.6508444  3
   1608   1605   1607   1611     1  0.0000000  0.6508444  3
   1608   1605   1607   1609     1  0.0000000  0.6508444  3
   1608   1605   1607   1610     1  0.0000000  0.6508444  3
   1609   1607   1611   1612     1  0.0000000  0.6508444  3
   1609   1607   1611   1613     1  0.0000000  0.6508444  3
   1609   1607   1611   1632     1  0.0000000  0.6508444  3
   1610   1607   1611   1612     1  0.0000000  0.6508444  3
   1610   1607   1611   1613     1  0.0000000  0.6508444  3
   1610   1607   1611   1632     1  0.0000000  0.6508444  3
   1611   1612   1624   1625     1  0.0000000  0.6508444  3
   1611   1612   1624   1626     1  0.0000000  0.6508444  3
   1611   1613   1615   1617     1  0.0000000  0.6508444  3
   1611   1613   1615   1618     1  0.0000000  0.6508444  3
   1612   1611   1613   1614     1  0.0000000  0.6508444  3
   1612   1611   1613   1616     1  0.0000000  0.6508444  3
   1613   1611   1612   1622     1  0.0000000  0.6508444  3
   1613   1611   1612   1623     1  0.0000000  0.6508444  3
   1614   1613   1611   1632     1  0.0000000  0.6508444  3
   1614   1613   1615   1619     1  0.0000000  0.6508444  3
   1614   1613   1615   1617     1  0.0000000  0.6508444  3
   1614   1613   1615   1618     1  0.0000000  0.6508444  3
   1615   1613   1611   1632     1  0.0000000  0.6508444  3
   1615   1619   1620   1630     1  180.0000771  9.6232000  2
   1616   1613   1611   1632     1  0.0000000  0.6508444  3
   1616   1613   1615   1619     1  0.0000000  0.6508444  3
   1616   1613   1615   1617     1  0.0000000  0.6508444  3
   1616   1613   1615   1618     1  0.0000000  0.6508444  3
   1617   1615   1619   1620     1  180.0000771  0.0000000  2
   1617   1615   1619   1621     1  0.0000000  3.3472000  1
   1617   1615   1619   1621     1  0.0000000  0.0000000  2
   1617   1615   1619   1621     1  180.0000771  0.3347200  3
   1618   1615   1619   1620     1  180.0000771  0.0000000  2
   1618   1615   1619   1621     1  0.0000000  3.3472000  1
   1618   1615   1619   1621     1  0.0000000  0.0000000  2
   1618   1615   1619   1621     1  180.0000771  0.3347200  3
   1621   1619   1620   1630     1  0.0000000  7.9496000  1
   1621   1619   1620   1630     1  180.0000771  9.6232000  2
   1622   1612   1611   1632     1  0.0000000  0.6508444  3
   1622   1612   1624   1627     1  0.0000000  0.6508444  3
   1622   1612   1624   1625     1  0.0000000  0.6508444  3
   1622   1612   1624   1626     1  0.0000000  0.6508444  3
   1623   1612   1611   1632     1  0.0000000  0.6508444  3
   1623   1612   1624   1627     1  0.0000000  0.6508444  3
   1623   1612   1624   1625     1  0.0000000  0.6508444  3
   1623   1612   1624   1626     1  0.0000000  0.6508444  3
   1624   1612   1611   1632     1  0.0000000  0.6508444  3
   1624   1627   1629   1631     1  180.0000771  9.6232000  2
   1625   1624   1627   1628     1  0.0000000  3.3472000  1
   1625   1624   1627   1628     1  0.0000000  0.0000000  2
   1625   1624   1627   1628     1  180.0000771  0.3347200  3
   1625   1624   1627   1629     1  180.0000771  0.0000000  2
   1626   1624   1627   1628     1  0.0000000  3.3472000  1
   1626   1624   1627   1628     1  0.0000000  0.0000000  2
   1626   1624   1627   1628     1  180.0000771  0.3347200  3
   1626   1624   1627   1629     1  180.0000771  0.0000000  2
   1628   1627   1629   1631     1  0.0000000  7.9496000  1
   1628   1627   1629   1631     1  180.0000771  9.6232000  2
   1633   1635   1637   1639     1  0.0000000  0.6508444  3
   1633   1635   1637   1640     1  0.0000000  0.6508444  3
   1634   1633   1635   1637     1  0.0000000  0.0000000  2
   1634   1633   1635   1636     1  0.0000000  0.0000000  2
   1634   1633   1635   1638     1  0.0000000  0.0000000  2
   1635   1637   1641   1662     1  0.0000000  0.6508444  3
   1636   1635   1637   1641     1  0.0000000  0.6508444  3
   1636   1635   1637   1639     1  0.0000000  0.6508444  3
   1636   1635   1637   1640     1  0.0000000  0.6508444  3
   1637   1641   1642   1652     1  0.0000000  0.6508444  3
   1637   1641   1642   1653     1  0.0000000  0.6508444  3
   1637   1641   1643   1644     1  0.0000000  0.6508444  3
   1637   1641   1643   1646     1  0.0000000  0.6508444  3
   1638   1635   1637   1641     1  0.0000000  0.6508444  3
   1638   1635   1637   1639     1  0.0000000  0.6508444  3
   1638   1635   1637   1640     1  0.0000000  0.6508444  3
   1639   1637   1641   1642     1  0.0000000  0.6508444  3
   1639   1637   1641   1643     1  0.0000000  0.6508444  3
   1639   1637   1641   1662     1  0.0000000  0.6508444  3
   1640   1637   1641   1642     1  0.0000000  0.6508444  3
   1640   1637   1641   1643     1  0.0000000  0.6508444  3
   1640   1637   1641   1662     1  0.0000000  0.6508444  3
   1641   1642   1654   1655     1  0.0000000  0.6508444  3
   1641   1642   1654   1656     1  0.0000000  0.6508444  3
   1641   1643   1645   1647     1  0.0000000  0.6508444  3
   1641   1643   1645   1648     1  0.0000000  0.6508444  3
   1642   1641   1643   1644     1  0.0000000  0.6508444  3
   1642   1641   1643   1646     1  0.0000000  0.6508444  3
   1643   1641   1642   1652     1  0.0000000  0.6508444  3
   1643   1641   1642   1653     1  0.0000000  0.6508444  3
   1644   1643   1645   1649     1  0.0000000  0.6508444  3
   1644   1643   1645   1647     1  0.0000000  0.6508444  3
   1644   1643   1645   1648     1  0.0000000  0.6508444  3
   1644   1643   1641   1662     1  0.0000000  0.6508444  3
   1645   1649   1650   1660     1  180.0000771  9.6232000  2
   1645   1643   1641   1662     1  0.0000000  0.6508444  3
   1646   1643   1645   1649     1  0.0000000  0.6508444  3
   1646   1643   1645   1647     1  0.0000000  0.6508444  3
   1646   1643   1645   1648     1  0.0000000  0.6508444  3
   1646   1643   1641   1662     1  0.0000000  0.6508444  3
   1647   1645   1649   1650     1  180.0000771  0.0000000  2
   1647   1645   1649   1651     1  0.0000000  3.3472000  1
   1647   1645   1649   1651     1  0.0000000  0.0000000  2
   1647   1645   1649   1651     1  180.0000771  0.3347200  3
   1648   1645   1649   1650     1  180.0000771  0.0000000  2
   1648   1645   1649   1651     1  0.0000000  3.3472000  1
   1648   1645   1649   1651     1  0.0000000  0.0000000  2
   1648   1645   1649   1651     1  180.0000771  0.3347200  3
   1651   1649   1650   1660     1  0.0000000  7.9496000  1
   1651   1649   1650   1660     1  180.0000771  9.6232000  2
   1652   1642   1654   1657     1  0.0000000  0.6508444  3
   1652   1642   1654   1655     1  0.0000000  0.6508444  3
   1652   1642   1654   1656     1  0.0000000  0.6508444  3
   1652   1642   1641   1662     1  0.0000000  0.6508444  3
   1653   1642   1654   1657     1  0.0000000  0.6508444  3
   1653   1642   1654   1655     1  0.0000000  0.6508444  3
   1653   1642   1654   1656     1  0.0000000  0.6508444  3
   1653   1642   1641   1662     1  0.0000000  0.6508444  3
   1654   1657   1659   1661     1  180.0000771  9.6232000  2
   1654   1642   1641   1662     1  0.0000000  0.6508444  3
   1655   1654   1657   1658     1  0.0000000  3.3472000  1
   1655   1654   1657   1658     1  0.0000000  0.0000000  2
   1655   1654   1657   1658     1  180.0000771  0.3347200  3
   1655   1654   1657   1659     1  180.0000771  0.0000000  2
   1656   1654   1657   1658     1  0.0000000  3.3472000  1
   1656   1654   1657   1658     1  0.0000000  0.0000000  2
   1656   1654   1657   1658     1  180.0000771  0.3347200  3
   1656   1654   1657   1659     1  180.0000771  0.0000000  2
   1658   1657   1659   1661     1  0.0000000  7.9496000  1
   1658   1657   1659   1661     1  180.0000771  9.6232000  2
   1663   1665   1667   1669     1  0.0000000  0.6508444  3
   1663   1665   1667   1670     1  0.0000000  0.6508444  3
   1664   1663   1665   1667     1  0.0000000  0.0000000  2
   1664   1663   1665   1666     1  0.0000000  0.0000000  2
   1664   1663   1665   1668     1  0.0000000  0.0000000  2
   1665   1667   1671   1692     1  0.0000000  0.6508444  3
   1666   1665   1667   1671     1  0.0000000  0.6508444  3
   1666   1665   1667   1669     1  0.0000000  0.6508444  3
   1666   1665   1667   1670     1  0.0000000  0.6508444  3
   1667   1671   1672   1682     1  0.0000000  0.6508444  3
   1667   1671   1672   1683     1  0.0000000  0.6508444  3
   1667   1671   1673   1674     1  0.0000000  0.6508444  3
   1667   1671   1673   1676     1  0.0000000  0.6508444  3
   1668   1665   1667   1671     1  0.0000000  0.6508444  3
   1668   1665   1667   1669     1  0.0000000  0.6508444  3
   1668   1665   1667   1670     1  0.0000000  0.6508444  3
   1669   1667   1671   1672     1  0.0000000  0.6508444  3
   1669   1667   1671   1673     1  0.0000000  0.6508444  3
   1669   1667   1671   1692     1  0.0000000  0.6508444  3
   1670   1667   1671   1672     1  0.0000000  0.6508444  3
   1670   1667   1671   1673     1  0.0000000  0.6508444  3
   1670   1667   1671   1692     1  0.0000000  0.6508444  3
   1671   1672   1684   1685     1  0.0000000  0.6508444  3
   1671   1672   1684   1686     1  0.0000000  0.6508444  3
   1671   1673   1675   1677     1  0.0000000  0.6508444  3
   1671   1673   1675   1678     1  0.0000000  0.6508444  3
   1672   1671   1673   1674     1  0.0000000  0.6508444  3
   1672   1671   1673   1676     1  0.0000000  0.6508444  3
   1673   1671   1672   1682     1  0.0000000  0.6508444  3
   1673   1671   1672   1683     1  0.0000000  0.6508444  3
   1674   1673   1671   1692     1  0.0000000  0.6508444  3
   1674   1673   1675   1679     1  0.0000000  0.6508444  3
   1674   1673   1675   1677     1  0.0000000  0.6508444  3
   1674   1673   1675   1678     1  0.0000000  0.6508444  3
   1675   1673   1671   1692     1  0.0000000  0.6508444  3
   1675   1679   1680   1690     1  180.0000771  9.6232000  2
   1676   1673   1671   1692     1  0.0000000  0.6508444  3
   1676   1673   1675   1679     1  0.0000000  0.6508444  3
   1676   1673   1675   1677     1  0.0000000  0.6508444  3
   1676   1673   1675   1678     1  0.0000000  0.6508444  3
   1677   1675   1679   1680     1  180.0000771  0.0000000  2
   1677   1675   1679   1681     1  0.0000000  3.3472000  1
   1677   1675   1679   1681     1  0.0000000  0.0000000  2
   1677   1675   1679   1681     1  180.0000771  0.3347200  3
   1678   1675   1679   1680     1  180.0000771  0.0000000  2
   1678   1675   1679   1681     1  0.0000000  3.3472000  1
   1678   1675   1679   1681     1  0.0000000  0.0000000  2
   1678   1675   1679   1681     1  180.0000771  0.3347200  3
   1681   1679   1680   1690     1  0.0000000  7.9496000  1
   1681   1679   1680   1690     1  180.0000771  9.6232000  2
   1682   1672   1671   1692     1  0.0000000  0.6508444  3
   1682   1672   1684   1687     1  0.0000000  0.6508444  3
   1682   1672   1684   1685     1  0.0000000  0.6508444  3
   1682   1672   1684   1686     1  0.0000000  0.6508444  3
   1683   1672   1671   1692     1  0.0000000  0.6508444  3
   1683   1672   1684   1687     1  0.0000000  0.6508444  3
   1683   1672   1684   1685     1  0.0000000  0.6508444  3
   1683   1672   1684   1686     1  0.0000000  0.6508444  3
   1684   1672   1671   1692     1  0.0000000  0.6508444  3
   1684   1687   1689   1691     1  180.0000771  9.6232000  2
   1685   1684   1687   1688     1  0.0000000  3.3472000  1
   1685   1684   1687   1688     1  0.0000000  0.0000000  2
   1685   1684   1687   1688     1  180.0000771  0.3347200  3
   1685   1684   1687   1689     1  180.0000771  0.0000000  2
   1686   1684   1687   1688     1  0.0000000  3.3472000  1
   1686   1684   1687   1688     1  0.0000000  0.0000000  2
   1686   1684   1687   1688     1  180.0000771  0.3347200  3
   1686   1684   1687   1689     1  180.0000771  0.0000000  2
   1688   1687   1689   1691     1  0.0000000  7.9496000  1
   1688   1687   1689   1691     1  180.0000771  9.6232000  2
   1693   1695   1697   1699     1  0.0000000  0.6508444  3
   1693   1695   1697   1700     1  0.0000000  0.6508444  3
   1694   1693   1695   1697     1  0.0000000  0.0000000  2
   1694   1693   1695   1696     1  0.0000000  0.0000000  2
   1694   1693   1695   1698     1  0.0000000  0.0000000  2
   1695   1697   1701   1722     1  0.0000000  0.6508444  3
   1696   1695   1697   1701     1  0.0000000  0.6508444  3
   1696   1695   1697   1699     1  0.0000000  0.6508444  3
   1696   1695   1697   1700     1  0.0000000  0.6508444  3
   1697   1701   1702   1712     1  0.0000000  0.6508444  3
   1697   1701   1702   1713     1  0.0000000  0.6508444  3
   1697   1701   1703   1704     1  0.0000000  0.6508444  3
   1697   1701   1703   1706     1  0.0000000  0.6508444  3
   1698   1695   1697   1701     1  0.0000000  0.6508444  3
   1698   1695   1697   1699     1  0.0000000  0.6508444  3
   1698   1695   1697   1700     1  0.0000000  0.6508444  3
   1699   1697   1701   1702     1  0.0000000  0.6508444  3
   1699   1697   1701   1703     1  0.0000000  0.6508444  3
   1699   1697   1701   1722     1  0.0000000  0.6508444  3
   1700   1697   1701   1702     1  0.0000000  0.6508444  3
   1700   1697   1701   1703     1  0.0000000  0.6508444  3
   1700   1697   1701   1722     1  0.0000000  0.6508444  3
   1701   1702   1714   1715     1  0.0000000  0.6508444  3
   1701   1702   1714   1716     1  0.0000000  0.6508444  3
   1701   1703   1705   1707     1  0.0000000  0.6508444  3
   1701   1703   1705   1708     1  0.0000000  0.6508444  3
   1702   1701   1703   1704     1  0.0000000  0.6508444  3
   1702   1701   1703   1706     1  0.0000000  0.6508444  3
   1703   1701   1702   1712     1  0.0000000  0.6508444  3
   1703   1701   1702   1713     1  0.0000000  0.6508444  3
   1704   1703   1705   1709     1  0.0000000  0.6508444  3
   1704   1703   1705   1707     1  0.0000000  0.6508444  3
   1704   1703   1705   1708     1  0.0000000  0.6508444  3
   1704   1703   1701   1722     1  0.0000000  0.6508444  3
   1705   1709   1710   1720     1  180.0000771  9.6232000  2
   1705   1703   1701   1722     1  0.0000000  0.6508444  3
   1706   1703   1705   1709     1  0.0000000  0.6508444  3
   1706   1703   1705   1707     1  0.0000000  0.6508444  3
   1706   1703   1705   1708     1  0.0000000  0.6508444  3
   1706   1703   1701   1722     1  0.0000000  0.6508444  3
   1707   1705   1709   1710     1  180.0000771  0.0000000  2
   1707   1705   1709   1711     1  0.0000000  3.3472000  1
   1707   1705   1709   1711     1  0.0000000  0.0000000  2
   1707   1705   1709   1711     1  180.0000771  0.3347200  3
   1708   1705   1709   1710     1  180.0000771  0.0000000  2
   1708   1705   1709   1711     1  0.0000000  3.3472000  1
   1708   1705   1709   1711     1  0.0000000  0.0000000  2
   1708   1705   1709   1711     1  180.0000771  0.3347200  3
   1711   1709   1710   1720     1  0.0000000  7.9496000  1
   1711   1709   1710   1720     1  180.0000771  9.6232000  2
   1712   1702   1714   1717     1  0.0000000  0.6508444  3
   1712   1702   1714   1715     1  0.0000000  0.6508444  3
   1712   1702   1714   1716     1  0.0000000  0.6508444  3
   1712   1702   1701   1722     1  0.0000000  0.6508444  3
   1713   1702   1714   1717     1  0.0000000  0.6508444  3
   1713   1702   1714   1715     1  0.0000000  0.6508444  3
   1713   1702   1714   1716     1  0.0000000  0.6508444  3
   1713   1702   1701   1722     1  0.0000000  0.6508444  3
   1714   1717   1719   1721     1  180.0000771  9.6232000  2
   1714   1702   1701   1722     1  0.0000000  0.6508444  3
   1715   1714   1717   1718     1  0.0000000  3.3472000  1
   1715   1714   1717   1718     1  0.0000000  0.0000000  2
   1715   1714   1717   1718     1  180.0000771  0.3347200  3
   1715   1714   1717   1719     1  180.0000771  0.0000000  2
   1716   1714   1717   1718     1  0.0000000  3.3472000  1
   1716   1714   1717   1718     1  0.0000000  0.0000000  2
   1716   1714   1717   1718     1  180.0000771  0.3347200  3
   1716   1714   1717   1719     1  180.0000771  0.0000000  2
   1718   1717   1719   1721     1  0.0000000  7.9496000  1
   1718   1717   1719   1721     1  180.0000771  9.6232000  2
   1723   1725   1727   1729     1  0.0000000  0.6508444  3
   1723   1725   1727   1730     1  0.0000000  0.6508444  3
   1724   1723   1725   1727     1  0.0000000  0.0000000  2
   1724   1723   1725   1726     1  0.0000000  0.0000000  2
   1724   1723   1725   1728     1  0.0000000  0.0000000  2
   1725   1727   1731   1752     1  0.0000000  0.6508444  3
   1726   1725   1727   1731     1  0.0000000  0.6508444  3
   1726   1725   1727   1729     1  0.0000000  0.6508444  3
   1726   1725   1727   1730     1  0.0000000  0.6508444  3
   1727   1731   1732   1742     1  0.0000000  0.6508444  3
   1727   1731   1732   1743     1  0.0000000  0.6508444  3
   1727   1731   1733   1734     1  0.0000000  0.6508444  3
   1727   1731   1733   1736     1  0.0000000  0.6508444  3
   1728   1725   1727   1731     1  0.0000000  0.6508444  3
   1728   1725   1727   1729     1  0.0000000  0.6508444  3
   1728   1725   1727   1730     1  0.0000000  0.6508444  3
   1729   1727   1731   1732     1  0.0000000  0.6508444  3
   1729   1727   1731   1733     1  0.0000000  0.6508444  3
   1729   1727   1731   1752     1  0.0000000  0.6508444  3
   1730   1727   1731   1732     1  0.0000000  0.6508444  3
   1730   1727   1731   1733     1  0.0000000  0.6508444  3
   1730   1727   1731   1752     1  0.0000000  0.6508444  3
   1731   1732   1744   1745     1  0.0000000  0.6508444  3
   1731   1732   1744   1746     1  0.0000000  0.6508444  3
   1731   1733   1735   1737     1  0.0000000  0.6508444  3
   1731   1733   1735   1738     1  0.0000000  0.6508444  3
   1732   1731   1733   1734     1  0.0000000  0.6508444  3
   1732   1731   1733   1736     1  0.0000000  0.6508444  3
   1733   1731   1732   1742     1  0.0000000  0.6508444  3
   1733   1731   1732   1743     1  0.0000000  0.6508444  3
   1734   1733   1731   1752     1  0.0000000  0.6508444  3
   1734   1733   1735   1739     1  0.0000000  0.6508444  3
   1734   1733   1735   1737     1  0.0000000  0.6508444  3
   1734   1733   1735   1738     1  0.0000000  0.6508444  3
   1735   1733   1731   1752     1  0.0000000  0.6508444  3
   1735   1739   1740   1750     1  180.0000771  9.6232000  2
   1736   1733   1731   1752     1  0.0000000  0.6508444  3
   1736   1733   1735   1739     1  0.0000000  0.6508444  3
   1736   1733   1735   1737     1  0.0000000  0.6508444  3
   1736   1733   1735   1738     1  0.0000000  0.6508444  3
   1737   1735   1739   1740     1  180.0000771  0.0000000  2
   1737   1735   1739   1741     1  0.0000000  3.3472000  1
   1737   1735   1739   1741     1  0.0000000  0.0000000  2
   1737   1735   1739   1741     1  180.0000771  0.3347200  3
   1738   1735   1739   1740     1  180.0000771  0.0000000  2
   1738   1735   1739   1741     1  0.0000000  3.3472000  1
   1738   1735   1739   1741     1  0.0000000  0.0000000  2
   1738   1735   1739   1741     1  180.0000771  0.3347200  3
   1741   1739   1740   1750     1  0.0000000  7.9496000  1
   1741   1739   1740   1750     1  180.0000771  9.6232000  2
   1742   1732   1731   1752     1  0.0000000  0.6508444  3
   1742   1732   1744   1747     1  0.0000000  0.6508444  3
   1742   1732   1744   1745     1  0.0000000  0.6508444  3
   1742   1732   1744   1746     1  0.0000000  0.6508444  3
   1743   1732   1731   1752     1  0.0000000  0.6508444  3
   1743   1732   1744   1747     1  0.0000000  0.6508444  3
   1743   1732   1744   1745     1  0.0000000  0.6508444  3
   1743   1732   1744   1746     1  0.0000000  0.6508444  3
   1744   1732   1731   1752     1  0.0000000  0.6508444  3
   1744   1747   1749   1751     1  180.0000771  9.6232000  2
   1745   1744   1747   1748     1  0.0000000  3.3472000  1
   1745   1744   1747   1748     1  0.0000000  0.0000000  2
   1745   1744   1747   1748     1  180.0000771  0.3347200  3
   1745   1744   1747   1749     1  180.0000771  0.0000000  2
   1746   1744   1747   1748     1  0.0000000  3.3472000  1
   1746   1744   1747   1748     1  0.0000000  0.0000000  2
   1746   1744   1747   1748     1  180.0000771  0.3347200  3
   1746   1744   1747   1749     1  180.0000771  0.0000000  2
   1748   1747   1749   1751     1  0.0000000  7.9496000  1
   1748   1747   1749   1751     1  180.0000771  9.6232000  2
   1753   1755   1757   1759     1  0.0000000  0.6508444  3
   1753   1755   1757   1760     1  0.0000000  0.6508444  3
   1754   1753   1755   1757     1  0.0000000  0.0000000  2
   1754   1753   1755   1756     1  0.0000000  0.0000000  2
   1754   1753   1755   1758     1  0.0000000  0.0000000  2
   1755   1757   1761   1782     1  0.0000000  0.6508444  3
   1756   1755   1757   1761     1  0.0000000  0.6508444  3
   1756   1755   1757   1759     1  0.0000000  0.6508444  3
   1756   1755   1757   1760     1  0.0000000  0.6508444  3
   1757   1761   1762   1772     1  0.0000000  0.6508444  3
   1757   1761   1762   1773     1  0.0000000  0.6508444  3
   1757   1761   1763   1764     1  0.0000000  0.6508444  3
   1757   1761   1763   1766     1  0.0000000  0.6508444  3
   1758   1755   1757   1761     1  0.0000000  0.6508444  3
   1758   1755   1757   1759     1  0.0000000  0.6508444  3
   1758   1755   1757   1760     1  0.0000000  0.6508444  3
   1759   1757   1761   1762     1  0.0000000  0.6508444  3
   1759   1757   1761   1763     1  0.0000000  0.6508444  3
   1759   1757   1761   1782     1  0.0000000  0.6508444  3
   1760   1757   1761   1762     1  0.0000000  0.6508444  3
   1760   1757   1761   1763     1  0.0000000  0.6508444  3
   1760   1757   1761   1782     1  0.0000000  0.6508444  3
   1761   1762   1774   1775     1  0.0000000  0.6508444  3
   1761   1762   1774   1776     1  0.0000000  0.6508444  3
   1761   1763   1765   1767     1  0.0000000  0.6508444  3
   1761   1763   1765   1768     1  0.0000000  0.6508444  3
   1762   1761   1763   1764     1  0.0000000  0.6508444  3
   1762   1761   1763   1766     1  0.0000000  0.6508444  3
   1763   1761   1762   1772     1  0.0000000  0.6508444  3
   1763   1761   1762   1773     1  0.0000000  0.6508444  3
   1764   1763   1765   1769     1  0.0000000  0.6508444  3
   1764   1763   1765   1767     1  0.0000000  0.6508444  3
   1764   1763   1765   1768     1  0.0000000  0.6508444  3
   1764   1763   1761   1782     1  0.0000000  0.6508444  3
   1765   1769   1770   1780     1  180.0000771  9.6232000  2
   1765   1763   1761   1782     1  0.0000000  0.6508444  3
   1766   1763   1765   1769     1  0.0000000  0.6508444  3
   1766   1763   1765   1767     1  0.0000000  0.6508444  3
   1766   1763   1765   1768     1  0.0000000  0.6508444  3
   1766   1763   1761   1782     1  0.0000000  0.6508444  3
   1767   1765   1769   1770     1  180.0000771  0.0000000  2
   1767   1765   1769   1771     1  0.0000000  3.3472000  1
   1767   1765   1769   1771     1  0.0000000  0.0000000  2
   1767   1765   1769   1771     1  180.0000771  0.3347200  3
   1768   1765   1769   1770     1  180.0000771  0.0000000  2
   1768   1765   1769   1771     1  0.0000000  3.3472000  1
   1768   1765   1769   1771     1  0.0000000  0.0000000  2
   1768   1765   1769   1771     1  180.0000771  0.3347200  3
   1771   1769   1770   1780     1  0.0000000  7.9496000  1
   1771   1769   1770   1780     1  180.0000771  9.6232000  2
   1772   1762   1774   1777     1  0.0000000  0.6508444  3
   1772   1762   1774   1775     1  0.0000000  0.6508444  3
   1772   1762   1774   1776     1  0.0000000  0.6508444  3
   1772   1762   1761   1782     1  0.0000000  0.6508444  3
   1773   1762   1774   1777     1  0.0000000  0.6508444  3
   1773   1762   1774   1775     1  0.0000000  0.6508444  3
   1773   1762   1774   1776     1  0.0000000  0.6508444  3
   1773   1762   1761   1782     1  0.0000000  0.6508444  3
   1774   1777   1779   1781     1  180.0000771  9.6232000  2
   1774   1762   1761   1782     1  0.0000000  0.6508444  3
   1775   1774   1777   1778     1  0.0000000  3.3472000  1
   1775   1774   1777   1778     1  0.0000000  0.0000000  2
   1775   1774   1777   1778     1  180.0000771  0.3347200  3
   1775   1774   1777   1779     1  180.0000771  0.0000000  2
   1776   1774   1777   1778     1  0.0000000  3.3472000  1
   1776   1774   1777   1778     1  0.0000000  0.0000000  2
   1776   1774   1777   1778     1  180.0000771  0.3347200  3
   1776   1774   1777   1779     1  180.0000771  0.0000000  2
   1778   1777   1779   1781     1  0.0000000  7.9496000  1
   1778   1777   1779   1781     1  180.0000771  9.6232000  2
   1783   1785   1787   1789     1  0.0000000  0.6508444  3
   1783   1785   1787   1790     1  0.0000000  0.6508444  3
   1784   1783   1785   1787     1  0.0000000  0.0000000  2
   1784   1783   1785   1786     1  0.0000000  0.0000000  2
   1784   1783   1785   1788     1  0.0000000  0.0000000  2
   1785   1787   1791   1812     1  0.0000000  0.6508444  3
   1786   1785   1787   1791     1  0.0000000  0.6508444  3
   1786   1785   1787   1789     1  0.0000000  0.6508444  3
   1786   1785   1787   1790     1  0.0000000  0.6508444  3
   1787   1791   1792   1802     1  0.0000000  0.6508444  3
   1787   1791   1792   1803     1  0.0000000  0.6508444  3
   1787   1791   1793   1794     1  0.0000000  0.6508444  3
   1787   1791   1793   1796     1  0.0000000  0.6508444  3
   1788   1785   1787   1791     1  0.0000000  0.6508444  3
   1788   1785   1787   1789     1  0.0000000  0.6508444  3
   1788   1785   1787   1790     1  0.0000000  0.6508444  3
   1789   1787   1791   1792     1  0.0000000  0.6508444  3
   1789   1787   1791   1793     1  0.0000000  0.6508444  3
   1789   1787   1791   1812     1  0.0000000  0.6508444  3
   1790   1787   1791   1792     1  0.0000000  0.6508444  3
   1790   1787   1791   1793     1  0.0000000  0.6508444  3
   1790   1787   1791   1812     1  0.0000000  0.6508444  3
   1791   1792   1804   1805     1  0.0000000  0.6508444  3
   1791   1792   1804   1806     1  0.0000000  0.6508444  3
   1791   1793   1795   1797     1  0.0000000  0.6508444  3
   1791   1793   1795   1798     1  0.0000000  0.6508444  3
   1792   1791   1793   1794     1  0.0000000  0.6508444  3
   1792   1791   1793   1796     1  0.0000000  0.6508444  3
   1793   1791   1792   1802     1  0.0000000  0.6508444  3
   1793   1791   1792   1803     1  0.0000000  0.6508444  3
   1794   1793   1791   1812     1  0.0000000  0.6508444  3
   1794   1793   1795   1799     1  0.0000000  0.6508444  3
   1794   1793   1795   1797     1  0.0000000  0.6508444  3
   1794   1793   1795   1798     1  0.0000000  0.6508444  3
   1795   1793   1791   1812     1  0.0000000  0.6508444  3
   1795   1799   1800   1810     1  180.0000771  9.6232000  2
   1796   1793   1791   1812     1  0.0000000  0.6508444  3
   1796   1793   1795   1799     1  0.0000000  0.6508444  3
   1796   1793   1795   1797     1  0.0000000  0.6508444  3
   1796   1793   1795   1798     1  0.0000000  0.6508444  3
   1797   1795   1799   1800     1  180.0000771  0.0000000  2
   1797   1795   1799   1801     1  0.0000000  3.3472000  1
   1797   1795   1799   1801     1  0.0000000  0.0000000  2
   1797   1795   1799   1801     1  180.0000771  0.3347200  3
   1798   1795   1799   1800     1  180.0000771  0.0000000  2
   1798   1795   1799   1801     1  0.0000000  3.3472000  1
   1798   1795   1799   1801     1  0.0000000  0.0000000  2
   1798   1795   1799   1801     1  180.0000771  0.3347200  3
   1801   1799   1800   1810     1  0.0000000  7.9496000  1
   1801   1799   1800   1810     1  180.0000771  9.6232000  2
   1802   1792   1791   1812     1  0.0000000  0.6508444  3
   1802   1792   1804   1807     1  0.0000000  0.6508444  3
   1802   1792   1804   1805     1  0.0000000  0.6508444  3
   1802   1792   1804   1806     1  0.0000000  0.6508444  3
   1803   1792   1791   1812     1  0.0000000  0.6508444  3
   1803   1792   1804   1807     1  0.0000000  0.6508444  3
   1803   1792   1804   1805     1  0.0000000  0.6508444  3
   1803   1792   1804   1806     1  0.0000000  0.6508444  3
   1804   1792   1791   1812     1  0.0000000  0.6508444  3
   1804   1807   1809   1811     1  180.0000771  9.6232000  2
   1805   1804   1807   1808     1  0.0000000  3.3472000  1
   1805   1804   1807   1808     1  0.0000000  0.0000000  2
   1805   1804   1807   1808     1  180.0000771  0.3347200  3
   1805   1804   1807   1809     1  180.0000771  0.0000000  2
   1806   1804   1807   1808     1  0.0000000  3.3472000  1
   1806   1804   1807   1808     1  0.0000000  0.0000000  2
   1806   1804   1807   1808     1  180.0000771  0.3347200  3
   1806   1804   1807   1809     1  180.0000771  0.0000000  2
   1808   1807   1809   1811     1  0.0000000  7.9496000  1
   1808   1807   1809   1811     1  180.0000771  9.6232000  2
   1813   1815   1817   1819     1  0.0000000  0.6508444  3
   1813   1815   1817   1820     1  0.0000000  0.6508444  3
   1814   1813   1815   1817     1  0.0000000  0.0000000  2
   1814   1813   1815   1816     1  0.0000000  0.0000000  2
   1814   1813   1815   1818     1  0.0000000  0.0000000  2
   1815   1817   1821   1842     1  0.0000000  0.6508444  3
   1816   1815   1817   1821     1  0.0000000  0.6508444  3
   1816   1815   1817   1819     1  0.0000000  0.6508444  3
   1816   1815   1817   1820     1  0.0000000  0.6508444  3
   1817   1821   1822   1832     1  0.0000000  0.6508444  3
   1817   1821   1822   1833     1  0.0000000  0.6508444  3
   1817   1821   1823   1824     1  0.0000000  0.6508444  3
   1817   1821   1823   1826     1  0.0000000  0.6508444  3
   1818   1815   1817   1821     1  0.0000000  0.6508444  3
   1818   1815   1817   1819     1  0.0000000  0.6508444  3
   1818   1815   1817   1820     1  0.0000000  0.6508444  3
   1819   1817   1821   1822     1  0.0000000  0.6508444  3
   1819   1817   1821   1823     1  0.0000000  0.6508444  3
   1819   1817   1821   1842     1  0.0000000  0.6508444  3
   1820   1817   1821   1822     1  0.0000000  0.6508444  3
   1820   1817   1821   1823     1  0.0000000  0.6508444  3
   1820   1817   1821   1842     1  0.0000000  0.6508444  3
   1821   1822   1834   1835     1  0.0000000  0.6508444  3
   1821   1822   1834   1836     1  0.0000000  0.6508444  3
   1821   1823   1825   1827     1  0.0000000  0.6508444  3
   1821   1823   1825   1828     1  0.0000000  0.6508444  3
   1822   1821   1823   1824     1  0.0000000  0.6508444  3
   1822   1821   1823   1826     1  0.0000000  0.6508444  3
   1823   1821   1822   1832     1  0.0000000  0.6508444  3
   1823   1821   1822   1833     1  0.0000000  0.6508444  3
   1824   1823   1825   1829     1  0.0000000  0.6508444  3
   1824   1823   1825   1827     1  0.0000000  0.6508444  3
   1824   1823   1825   1828     1  0.0000000  0.6508444  3
   1824   1823   1821   1842     1  0.0000000  0.6508444  3
   1825   1829   1830   1840     1  180.0000771  9.6232000  2
   1825   1823   1821   1842     1  0.0000000  0.6508444  3
   1826   1823   1825   1829     1  0.0000000  0.6508444  3
   1826   1823   1825   1827     1  0.0000000  0.6508444  3
   1826   1823   1825   1828     1  0.0000000  0.6508444  3
   1826   1823   1821   1842     1  0.0000000  0.6508444  3
   1827   1825   1829   1830     1  180.0000771  0.0000000  2
   1827   1825   1829   1831     1  0.0000000  3.3472000  1
   1827   1825   1829   1831     1  0.0000000  0.0000000  2
   1827   1825   1829   1831     1  180.0000771  0.3347200  3
   1828   1825   1829   1830     1  180.0000771  0.0000000  2
   1828   1825   1829   1831     1  0.0000000  3.3472000  1
   1828   1825   1829   1831     1  0.0000000  0.0000000  2
   1828   1825   1829   1831     1  180.0000771  0.3347200  3
   1831   1829   1830   1840     1  0.0000000  7.9496000  1
   1831   1829   1830   1840     1  180.0000771  9.6232000  2
   1832   1822   1834   1837     1  0.0000000  0.6508444  3
   1832   1822   1834   1835     1  0.0000000  0.6508444  3
   1832   1822   1834   1836     1  0.0000000  0.6508444  3
   1832   1822   1821   1842     1  0.0000000  0.6508444  3
   1833   1822   1834   1837     1  0.0000000  0.6508444  3
   1833   1822   1834   1835     1  0.0000000  0.6508444  3
   1833   1822   1834   1836     1  0.0000000  0.6508444  3
   1833   1822   1821   1842     1  0.0000000  0.6508444  3
   1834   1837   1839   1841     1  180.0000771  9.6232000  2
   1834   1822   1821   1842     1  0.0000000  0.6508444  3
   1835   1834   1837   1838     1  0.0000000  3.3472000  1
   1835   1834   1837   1838     1  0.0000000  0.0000000  2
   1835   1834   1837   1838     1  180.0000771  0.3347200  3
   1835   1834   1837   1839     1  180.0000771  0.0000000  2
   1836   1834   1837   1838     1  0.0000000  3.3472000  1
   1836   1834   1837   1838     1  0.0000000  0.0000000  2
   1836   1834   1837   1838     1  180.0000771  0.3347200  3
   1836   1834   1837   1839     1  180.0000771  0.0000000  2
   1838   1837   1839   1841     1  0.0000000  7.9496000  1
   1838   1837   1839   1841     1  180.0000771  9.6232000  2
   1843   1845   1847   1849     1  0.0000000  0.6508444  3
   1843   1845   1847   1850     1  0.0000000  0.6508444  3
   1844   1843   1845   1847     1  0.0000000  0.0000000  2
   1844   1843   1845   1846     1  0.0000000  0.0000000  2
   1844   1843   1845   1848     1  0.0000000  0.0000000  2
   1845   1847   1851   1872     1  0.0000000  0.6508444  3
   1846   1845   1847   1851     1  0.0000000  0.6508444  3
   1846   1845   1847   1849     1  0.0000000  0.6508444  3
   1846   1845   1847   1850     1  0.0000000  0.6508444  3
   1847   1851   1852   1862     1  0.0000000  0.6508444  3
   1847   1851   1852   1863     1  0.0000000  0.6508444  3
   1847   1851   1853   1854     1  0.0000000  0.6508444  3
   1847   1851   1853   1856     1  0.0000000  0.6508444  3
   1848   1845   1847   1851     1  0.0000000  0.6508444  3
   1848   1845   1847   1849     1  0.0000000  0.6508444  3
   1848   1845   1847   1850     1  0.0000000  0.6508444  3
   1849   1847   1851   1852     1  0.0000000  0.6508444  3
   1849   1847   1851   1853     1  0.0000000  0.6508444  3
   1849   1847   1851   1872     1  0.0000000  0.6508444  3
   1850   1847   1851   1852     1  0.0000000  0.6508444  3
   1850   1847   1851   1853     1  0.0000000  0.6508444  3
   1850   1847   1851   1872     1  0.0000000  0.6508444  3
   1851   1852   1864   1865     1  0.0000000  0.6508444  3
   1851   1852   1864   1866     1  0.0000000  0.6508444  3
   1851   1853   1855   1857     1  0.0000000  0.6508444  3
   1851   1853   1855   1858     1  0.0000000  0.6508444  3
   1852   1851   1853   1854     1  0.0000000  0.6508444  3
   1852   1851   1853   1856     1  0.0000000  0.6508444  3
   1853   1851   1852   1862     1  0.0000000  0.6508444  3
   1853   1851   1852   1863     1  0.0000000  0.6508444  3
   1854   1853   1851   1872     1  0.0000000  0.6508444  3
   1854   1853   1855   1859     1  0.0000000  0.6508444  3
   1854   1853   1855   1857     1  0.0000000  0.6508444  3
   1854   1853   1855   1858     1  0.0000000  0.6508444  3
   1855   1853   1851   1872     1  0.0000000  0.6508444  3
   1855   1859   1860   1870     1  180.0000771  9.6232000  2
   1856   1853   1851   1872     1  0.0000000  0.6508444  3
   1856   1853   1855   1859     1  0.0000000  0.6508444  3
   1856   1853   1855   1857     1  0.0000000  0.6508444  3
   1856   1853   1855   1858     1  0.0000000  0.6508444  3
   1857   1855   1859   1860     1  180.0000771  0.0000000  2
   1857   1855   1859   1861     1  0.0000000  3.3472000  1
   1857   1855   1859   1861     1  0.0000000  0.0000000  2
   1857   1855   1859   1861     1  180.0000771  0.3347200  3
   1858   1855   1859   1860     1  180.0000771  0.0000000  2
   1858   1855   1859   1861     1  0.0000000  3.3472000  1
   1858   1855   1859   1861     1  0.0000000  0.0000000  2
   1858   1855   1859   1861     1  180.0000771  0.3347200  3
   1861   1859   1860   1870     1  0.0000000  7.9496000  1
   1861   1859   1860   1870     1  180.0000771  9.6232000  2
   1862   1852   1851   1872     1  0.0000000  0.6508444  3
   1862   1852   1864   1867     1  0.0000000  0.6508444  3
   1862   1852   1864   1865     1  0.0000000  0.6508444  3
   1862   1852   1864   1866     1  0.0000000  0.6508444  3
   1863   1852   1851   1872     1  0.0000000  0.6508444  3
   1863   1852   1864   1867     1  0.0000000  0.6508444  3
   1863   1852   1864   1865     1  0.0000000  0.6508444  3
   1863   1852   1864   1866     1  0.0000000  0.6508444  3
   1864   1852   1851   1872     1  0.0000000  0.6508444  3
   1864   1867   1869   1871     1  180.0000771  9.6232000  2
   1865   1864   1867   1868     1  0.0000000  3.3472000  1
   1865   1864   1867   1868     1  0.0000000  0.0000000  2
   1865   1864   1867   1868     1  180.0000771  0.3347200  3
   1865   1864   1867   1869     1  180.0000771  0.0000000  2
   1866   1864   1867   1868     1  0.0000000  3.3472000  1
   1866   1864   1867   1868     1  0.0000000  0.0000000  2
   1866   1864   1867   1868     1  180.0000771  0.3347200  3
   1866   1864   1867   1869     1  180.0000771  0.0000000  2
   1868   1867   1869   1871     1  0.0000000  7.9496000  1
   1868   1867   1869   1871     1  180.0000771  9.6232000  2
   1873   1875   1877   1879     1  0.0000000  0.6508444  3
   1873   1875   1877   1880     1  0.0000000  0.6508444  3
   1874   1873   1875   1877     1  0.0000000  0.0000000  2
   1874   1873   1875   1876     1  0.0000000  0.0000000  2
   1874   1873   1875   1878     1  0.0000000  0.0000000  2
   1875   1877   1881   1902     1  0.0000000  0.6508444  3
   1876   1875   1877   1881     1  0.0000000  0.6508444  3
   1876   1875   1877   1879     1  0.0000000  0.6508444  3
   1876   1875   1877   1880     1  0.0000000  0.6508444  3
   1877   1881   1882   1892     1  0.0000000  0.6508444  3
   1877   1881   1882   1893     1  0.0000000  0.6508444  3
   1877   1881   1883   1884     1  0.0000000  0.6508444  3
   1877   1881   1883   1886     1  0.0000000  0.6508444  3
   1878   1875   1877   1881     1  0.0000000  0.6508444  3
   1878   1875   1877   1879     1  0.0000000  0.6508444  3
   1878   1875   1877   1880     1  0.0000000  0.6508444  3
   1879   1877   1881   1882     1  0.0000000  0.6508444  3
   1879   1877   1881   1883     1  0.0000000  0.6508444  3
   1879   1877   1881   1902     1  0.0000000  0.6508444  3
   1880   1877   1881   1882     1  0.0000000  0.6508444  3
   1880   1877   1881   1883     1  0.0000000  0.6508444  3
   1880   1877   1881   1902     1  0.0000000  0.6508444  3
   1881   1882   1894   1895     1  0.0000000  0.6508444  3
   1881   1882   1894   1896     1  0.0000000  0.6508444  3
   1881   1883   1885   1887     1  0.0000000  0.6508444  3
   1881   1883   1885   1888     1  0.0000000  0.6508444  3
   1882   1881   1883   1884     1  0.0000000  0.6508444  3
   1882   1881   1883   1886     1  0.0000000  0.6508444  3
   1883   1881   1882   1892     1  0.0000000  0.6508444  3
   1883   1881   1882   1893     1  0.0000000  0.6508444  3
   1884   1883   1885   1889     1  0.0000000  0.6508444  3
   1884   1883   1885   1887     1  0.0000000  0.6508444  3
   1884   1883   1885   1888     1  0.0000000  0.6508444  3
   1884   1883   1881   1902     1  0.0000000  0.6508444  3
   1885   1889   1890   1900     1  180.0000771  9.6232000  2
   1885   1883   1881   1902     1  0.0000000  0.6508444  3
   1886   1883   1885   1889     1  0.0000000  0.6508444  3
   1886   1883   1885   1887     1  0.0000000  0.6508444  3
   1886   1883   1885   1888     1  0.0000000  0.6508444  3
   1886   1883   1881   1902     1  0.0000000  0.6508444  3
   1887   1885   1889   1890     1  180.0000771  0.0000000  2
   1887   1885   1889   1891     1  0.0000000  3.3472000  1
   1887   1885   1889   1891     1  0.0000000  0.0000000  2
   1887   1885   1889   1891     1  180.0000771  0.3347200  3
   1888   1885   1889   1890     1  180.0000771  0.0000000  2
   1888   1885   1889   1891     1  0.0000000  3.3472000  1
   1888   1885   1889   1891     1  0.0000000  0.0000000  2
   1888   1885   1889   1891     1  180.0000771  0.3347200  3
   1891   1889   1890   1900     1  0.0000000  7.9496000  1
   1891   1889   1890   1900     1  180.0000771  9.6232000  2
   1892   1882   1894   1897     1  0.0000000  0.6508444  3
   1892   1882   1894   1895     1  0.0000000  0.6508444  3
   1892   1882   1894   1896     1  0.0000000  0.6508444  3
   1892   1882   1881   1902     1  0.0000000  0.6508444  3
   1893   1882   1894   1897     1  0.0000000  0.6508444  3
   1893   1882   1894   1895     1  0.0000000  0.6508444  3
   1893   1882   1894   1896     1  0.0000000  0.6508444  3
   1893   1882   1881   1902     1  0.0000000  0.6508444  3
   1894   1897   1899   1901     1  180.0000771  9.6232000  2
   1894   1882   1881   1902     1  0.0000000  0.6508444  3
   1895   1894   1897   1898     1  0.0000000  3.3472000  1
   1895   1894   1897   1898     1  0.0000000  0.0000000  2
   1895   1894   1897   1898     1  180.0000771  0.3347200  3
   1895   1894   1897   1899     1  180.0000771  0.0000000  2
   1896   1894   1897   1898     1  0.0000000  3.3472000  1
   1896   1894   1897   1898     1  0.0000000  0.0000000  2
   1896   1894   1897   1898     1  180.0000771  0.3347200  3
   1896   1894   1897   1899     1  180.0000771  0.0000000  2
   1898   1897   1899   1901     1  0.0000000  7.9496000  1
   1898   1897   1899   1901     1  180.0000771  9.6232000  2
   1903   1905   1907   1909     1  0.0000000  0.6508444  3
   1903   1905   1907   1910     1  0.0000000  0.6508444  3
   1904   1903   1905   1907     1  0.0000000  0.0000000  2
   1904   1903   1905   1906     1  0.0000000  0.0000000  2
   1904   1903   1905   1908     1  0.0000000  0.0000000  2
   1905   1907   1911   1932     1  0.0000000  0.6508444  3
   1906   1905   1907   1911     1  0.0000000  0.6508444  3
   1906   1905   1907   1909     1  0.0000000  0.6508444  3
   1906   1905   1907   1910     1  0.0000000  0.6508444  3
   1907   1911   1912   1922     1  0.0000000  0.6508444  3
   1907   1911   1912   1923     1  0.0000000  0.6508444  3
   1907   1911   1913   1914     1  0.0000000  0.6508444  3
   1907   1911   1913   1916     1  0.0000000  0.6508444  3
   1908   1905   1907   1911     1  0.0000000  0.6508444  3
   1908   1905   1907   1909     1  0.0000000  0.6508444  3
   1908   1905   1907   1910     1  0.0000000  0.6508444  3
   1909   1907   1911   1912     1  0.0000000  0.6508444  3
   1909   1907   1911   1913     1  0.0000000  0.6508444  3
   1909   1907   1911   1932     1  0.0000000  0.6508444  3
   1910   1907   1911   1912     1  0.0000000  0.6508444  3
   1910   1907   1911   1913     1  0.0000000  0.6508444  3
   1910   1907   1911   1932     1  0.0000000  0.6508444  3
   1911   1912   1924   1925     1  0.0000000  0.6508444  3
   1911   1912   1924   1926     1  0.0000000  0.6508444  3
   1911   1913   1915   1917     1  0.0000000  0.6508444  3
   1911   1913   1915   1918     1  0.0000000  0.6508444  3
   1912   1911   1913   1914     1  0.0000000  0.6508444  3
   1912   1911   1913   1916     1  0.0000000  0.6508444  3
   1913   1911   1912   1922     1  0.0000000  0.6508444  3
   1913   1911   1912   1923     1  0.0000000  0.6508444  3
   1914   1913   1911   1932     1  0.0000000  0.6508444  3
   1914   1913   1915   1919     1  0.0000000  0.6508444  3
   1914   1913   1915   1917     1  0.0000000  0.6508444  3
   1914   1913   1915   1918     1  0.0000000  0.6508444  3
   1915   1913   1911   1932     1  0.0000000  0.6508444  3
   1915   1919   1920   1930     1  180.0000771  9.6232000  2
   1916   1913   1911   1932     1  0.0000000  0.6508444  3
   1916   1913   1915   1919     1  0.0000000  0.6508444  3
   1916   1913   1915   1917     1  0.0000000  0.6508444  3
   1916   1913   1915   1918     1  0.0000000  0.6508444  3
   1917   1915   1919   1920     1  180.0000771  0.0000000  2
   1917   1915   1919   1921     1  0.0000000  3.3472000  1
   1917   1915   1919   1921     1  0.0000000  0.0000000  2
   1917   1915   1919   1921     1  180.0000771  0.3347200  3
   1918   1915   1919   1920     1  180.0000771  0.0000000  2
   1918   1915   1919   1921     1  0.0000000  3.3472000  1
   1918   1915   1919   1921     1  0.0000000  0.0000000  2
   1918   1915   1919   1921     1  180.0000771  0.3347200  3
   1921   1919   1920   1930     1  0.0000000  7.9496000  1
   1921   1919   1920   1930     1  180.0000771  9.6232000  2
   1922   1912   1911   1932     1  0.0000000  0.6508444  3
   1922   1912   1924   1927     1  0.0000000  0.6508444  3
   1922   1912   1924   1925     1  0.0000000  0.6508444  3
   1922   1912   1924   1926     1  0.0000000  0.6508444  3
   1923   1912   1911   1932     1  0.0000000  0.6508444  3
   1923   1912   1924   1927     1  0.0000000  0.6508444  3
   1923   1912   1924   1925     1  0.0000000  0.6508444  3
   1923   1912   1924   1926     1  0.0000000  0.6508444  3
   1924   1912   1911   1932     1  0.0000000  0.6508444  3
   1924   1927   1929   1931     1  180.0000771  9.6232000  2
   1925   1924   1927   1928     1  0.0000000  3.3472000  1
   1925   1924   1927   1928     1  0.0000000  0.0000000  2
   1925   1924   1927   1928     1  180.0000771  0.3347200  3
   1925   1924   1927   1929     1  180.0000771  0.0000000  2
   1926   1924   1927   1928     1  0.0000000  3.3472000  1
   1926   1924   1927   1928     1  0.0000000  0.0000000  2
   1926   1924   1927   1928     1  180.0000771  0.3347200  3
   1926   1924   1927   1929     1  180.0000771  0.0000000  2
   1928   1927   1929   1931     1  0.0000000  7.9496000  1
   1928   1927   1929   1931     1  180.0000771  9.6232000  2
   1933   1935   1937   1939     1  0.0000000  0.6508444  3
   1933   1935   1937   1940     1  0.0000000  0.6508444  3
   1934   1933   1935   1937     1  0.0000000  0.0000000  2
   1934   1933   1935   1936     1  0.0000000  0.0000000  2
   1934   1933   1935   1938     1  0.0000000  0.0000000  2
   1935   1937   1941   1962     1  0.0000000  0.6508444  3
   1936   1935   1937   1941     1  0.0000000  0.6508444  3
   1936   1935   1937   1939     1  0.0000000  0.6508444  3
   1936   1935   1937   1940     1  0.0000000  0.6508444  3
   1937   1941   1942   1952     1  0.0000000  0.6508444  3
   1937   1941   1942   1953     1  0.0000000  0.6508444  3
   1937   1941   1943   1944     1  0.0000000  0.6508444  3
   1937   1941   1943   1946     1  0.0000000  0.6508444  3
   1938   1935   1937   1941     1  0.0000000  0.6508444  3
   1938   1935   1937   1939     1  0.0000000  0.6508444  3
   1938   1935   1937   1940     1  0.0000000  0.6508444  3
   1939   1937   1941   1942     1  0.0000000  0.6508444  3
   1939   1937   1941   1943     1  0.0000000  0.6508444  3
   1939   1937   1941   1962     1  0.0000000  0.6508444  3
   1940   1937   1941   1942     1  0.0000000  0.6508444  3
   1940   1937   1941   1943     1  0.0000000  0.6508444  3
   1940   1937   1941   1962     1  0.0000000  0.6508444  3
   1941   1942   1954   1955     1  0.0000000  0.6508444  3
   1941   1942   1954   1956     1  0.0000000  0.6508444  3
   1941   1943   1945   1947     1  0.0000000  0.6508444  3
   1941   1943   1945   1948     1  0.0000000  0.6508444  3
   1942   1941   1943   1944     1  0.0000000  0.6508444  3
   1942   1941   1943   1946     1  0.0000000  0.6508444  3
   1943   1941   1942   1952     1  0.0000000  0.6508444  3
   1943   1941   1942   1953     1  0.0000000  0.6508444  3
   1944   1943   1945   1949     1  0.0000000  0.6508444  3
   1944   1943   1945   1947     1  0.0000000  0.6508444  3
   1944   1943   1945   1948     1  0.0000000  0.6508444  3
   1944   1943   1941   1962     1  0.0000000  0.6508444  3
   1945   1949   1950   1960     1  180.0000771  9.6232000  2
   1945   1943   1941   1962     1  0.0000000  0.6508444  3
   1946   1943   1945   1949     1  0.0000000  0.6508444  3
   1946   1943   1945   1947     1  0.0000000  0.6508444  3
   1946   1943   1945   1948     1  0.0000000  0.6508444  3
   1946   1943   1941   1962     1  0.0000000  0.6508444  3
   1947   1945   1949   1950     1  180.0000771  0.0000000  2
   1947   1945   1949   1951     1  0.0000000  3.3472000  1
   1947   1945   1949   1951     1  0.0000000  0.0000000  2
   1947   1945   1949   1951     1  180.0000771  0.3347200  3
   1948   1945   1949   1950     1  180.0000771  0.0000000  2
   1948   1945   1949   1951     1  0.0000000  3.3472000  1
   1948   1945   1949   1951     1  0.0000000  0.0000000  2
   1948   1945   1949   1951     1  180.0000771  0.3347200  3
   1951   1949   1950   1960     1  0.0000000  7.9496000  1
   1951   1949   1950   1960     1  180.0000771  9.6232000  2
   1952   1942   1954   1957     1  0.0000000  0.6508444  3
   1952   1942   1954   1955     1  0.0000000  0.6508444  3
   1952   1942   1954   1956     1  0.0000000  0.6508444  3
   1952   1942   1941   1962     1  0.0000000  0.6508444  3
   1953   1942   1954   1957     1  0.0000000  0.6508444  3
   1953   1942   1954   1955     1  0.0000000  0.6508444  3
   1953   1942   1954   1956     1  0.0000000  0.6508444  3
   1953   1942   1941   1962     1  0.0000000  0.6508444  3
   1954   1957   1959   1961     1  180.0000771  9.6232000  2
   1954   1942   1941   1962     1  0.0000000  0.6508444  3
   1955   1954   1957   1958     1  0.0000000  3.3472000  1
   1955   1954   1957   1958     1  0.0000000  0.0000000  2
   1955   1954   1957   1958     1  180.0000771  0.3347200  3
   1955   1954   1957   1959     1  180.0000771  0.0000000  2
   1956   1954   1957   1958     1  0.0000000  3.3472000  1
   1956   1954   1957   1958     1  0.0000000  0.0000000  2
   1956   1954   1957   1958     1  180.0000771  0.3347200  3
   1956   1954   1957   1959     1  180.0000771  0.0000000  2
   1958   1957   1959   1961     1  0.0000000  7.9496000  1
   1958   1957   1959   1961     1  180.0000771  9.6232000  2
   1963   1965   1967   1969     1  0.0000000  0.6508444  3
   1963   1965   1967   1970     1  0.0000000  0.6508444  3
   1964   1963   1965   1967     1  0.0000000  0.0000000  2
   1964   1963   1965   1966     1  0.0000000  0.0000000  2
   1964   1963   1965   1968     1  0.0000000  0.0000000  2
   1965   1967   1971   1992     1  0.0000000  0.6508444  3
   1966   1965   1967   1971     1  0.0000000  0.6508444  3
   1966   1965   1967   1969     1  0.0000000  0.6508444  3
   1966   1965   1967   1970     1  0.0000000  0.6508444  3
   1967   1971   1972   1982     1  0.0000000  0.6508444  3
   1967   1971   1972   1983     1  0.0000000  0.6508444  3
   1967   1971   1973   1974     1  0.0000000  0.6508444  3
   1967   1971   1973   1976     1  0.0000000  0.6508444  3
   1968   1965   1967   1971     1  0.0000000  0.6508444  3
   1968   1965   1967   1969     1  0.0000000  0.6508444  3
   1968   1965   1967   1970     1  0.0000000  0.6508444  3
   1969   1967   1971   1972     1  0.0000000  0.6508444  3
   1969   1967   1971   1973     1  0.0000000  0.6508444  3
   1969   1967   1971   1992     1  0.0000000  0.6508444  3
   1970   1967   1971   1972     1  0.0000000  0.6508444  3
   1970   1967   1971   1973     1  0.0000000  0.6508444  3
   1970   1967   1971   1992     1  0.0000000  0.6508444  3
   1971   1972   1984   1985     1  0.0000000  0.6508444  3
   1971   1972   1984   1986     1  0.0000000  0.6508444  3
   1971   1973   1975   1977     1  0.0000000  0.6508444  3
   1971   1973   1975   1978     1  0.0000000  0.6508444  3
   1972   1971   1973   1974     1  0.0000000  0.6508444  3
   1972   1971   1973   1976     1  0.0000000  0.6508444  3
   1973   1971   1972   1982     1  0.0000000  0.6508444  3
   1973   1971   1972   1983     1  0.0000000  0.6508444  3
   1974   1973   1971   1992     1  0.0000000  0.6508444  3
   1974   1973   1975   1979     1  0.0000000  0.6508444  3
   1974   1973   1975   1977     1  0.0000000  0.6508444  3
   1974   1973   1975   1978     1  0.0000000  0.6508444  3
   1975   1973   1971   1992     1  0.0000000  0.6508444  3
   1975   1979   1980   1990     1  180.0000771  9.6232000  2
   1976   1973   1971   1992     1  0.0000000  0.6508444  3
   1976   1973   1975   1979     1  0.0000000  0.6508444  3
   1976   1973   1975   1977     1  0.0000000  0.6508444  3
   1976   1973   1975   1978     1  0.0000000  0.6508444  3
   1977   1975   1979   1980     1  180.0000771  0.0000000  2
   1977   1975   1979   1981     1  0.0000000  3.3472000  1
   1977   1975   1979   1981     1  0.0000000  0.0000000  2
   1977   1975   1979   1981     1  180.0000771  0.3347200  3
   1978   1975   1979   1980     1  180.0000771  0.0000000  2
   1978   1975   1979   1981     1  0.0000000  3.3472000  1
   1978   1975   1979   1981     1  0.0000000  0.0000000  2
   1978   1975   1979   1981     1  180.0000771  0.3347200  3
   1981   1979   1980   1990     1  0.0000000  7.9496000  1
   1981   1979   1980   1990     1  180.0000771  9.6232000  2
   1982   1972   1971   1992     1  0.0000000  0.6508444  3
   1982   1972   1984   1987     1  0.0000000  0.6508444  3
   1982   1972   1984   1985     1  0.0000000  0.6508444  3
   1982   1972   1984   1986     1  0.0000000  0.6508444  3
   1983   1972   1971   1992     1  0.0000000  0.6508444  3
   1983   1972   1984   1987     1  0.0000000  0.6508444  3
   1983   1972   1984   1985     1  0.0000000  0.6508444  3
   1983   1972   1984   1986     1  0.0000000  0.6508444  3
   1984   1972   1971   1992     1  0.0000000  0.6508444  3
   1984   1987   1989   1991     1  180.0000771  9.6232000  2
   1985   1984   1987   1988     1  0.0000000  3.3472000  1
   1985   1984   1987   1988     1  0.0000000  0.0000000  2
   1985   1984   1987   1988     1  180.0000771  0.3347200  3
   1985   1984   1987   1989     1  180.0000771  0.0000000  2
   1986   1984   1987   1988     1  0.0000000  3.3472000  1
   1986   1984   1987   1988     1  0.0000000  0.0000000  2
   1986   1984   1987   1988     1  180.0000771  0.3347200  3
   1986   1984   1987   1989     1  180.0000771  0.0000000  2
   1988   1987   1989   1991     1  0.0000000  7.9496000  1
   1988   1987   1989   1991     1  180.0000771  9.6232000  2
   1993   1995   1997   1999     1  0.0000000  0.6508444  3
   1993   1995   1997   2000     1  0.0000000  0.6508444  3
   1994   1993   1995   1997     1  0.0000000  0.0000000  2
   1994   1993   1995   1996     1  0.0000000  0.0000000  2
   1994   1993   1995   1998     1  0.0000000  0.0000000  2
   1995   1997   2001   2022     1  0.0000000  0.6508444  3
   1996   1995   1997   2001     1  0.0000000  0.6508444  3
   1996   1995   1997   1999     1  0.0000000  0.6508444  3
   1996   1995   1997   2000     1  0.0000000  0.6508444  3
   1997   2001   2002   2012     1  0.0000000  0.6508444  3
   1997   2001   2002   2013     1  0.0000000  0.6508444  3
   1997   2001   2003   2004     1  0.0000000  0.6508444  3
   1997   2001   2003   2006     1  0.0000000  0.6508444  3
   1998   1995   1997   2001     1  0.0000000  0.6508444  3
   1998   1995   1997   1999     1  0.0000000  0.6508444  3
   1998   1995   1997   2000     1  0.0000000  0.6508444  3
   1999   1997   2001   2002     1  0.0000000  0.6508444  3
   1999   1997   2001   2003     1  0.0000000  0.6508444  3
   1999   1997   2001   2022     1  0.0000000  0.6508444  3
   2000   1997   2001   2002     1  0.0000000  0.6508444  3
   2000   1997   2001   2003     1  0.0000000  0.6508444  3
   2000   1997   2001   2022     1  0.0000000  0.6508444  3
   2001   2002   2014   2015     1  0.0000000  0.6508444  3
   2001   2002   2014   2016     1  0.0000000  0.6508444  3
   2001   2003   2005   2007     1  0.0000000  0.6508444  3
   2001   2003   2005   2008     1  0.0000000  0.6508444  3
   2002   2001   2003   2004     1  0.0000000  0.6508444  3
   2002   2001   2003   2006     1  0.0000000  0.6508444  3
   2003   2001   2002   2012     1  0.0000000  0.6508444  3
   2003   2001   2002   2013     1  0.0000000  0.6508444  3
   2004   2003   2005   2009     1  0.0000000  0.6508444  3
   2004   2003   2005   2007     1  0.0000000  0.6508444  3
   2004   2003   2005   2008     1  0.0000000  0.6508444  3
   2004   2003   2001   2022     1  0.0000000  0.6508444  3
   2005   2009   2010   2020     1  180.0000771  9.6232000  2
   2005   2003   2001   2022     1  0.0000000  0.6508444  3
   2006   2003   2005   2009     1  0.0000000  0.6508444  3
   2006   2003   2005   2007     1  0.0000000  0.6508444  3
   2006   2003   2005   2008     1  0.0000000  0.6508444  3
   2006   2003   2001   2022     1  0.0000000  0.6508444  3
   2007   2005   2009   2010     1  180.0000771  0.0000000  2
   2007   2005   2009   2011     1  0.0000000  3.3472000  1
   2007   2005   2009   2011     1  0.0000000  0.0000000  2
   2007   2005   2009   2011     1  180.0000771  0.3347200  3
   2008   2005   2009   2010     1  180.0000771  0.0000000  2
   2008   2005   2009   2011     1  0.0000000  3.3472000  1
   2008   2005   2009   2011     1  0.0000000  0.0000000  2
   2008   2005   2009   2011     1  180.0000771  0.3347200  3
   2011   2009   2010   2020     1  0.0000000  7.9496000  1
   2011   2009   2010   2020     1  180.0000771  9.6232000  2
   2012   2002   2014   2017     1  0.0000000  0.6508444  3
   2012   2002   2014   2015     1  0.0000000  0.6508444  3
   2012   2002   2014   2016     1  0.0000000  0.6508444  3
   2012   2002   2001   2022     1  0.0000000  0.6508444  3
   2013   2002   2014   2017     1  0.0000000  0.6508444  3
   2013   2002   2014   2015     1  0.0000000  0.6508444  3
   2013   2002   2014   2016     1  0.0000000  0.6508444  3
   2013   2002   2001   2022     1  0.0000000  0.6508444  3
   2014   2017   2019   2021     1  180.0000771  9.6232000  2
   2014   2002   2001   2022     1  0.0000000  0.6508444  3
   2015   2014   2017   2018     1  0.0000000  3.3472000  1
   2015   2014   2017   2018     1  0.0000000  0.0000000  2
   2015   2014   2017   2018     1  180.0000771  0.3347200  3
   2015   2014   2017   2019     1  180.0000771  0.0000000  2
   2016   2014   2017   2018     1  0.0000000  3.3472000  1
   2016   2014   2017   2018     1  0.0000000  0.0000000  2
   2016   2014   2017   2018     1  180.0000771  0.3347200  3
   2016   2014   2017   2019     1  180.0000771  0.0000000  2
   2018   2017   2019   2021     1  0.0000000  7.9496000  1
   2018   2017   2019   2021     1  180.0000771  9.6232000  2
   2023   2025   2027   2029     1  0.0000000  0.6508444  3
   2023   2025   2027   2030     1  0.0000000  0.6508444  3
   2024   2023   2025   2027     1  0.0000000  0.0000000  2
   2024   2023   2025   2026     1  0.0000000  0.0000000  2
   2024   2023   2025   2028     1  0.0000000  0.0000000  2
   2025   2027   2031   2052     1  0.0000000  0.6508444  3
   2026   2025   2027   2031     1  0.0000000  0.6508444  3
   2026   2025   2027   2029     1  0.0000000  0.6508444  3
   2026   2025   2027   2030     1  0.0000000  0.6508444  3
   2027   2031   2032   2042     1  0.0000000  0.6508444  3
   2027   2031   2032   2043     1  0.0000000  0.6508444  3
   2027   2031   2033   2034     1  0.0000000  0.6508444  3
   2027   2031   2033   2036     1  0.0000000  0.6508444  3
   2028   2025   2027   2031     1  0.0000000  0.6508444  3
   2028   2025   2027   2029     1  0.0000000  0.6508444  3
   2028   2025   2027   2030     1  0.0000000  0.6508444  3
   2029   2027   2031   2032     1  0.0000000  0.6508444  3
   2029   2027   2031   2033     1  0.0000000  0.6508444  3
   2029   2027   2031   2052     1  0.0000000  0.6508444  3
   2030   2027   2031   2032     1  0.0000000  0.6508444  3
   2030   2027   2031   2033     1  0.0000000  0.6508444  3
   2030   2027   2031   2052     1  0.0000000  0.6508444  3
   2031   2032   2044   2045     1  0.0000000  0.6508444  3
   2031   2032   2044   2046     1  0.0000000  0.6508444  3
   2031   2033   2035   2037     1  0.0000000  0.6508444  3
   2031   2033   2035   2038     1  0.0000000  0.6508444  3
   2032   2031   2033   2034     1  0.0000000  0.6508444  3
   2032   2031   2033   2036     1  0.0000000  0.6508444  3
   2033   2031   2032   2042     1  0.0000000  0.6508444  3
   2033   2031   2032   2043     1  0.0000000  0.6508444  3
   2034   2033   2031   2052     1  0.0000000  0.6508444  3
   2034   2033   2035   2039     1  0.0000000  0.6508444  3
   2034   2033   2035   2037     1  0.0000000  0.6508444  3
   2034   2033   2035   2038     1  0.0000000  0.6508444  3
   2035   2033   2031   2052     1  0.0000000  0.6508444  3
   2035   2039   2040   2050     1  180.0000771  9.6232000  2
   2036   2033   2031   2052     1  0.0000000  0.6508444  3
   2036   2033   2035   2039     1  0.0000000  0.6508444  3
   2036   2033   2035   2037     1  0.0000000  0.6508444  3
   2036   2033   2035   2038     1  0.0000000  0.6508444  3
   2037   2035   2039   2040     1  180.0000771  0.0000000  2
   2037   2035   2039   2041     1  0.0000000  3.3472000  1
   2037   2035   2039   2041     1  0.0000000  0.0000000  2
   2037   2035   2039   2041     1  180.0000771  0.3347200  3
   2038   2035   2039   2040     1  180.0000771  0.0000000  2
   2038   2035   2039   2041     1  0.0000000  3.3472000  1
   2038   2035   2039   2041     1  0.0000000  0.0000000  2
   2038   2035   2039   2041     1  180.0000771  0.3347200  3
   2041   2039   2040   2050     1  0.0000000  7.9496000  1
   2041   2039   2040   2050     1  180.0000771  9.6232000  2
   2042   2032   2031   2052     1  0.0000000  0.6508444  3
   2042   2032   2044   2047     1  0.0000000  0.6508444  3
   2042   2032   2044   2045     1  0.0000000  0.6508444  3
   2042   2032   2044   2046     1  0.0000000  0.6508444  3
   2043   2032   2031   2052     1  0.0000000  0.6508444  3
   2043   2032   2044   2047     1  0.0000000  0.6508444  3
   2043   2032   2044   2045     1  0.0000000  0.6508444  3
   2043   2032   2044   2046     1  0.0000000  0.6508444  3
   2044   2032   2031   2052     1  0.0000000  0.6508444  3
   2044   2047   2049   2051     1  180.0000771  9.6232000  2
   2045   2044   2047   2048     1  0.0000000  3.3472000  1
   2045   2044   2047   2048     1  0.0000000  0.0000000  2
   2045   2044   2047   2048     1  180.0000771  0.3347200  3
   2045   2044   2047   2049     1  180.0000771  0.0000000  2
   2046   2044   2047   2048     1  0.0000000  3.3472000  1
   2046   2044   2047   2048     1  0.0000000  0.0000000  2
   2046   2044   2047   2048     1  180.0000771  0.3347200  3
   2046   2044   2047   2049     1  180.0000771  0.0000000  2
   2048   2047   2049   2051     1  0.0000000  7.9496000  1
   2048   2047   2049   2051     1  180.0000771  9.6232000  2
   2053   2055   2057   2059     1  0.0000000  0.6508444  3
   2053   2055   2057   2060     1  0.0000000  0.6508444  3
   2054   2053   2055   2057     1  0.0000000  0.0000000  2
   2054   2053   2055   2056     1  0.0000000  0.0000000  2
   2054   2053   2055   2058     1  0.0000000  0.0000000  2
   2055   2057   2061   2082     1  0.0000000  0.6508444  3
   2056   2055   2057   2061     1  0.0000000  0.6508444  3
   2056   2055   2057   2059     1  0.0000000  0.6508444  3
   2056   2055   2057   2060     1  0.0000000  0.6508444  3
   2057   2061   2062   2072     1  0.0000000  0.6508444  3
   2057   2061   2062   2073     1  0.0000000  0.6508444  3
   2057   2061   2063   2064     1  0.0000000  0.6508444  3
   2057   2061   2063   2066     1  0.0000000  0.6508444  3
   2058   2055   2057   2061     1  0.0000000  0.6508444  3
   2058   2055   2057   2059     1  0.0000000  0.6508444  3
   2058   2055   2057   2060     1  0.0000000  0.6508444  3
   2059   2057   2061   2062     1  0.0000000  0.6508444  3
   2059   2057   2061   2063     1  0.0000000  0.6508444  3
   2059   2057   2061   2082     1  0.0000000  0.6508444  3
   2060   2057   2061   2062     1  0.0000000  0.6508444  3
   2060   2057   2061   2063     1  0.0000000  0.6508444  3
   2060   2057   2061   2082     1  0.0000000  0.6508444  3
   2061   2062   2074   2075     1  0.0000000  0.6508444  3
   2061   2062   2074   2076     1  0.0000000  0.6508444  3
   2061   2063   2065   2067     1  0.0000000  0.6508444  3
   2061   2063   2065   2068     1  0.0000000  0.6508444  3
   2062   2061   2063   2064     1  0.0000000  0.6508444  3
   2062   2061   2063   2066     1  0.0000000  0.6508444  3
   2063   2061   2062   2072     1  0.0000000  0.6508444  3
   2063   2061   2062   2073     1  0.0000000  0.6508444  3
   2064   2063   2065   2069     1  0.0000000  0.6508444  3
   2064   2063   2065   2067     1  0.0000000  0.6508444  3
   2064   2063   2065   2068     1  0.0000000  0.6508444  3
   2064   2063   2061   2082     1  0.0000000  0.6508444  3
   2065   2069   2070   2080     1  180.0000771  9.6232000  2
   2065   2063   2061   2082     1  0.0000000  0.6508444  3
   2066   2063   2065   2069     1  0.0000000  0.6508444  3
   2066   2063   2065   2067     1  0.0000000  0.6508444  3
   2066   2063   2065   2068     1  0.0000000  0.6508444  3
   2066   2063   2061   2082     1  0.0000000  0.6508444  3
   2067   2065   2069   2070     1  180.0000771  0.0000000  2
   2067   2065   2069   2071     1  0.0000000  3.3472000  1
   2067   2065   2069   2071     1  0.0000000  0.0000000  2
   2067   2065   2069   2071     1  180.0000771  0.3347200  3
   2068   2065   2069   2070     1  180.0000771  0.0000000  2
   2068   2065   2069   2071     1  0.0000000  3.3472000  1
   2068   2065   2069   2071     1  0.0000000  0.0000000  2
   2068   2065   2069   2071     1  180.0000771  0.3347200  3
   2071   2069   2070   2080     1  0.0000000  7.9496000  1
   2071   2069   2070   2080     1  180.0000771  9.6232000  2
   2072   2062   2074   2077     1  0.0000000  0.6508444  3
   2072   2062   2074   2075     1  0.0000000  0.6508444  3
   2072   2062   2074   2076     1  0.0000000  0.6508444  3
   2072   2062   2061   2082     1  0.0000000  0.6508444  3
   2073   2062   2074   2077     1  0.0000000  0.6508444  3
   2073   2062   2074   2075     1  0.0000000  0.6508444  3
   2073   2062   2074   2076     1  0.0000000  0.6508444  3
   2073   2062   2061   2082     1  0.0000000  0.6508444  3
   2074   2077   2079   2081     1  180.0000771  9.6232000  2
   2074   2062   2061   2082     1  0.0000000  0.6508444  3
   2075   2074   2077   2078     1  0.0000000  3.3472000  1
   2075   2074   2077   2078     1  0.0000000  0.0000000  2
   2075   2074   2077   2078     1  180.0000771  0.3347200  3
   2075   2074   2077   2079     1  180.0000771  0.0000000  2
   2076   2074   2077   2078     1  0.0000000  3.3472000  1
   2076   2074   2077   2078     1  0.0000000  0.0000000  2
   2076   2074   2077   2078     1  180.0000771  0.3347200  3
   2076   2074   2077   2079     1  180.0000771  0.0000000  2
   2078   2077   2079   2081     1  0.0000000  7.9496000  1
   2078   2077   2079   2081     1  180.0000771  9.6232000  2
   2083   2085   2087   2089     1  0.0000000  0.6508444  3
   2083   2085   2087   2090     1  0.0000000  0.6508444  3
   2084   2083   2085   2087     1  0.0000000  0.0000000  2
   2084   2083   2085   2086     1  0.0000000  0.0000000  2
   2084   2083   2085   2088     1  0.0000000  0.0000000  2
   2085   2087   2091   2112     1  0.0000000  0.6508444  3
   2086   2085   2087   2091     1  0.0000000  0.6508444  3
   2086   2085   2087   2089     1  0.0000000  0.6508444  3
   2086   2085   2087   2090     1  0.0000000  0.6508444  3
   2087   2091   2092   2102     1  0.0000000  0.6508444  3
   2087   2091   2092   2103     1  0.0000000  0.6508444  3
   2087   2091   2093   2094     1  0.0000000  0.6508444  3
   2087   2091   2093   2096     1  0.0000000  0.6508444  3
   2088   2085   2087   2091     1  0.0000000  0.6508444  3
   2088   2085   2087   2089     1  0.0000000  0.6508444  3
   2088   2085   2087   2090     1  0.0000000  0.6508444  3
   2089   2087   2091   2092     1  0.0000000  0.6508444  3
   2089   2087   2091   2093     1  0.0000000  0.6508444  3
   2089   2087   2091   2112     1  0.0000000  0.6508444  3
   2090   2087   2091   2092     1  0.0000000  0.6508444  3
   2090   2087   2091   2093     1  0.0000000  0.6508444  3
   2090   2087   2091   2112     1  0.0000000  0.6508444  3
   2091   2092   2104   2105     1  0.0000000  0.6508444  3
   2091   2092   2104   2106     1  0.0000000  0.6508444  3
   2091   2093   2095   2097     1  0.0000000  0.6508444  3
   2091   2093   2095   2098     1  0.0000000  0.6508444  3
   2092   2091   2093   2094     1  0.0000000  0.6508444  3
   2092   2091   2093   2096     1  0.0000000  0.6508444  3
   2093   2091   2092   2102     1  0.0000000  0.6508444  3
   2093   2091   2092   2103     1  0.0000000  0.6508444  3
   2094   2093   2091   2112     1  0.0000000  0.6508444  3
   2094   2093   2095   2099     1  0.0000000  0.6508444  3
   2094   2093   2095   2097     1  0.0000000  0.6508444  3
   2094   2093   2095   2098     1  0.0000000  0.6508444  3
   2095   2093   2091   2112     1  0.0000000  0.6508444  3
   2095   2099   2100   2110     1  180.0000771  9.6232000  2
   2096   2093   2091   2112     1  0.0000000  0.6508444  3
   2096   2093   2095   2099     1  0.0000000  0.6508444  3
   2096   2093   2095   2097     1  0.0000000  0.6508444  3
   2096   2093   2095   2098     1  0.0000000  0.6508444  3
   2097   2095   2099   2100     1  180.0000771  0.0000000  2
   2097   2095   2099   2101     1  0.0000000  3.3472000  1
   2097   2095   2099   2101     1  0.0000000  0.0000000  2
   2097   2095   2099   2101     1  180.0000771  0.3347200  3
   2098   2095   2099   2100     1  180.0000771  0.0000000  2
   2098   2095   2099   2101     1  0.0000000  3.3472000  1
   2098   2095   2099   2101     1  0.0000000  0.0000000  2
   2098   2095   2099   2101     1  180.0000771  0.3347200  3
   2101   2099   2100   2110     1  0.0000000  7.9496000  1
   2101   2099   2100   2110     1  180.0000771  9.6232000  2
   2102   2092   2091   2112     1  0.0000000  0.6508444  3
   2102   2092   2104   2107     1  0.0000000  0.6508444  3
   2102   2092   2104   2105     1  0.0000000  0.6508444  3
   2102   2092   2104   2106     1  0.0000000  0.6508444  3
   2103   2092   2091   2112     1  0.0000000  0.6508444  3
   2103   2092   2104   2107     1  0.0000000  0.6508444  3
   2103   2092   2104   2105     1  0.0000000  0.6508444  3
   2103   2092   2104   2106     1  0.0000000  0.6508444  3
   2104   2092   2091   2112     1  0.0000000  0.6508444  3
   2104   2107   2109   2111     1  180.0000771  9.6232000  2
   2105   2104   2107   2108     1  0.0000000  3.3472000  1
   2105   2104   2107   2108     1  0.0000000  0.0000000  2
   2105   2104   2107   2108     1  180.0000771  0.3347200  3
   2105   2104   2107   2109     1  180.0000771  0.0000000  2
   2106   2104   2107   2108     1  0.0000000  3.3472000  1
   2106   2104   2107   2108     1  0.0000000  0.0000000  2
   2106   2104   2107   2108     1  180.0000771  0.3347200  3
   2106   2104   2107   2109     1  180.0000771  0.0000000  2
   2108   2107   2109   2111     1  0.0000000  7.9496000  1
   2108   2107   2109   2111     1  180.0000771  9.6232000  2
   2113   2115   2117   2119     1  0.0000000  0.6508444  3
   2113   2115   2117   2120     1  0.0000000  0.6508444  3
   2114   2113   2115   2117     1  0.0000000  0.0000000  2
   2114   2113   2115   2116     1  0.0000000  0.0000000  2
   2114   2113   2115   2118     1  0.0000000  0.0000000  2
   2115   2117   2121   2142     1  0.0000000  0.6508444  3
   2116   2115   2117   2121     1  0.0000000  0.6508444  3
   2116   2115   2117   2119     1  0.0000000  0.6508444  3
   2116   2115   2117   2120     1  0.0000000  0.6508444  3
   2117   2121   2122   2132     1  0.0000000  0.6508444  3
   2117   2121   2122   2133     1  0.0000000  0.6508444  3
   2117   2121   2123   2124     1  0.0000000  0.6508444  3
   2117   2121   2123   2126     1  0.0000000  0.6508444  3
   2118   2115   2117   2121     1  0.0000000  0.6508444  3
   2118   2115   2117   2119     1  0.0000000  0.6508444  3
   2118   2115   2117   2120     1  0.0000000  0.6508444  3
   2119   2117   2121   2122     1  0.0000000  0.6508444  3
   2119   2117   2121   2123     1  0.0000000  0.6508444  3
   2119   2117   2121   2142     1  0.0000000  0.6508444  3
   2120   2117   2121   2122     1  0.0000000  0.6508444  3
   2120   2117   2121   2123     1  0.0000000  0.6508444  3
   2120   2117   2121   2142     1  0.0000000  0.6508444  3
   2121   2122   2134   2135     1  0.0000000  0.6508444  3
   2121   2122   2134   2136     1  0.0000000  0.6508444  3
   2121   2123   2125   2127     1  0.0000000  0.6508444  3
   2121   2123   2125   2128     1  0.0000000  0.6508444  3
   2122   2121   2123   2124     1  0.0000000  0.6508444  3
   2122   2121   2123   2126     1  0.0000000  0.6508444  3
   2123   2121   2122   2132     1  0.0000000  0.6508444  3
   2123   2121   2122   2133     1  0.0000000  0.6508444  3
   2124   2123   2125   2129     1  0.0000000  0.6508444  3
   2124   2123   2125   2127     1  0.0000000  0.6508444  3
   2124   2123   2125   2128     1  0.0000000  0.6508444  3
   2124   2123   2121   2142     1  0.0000000  0.6508444  3
   2125   2129   2130   2140     1  180.0000771  9.6232000  2
   2125   2123   2121   2142     1  0.0000000  0.6508444  3
   2126   2123   2125   2129     1  0.0000000  0.6508444  3
   2126   2123   2125   2127     1  0.0000000  0.6508444  3
   2126   2123   2125   2128     1  0.0000000  0.6508444  3
   2126   2123   2121   2142     1  0.0000000  0.6508444  3
   2127   2125   2129   2130     1  180.0000771  0.0000000  2
   2127   2125   2129   2131     1  0.0000000  3.3472000  1
   2127   2125   2129   2131     1  0.0000000  0.0000000  2
   2127   2125   2129   2131     1  180.0000771  0.3347200  3
   2128   2125   2129   2130     1  180.0000771  0.0000000  2
   2128   2125   2129   2131     1  0.0000000  3.3472000  1
   2128   2125   2129   2131     1  0.0000000  0.0000000  2
   2128   2125   2129   2131     1  180.0000771  0.3347200  3
   2131   2129   2130   2140     1  0.0000000  7.9496000  1
   2131   2129   2130   2140     1  180.0000771  9.6232000  2
   2132   2122   2134   2137     1  0.0000000  0.6508444  3
   2132   2122   2134   2135     1  0.0000000  0.6508444  3
   2132   2122   2134   2136     1  0.0000000  0.6508444  3
   2132   2122   2121   2142     1  0.0000000  0.6508444  3
   2133   2122   2134   2137     1  0.0000000  0.6508444  3
   2133   2122   2134   2135     1  0.0000000  0.6508444  3
   2133   2122   2134   2136     1  0.0000000  0.6508444  3
   2133   2122   2121   2142     1  0.0000000  0.6508444  3
   2134   2137   2139   2141     1  180.0000771  9.6232000  2
   2134   2122   2121   2142     1  0.0000000  0.6508444  3
   2135   2134   2137   2138     1  0.0000000  3.3472000  1
   2135   2134   2137   2138     1  0.0000000  0.0000000  2
   2135   2134   2137   2138     1  180.0000771  0.3347200  3
   2135   2134   2137   2139     1  180.0000771  0.0000000  2
   2136   2134   2137   2138     1  0.0000000  3.3472000  1
   2136   2134   2137   2138     1  0.0000000  0.0000000  2
   2136   2134   2137   2138     1  180.0000771  0.3347200  3
   2136   2134   2137   2139     1  180.0000771  0.0000000  2
   2138   2137   2139   2141     1  0.0000000  7.9496000  1
   2138   2137   2139   2141     1  180.0000771  9.6232000  2
   2143   2145   2147   2149     1  0.0000000  0.6508444  3
   2143   2145   2147   2150     1  0.0000000  0.6508444  3
   2144   2143   2145   2147     1  0.0000000  0.0000000  2
   2144   2143   2145   2146     1  0.0000000  0.0000000  2
   2144   2143   2145   2148     1  0.0000000  0.0000000  2
   2145   2147   2151   2172     1  0.0000000  0.6508444  3
   2146   2145   2147   2151     1  0.0000000  0.6508444  3
   2146   2145   2147   2149     1  0.0000000  0.6508444  3
   2146   2145   2147   2150     1  0.0000000  0.6508444  3
   2147   2151   2152   2162     1  0.0000000  0.6508444  3
   2147   2151   2152   2163     1  0.0000000  0.6508444  3
   2147   2151   2153   2154     1  0.0000000  0.6508444  3
   2147   2151   2153   2156     1  0.0000000  0.6508444  3
   2148   2145   2147   2151     1  0.0000000  0.6508444  3
   2148   2145   2147   2149     1  0.0000000  0.6508444  3
   2148   2145   2147   2150     1  0.0000000  0.6508444  3
   2149   2147   2151   2152     1  0.0000000  0.6508444  3
   2149   2147   2151   2153     1  0.0000000  0.6508444  3
   2149   2147   2151   2172     1  0.0000000  0.6508444  3
   2150   2147   2151   2152     1  0.0000000  0.6508444  3
   2150   2147   2151   2153     1  0.0000000  0.6508444  3
   2150   2147   2151   2172     1  0.0000000  0.6508444  3
   2151   2152   2164   2165     1  0.0000000  0.6508444  3
   2151   2152   2164   2166     1  0.0000000  0.6508444  3
   2151   2153   2155   2157     1  0.0000000  0.6508444  3
   2151   2153   2155   2158     1  0.0000000  0.6508444  3
   2152   2151   2153   2154     1  0.0000000  0.6508444  3
   2152   2151   2153   2156     1  0.0000000  0.6508444  3
   2153   2151   2152   2162     1  0.0000000  0.6508444  3
   2153   2151   2152   2163     1  0.0000000  0.6508444  3
   2154   2153   2151   2172     1  0.0000000  0.6508444  3
   2154   2153   2155   2159     1  0.0000000  0.6508444  3
   2154   2153   2155   2157     1  0.0000000  0.6508444  3
   2154   2153   2155   2158     1  0.0000000  0.6508444  3
   2155   2153   2151   2172     1  0.0000000  0.6508444  3
   2155   2159   2160   2170     1  180.0000771  9.6232000  2
   2156   2153   2151   2172     1  0.0000000  0.6508444  3
   2156   2153   2155   2159     1  0.0000000  0.6508444  3
   2156   2153   2155   2157     1  0.0000000  0.6508444  3
   2156   2153   2155   2158     1  0.0000000  0.6508444  3
   2157   2155   2159   2160     1  180.0000771  0.0000000  2
   2157   2155   2159   2161     1  0.0000000  3.3472000  1
   2157   2155   2159   2161     1  0.0000000  0.0000000  2
   2157   2155   2159   2161     1  180.0000771  0.3347200  3
   2158   2155   2159   2160     1  180.0000771  0.0000000  2
   2158   2155   2159   2161     1  0.0000000  3.3472000  1
   2158   2155   2159   2161     1  0.0000000  0.0000000  2
   2158   2155   2159   2161     1  180.0000771  0.3347200  3
   2161   2159   2160   2170     1  0.0000000  7.9496000  1
   2161   2159   2160   2170     1  180.0000771  9.6232000  2
   2162   2152   2151   2172     1  0.0000000  0.6508444  3
   2162   2152   2164   2167     1  0.0000000  0.6508444  3
   2162   2152   2164   2165     1  0.0000000  0.6508444  3
   2162   2152   2164   2166     1  0.0000000  0.6508444  3
   2163   2152   2151   2172     1  0.0000000  0.6508444  3
   2163   2152   2164   2167     1  0.0000000  0.6508444  3
   2163   2152   2164   2165     1  0.0000000  0.6508444  3
   2163   2152   2164   2166     1  0.0000000  0.6508444  3
   2164   2152   2151   2172     1  0.0000000  0.6508444  3
   2164   2167   2169   2171     1  180.0000771  9.6232000  2
   2165   2164   2167   2168     1  0.0000000  3.3472000  1
   2165   2164   2167   2168     1  0.0000000  0.0000000  2
   2165   2164   2167   2168     1  180.0000771  0.3347200  3
   2165   2164   2167   2169     1  180.0000771  0.0000000  2
   2166   2164   2167   2168     1  0.0000000  3.3472000  1
   2166   2164   2167   2168     1  0.0000000  0.0000000  2
   2166   2164   2167   2168     1  180.0000771  0.3347200  3
   2166   2164   2167   2169     1  180.0000771  0.0000000  2
   2168   2167   2169   2171     1  0.0000000  7.9496000  1
   2168   2167   2169   2171     1  180.0000771  9.6232000  2
   2173   2175   2177   2179     1  0.0000000  0.6508444  3
   2173   2175   2177   2180     1  0.0000000  0.6508444  3
   2174   2173   2175   2177     1  0.0000000  0.0000000  2
   2174   2173   2175   2176     1  0.0000000  0.0000000  2
   2174   2173   2175   2178     1  0.0000000  0.0000000  2
   2175   2177   2181   2202     1  0.0000000  0.6508444  3
   2176   2175   2177   2181     1  0.0000000  0.6508444  3
   2176   2175   2177   2179     1  0.0000000  0.6508444  3
   2176   2175   2177   2180     1  0.0000000  0.6508444  3
   2177   2181   2182   2192     1  0.0000000  0.6508444  3
   2177   2181   2182   2193     1  0.0000000  0.6508444  3
   2177   2181   2183   2184     1  0.0000000  0.6508444  3
   2177   2181   2183   2186     1  0.0000000  0.6508444  3
   2178   2175   2177   2181     1  0.0000000  0.6508444  3
   2178   2175   2177   2179     1  0.0000000  0.6508444  3
   2178   2175   2177   2180     1  0.0000000  0.6508444  3
   2179   2177   2181   2182     1  0.0000000  0.6508444  3
   2179   2177   2181   2183     1  0.0000000  0.6508444  3
   2179   2177   2181   2202     1  0.0000000  0.6508444  3
   2180   2177   2181   2182     1  0.0000000  0.6508444  3
   2180   2177   2181   2183     1  0.0000000  0.6508444  3
   2180   2177   2181   2202     1  0.0000000  0.6508444  3
   2181   2182   2194   2195     1  0.0000000  0.6508444  3
   2181   2182   2194   2196     1  0.0000000  0.6508444  3
   2181   2183   2185   2187     1  0.0000000  0.6508444  3
   2181   2183   2185   2188     1  0.0000000  0.6508444  3
   2182   2181   2183   2184     1  0.0000000  0.6508444  3
   2182   2181   2183   2186     1  0.0000000  0.6508444  3
   2183   2181   2182   2192     1  0.0000000  0.6508444  3
   2183   2181   2182   2193     1  0.0000000  0.6508444  3
   2184   2183   2185   2189     1  0.0000000  0.6508444  3
   2184   2183   2185   2187     1  0.0000000  0.6508444  3
   2184   2183   2185   2188     1  0.0000000  0.6508444  3
   2184   2183   2181   2202     1  0.0000000  0.6508444  3
   2185   2189   2190   2200     1  180.0000771  9.6232000  2
   2185   2183   2181   2202     1  0.0000000  0.6508444  3
   2186   2183   2185   2189     1  0.0000000  0.6508444  3
   2186   2183   2185   2187     1  0.0000000  0.6508444  3
   2186   2183   2185   2188     1  0.0000000  0.6508444  3
   2186   2183   2181   2202     1  0.0000000  0.6508444  3
   2187   2185   2189   2190     1  180.0000771  0.0000000  2
   2187   2185   2189   2191     1  0.0000000  3.3472000  1
   2187   2185   2189   2191     1  0.0000000  0.0000000  2
   2187   2185   2189   2191     1  180.0000771  0.3347200  3
   2188   2185   2189   2190     1  180.0000771  0.0000000  2
   2188   2185   2189   2191     1  0.0000000  3.3472000  1
   2188   2185   2189   2191     1  0.0000000  0.0000000  2
   2188   2185   2189   2191     1  180.0000771  0.3347200  3
   2191   2189   2190   2200     1  0.0000000  7.9496000  1
   2191   2189   2190   2200     1  180.0000771  9.6232000  2
   2192   2182   2194   2197     1  0.0000000  0.6508444  3
   2192   2182   2194   2195     1  0.0000000  0.6508444  3
   2192   2182   2194   2196     1  0.0000000  0.6508444  3
   2192   2182   2181   2202     1  0.0000000  0.6508444  3
   2193   2182   2194   2197     1  0.0000000  0.6508444  3
   2193   2182   2194   2195     1  0.0000000  0.6508444  3
   2193   2182   2194   2196     1  0.0000000  0.6508444  3
   2193   2182   2181   2202     1  0.0000000  0.6508444  3
   2194   2197   2199   2201     1  180.0000771  9.6232000  2
   2194   2182   2181   2202     1  0.0000000  0.6508444  3
   2195   2194   2197   2198     1  0.0000000  3.3472000  1
   2195   2194   2197   2198     1  0.0000000  0.0000000  2
   2195   2194   2197   2198     1  180.0000771  0.3347200  3
   2195   2194   2197   2199     1  180.0000771  0.0000000  2
   2196   2194   2197   2198     1  0.0000000  3.3472000  1
   2196   2194   2197   2198     1  0.0000000  0.0000000  2
   2196   2194   2197   2198     1  180.0000771  0.3347200  3
   2196   2194   2197   2199     1  180.0000771  0.0000000  2
   2198   2197   2199   2201     1  0.0000000  7.9496000  1
   2198   2197   2199   2201     1  180.0000771  9.6232000  2
   2203   2205   2207   2209     1  0.0000000  0.6508444  3
   2203   2205   2207   2210     1  0.0000000  0.6508444  3
   2204   2203   2205   2207     1  0.0000000  0.0000000  2
   2204   2203   2205   2206     1  0.0000000  0.0000000  2
   2204   2203   2205   2208     1  0.0000000  0.0000000  2
   2205   2207   2211   2232     1  0.0000000  0.6508444  3
   2206   2205   2207   2211     1  0.0000000  0.6508444  3
   2206   2205   2207   2209     1  0.0000000  0.6508444  3
   2206   2205   2207   2210     1  0.0000000  0.6508444  3
   2207   2211   2212   2222     1  0.0000000  0.6508444  3
   2207   2211   2212   2223     1  0.0000000  0.6508444  3
   2207   2211   2213   2214     1  0.0000000  0.6508444  3
   2207   2211   2213   2216     1  0.0000000  0.6508444  3
   2208   2205   2207   2211     1  0.0000000  0.6508444  3
   2208   2205   2207   2209     1  0.0000000  0.6508444  3
   2208   2205   2207   2210     1  0.0000000  0.6508444  3
   2209   2207   2211   2212     1  0.0000000  0.6508444  3
   2209   2207   2211   2213     1  0.0000000  0.6508444  3
   2209   2207   2211   2232     1  0.0000000  0.6508444  3
   2210   2207   2211   2212     1  0.0000000  0.6508444  3
   2210   2207   2211   2213     1  0.0000000  0.6508444  3
   2210   2207   2211   2232     1  0.0000000  0.6508444  3
   2211   2212   2224   2225     1  0.0000000  0.6508444  3
   2211   2212   2224   2226     1  0.0000000  0.6508444  3
   2211   2213   2215   2217     1  0.0000000  0.6508444  3
   2211   2213   2215   2218     1  0.0000000  0.6508444  3
   2212   2211   2213   2214     1  0.0000000  0.6508444  3
   2212   2211   2213   2216     1  0.0000000  0.6508444  3
   2213   2211   2212   2222     1  0.0000000  0.6508444  3
   2213   2211   2212   2223     1  0.0000000  0.6508444  3
   2214   2213   2211   2232     1  0.0000000  0.6508444  3
   2214   2213   2215   2219     1  0.0000000  0.6508444  3
   2214   2213   2215   2217     1  0.0000000  0.6508444  3
   2214   2213   2215   2218     1  0.0000000  0.6508444  3
   2215   2213   2211   2232     1  0.0000000  0.6508444  3
   2215   2219   2220   2230     1  180.0000771  9.6232000  2
   2216   2213   2211   2232     1  0.0000000  0.6508444  3
   2216   2213   2215   2219     1  0.0000000  0.6508444  3
   2216   2213   2215   2217     1  0.0000000  0.6508444  3
   2216   2213   2215   2218     1  0.0000000  0.6508444  3
   2217   2215   2219   2220     1  180.0000771  0.0000000  2
   2217   2215   2219   2221     1  0.0000000  3.3472000  1
   2217   2215   2219   2221     1  0.0000000  0.0000000  2
   2217   2215   2219   2221     1  180.0000771  0.3347200  3
   2218   2215   2219   2220     1  180.0000771  0.0000000  2
   2218   2215   2219   2221     1  0.0000000  3.3472000  1
   2218   2215   2219   2221     1  0.0000000  0.0000000  2
   2218   2215   2219   2221     1  180.0000771  0.3347200  3
   2221   2219   2220   2230     1  0.0000000  7.9496000  1
   2221   2219   2220   2230     1  180.0000771  9.6232000  2
   2222   2212   2211   2232     1  0.0000000  0.6508444  3
   2222   2212   2224   2227     1  0.0000000  0.6508444  3
   2222   2212   2224   2225     1  0.0000000  0.6508444  3
   2222   2212   2224   2226     1  0.0000000  0.6508444  3
   2223   2212   2211   2232     1  0.0000000  0.6508444  3
   2223   2212   2224   2227     1  0.0000000  0.6508444  3
   2223   2212   2224   2225     1  0.0000000  0.6508444  3
   2223   2212   2224   2226     1  0.0000000  0.6508444  3
   2224   2212   2211   2232     1  0.0000000  0.6508444  3
   2224   2227   2229   2231     1  180.0000771  9.6232000  2
   2225   2224   2227   2228     1  0.0000000  3.3472000  1
   2225   2224   2227   2228     1  0.0000000  0.0000000  2
   2225   2224   2227   2228     1  180.0000771  0.3347200  3
   2225   2224   2227   2229     1  180.0000771  0.0000000  2
   2226   2224   2227   2228     1  0.0000000  3.3472000  1
   2226   2224   2227   2228     1  0.0000000  0.0000000  2
   2226   2224   2227   2228     1  180.0000771  0.3347200  3
   2226   2224   2227   2229     1  180.0000771  0.0000000  2
   2228   2227   2229   2231     1  0.0000000  7.9496000  1
   2228   2227   2229   2231     1  180.0000771  9.6232000  2
   2233   2235   2237   2239     1  0.0000000  0.6508444  3
   2233   2235   2237   2240     1  0.0000000  0.6508444  3
   2234   2233   2235   2237     1  0.0000000  0.0000000  2
   2234   2233   2235   2236     1  0.0000000  0.0000000  2
   2234   2233   2235   2238     1  0.0000000  0.0000000  2
   2235   2237   2241   2262     1  0.0000000  0.6508444  3
   2236   2235   2237   2241     1  0.0000000  0.6508444  3
   2236   2235   2237   2239     1  0.0000000  0.6508444  3
   2236   2235   2237   2240     1  0.0000000  0.6508444  3
   2237   2241   2242   2252     1  0.0000000  0.6508444  3
   2237   2241   2242   2253     1  0.0000000  0.6508444  3
   2237   2241   2243   2244     1  0.0000000  0.6508444  3
   2237   2241   2243   2246     1  0.0000000  0.6508444  3
   2238   2235   2237   2241     1  0.0000000  0.6508444  3
   2238   2235   2237   2239     1  0.0000000  0.6508444  3
   2238   2235   2237   2240     1  0.0000000  0.6508444  3
   2239   2237   2241   2242     1  0.0000000  0.6508444  3
   2239   2237   2241   2243     1  0.0000000  0.6508444  3
   2239   2237   2241   2262     1  0.0000000  0.6508444  3
   2240   2237   2241   2242     1  0.0000000  0.6508444  3
   2240   2237   2241   2243     1  0.0000000  0.6508444  3
   2240   2237   2241   2262     1  0.0000000  0.6508444  3
   2241   2242   2254   2255     1  0.0000000  0.6508444  3
   2241   2242   2254   2256     1  0.0000000  0.6508444  3
   2241   2243   2245   2247     1  0.0000000  0.6508444  3
   2241   2243   2245   2248     1  0.0000000  0.6508444  3
   2242   2241   2243   2244     1  0.0000000  0.6508444  3
   2242   2241   2243   2246     1  0.0000000  0.6508444  3
   2243   2241   2242   2252     1  0.0000000  0.6508444  3
   2243   2241   2242   2253     1  0.0000000  0.6508444  3
   2244   2243   2245   2249     1  0.0000000  0.6508444  3
   2244   2243   2245   2247     1  0.0000000  0.6508444  3
   2244   2243   2245   2248     1  0.0000000  0.6508444  3
   2244   2243   2241   2262     1  0.0000000  0.6508444  3
   2245   2249   2250   2260     1  180.0000771  9.6232000  2
   2245   2243   2241   2262     1  0.0000000  0.6508444  3
   2246   2243   2245   2249     1  0.0000000  0.6508444  3
   2246   2243   2245   2247     1  0.0000000  0.6508444  3
   2246   2243   2245   2248     1  0.0000000  0.6508444  3
   2246   2243   2241   2262     1  0.0000000  0.6508444  3
   2247   2245   2249   2250     1  180.0000771  0.0000000  2
   2247   2245   2249   2251     1  0.0000000  3.3472000  1
   2247   2245   2249   2251     1  0.0000000  0.0000000  2
   2247   2245   2249   2251     1  180.0000771  0.3347200  3
   2248   2245   2249   2250     1  180.0000771  0.0000000  2
   2248   2245   2249   2251     1  0.0000000  3.3472000  1
   2248   2245   2249   2251     1  0.0000000  0.0000000  2
   2248   2245   2249   2251     1  180.0000771  0.3347200  3
   2251   2249   2250   2260     1  0.0000000  7.9496000  1
   2251   2249   2250   2260     1  180.0000771  9.6232000  2
   2252   2242   2254   2257     1  0.0000000  0.6508444  3
   2252   2242   2254   2255     1  0.0000000  0.6508444  3
   2252   2242   2254   2256     1  0.0000000  0.6508444  3
   2252   2242   2241   2262     1  0.0000000  0.6508444  3
   2253   2242   2254   2257     1  0.0000000  0.6508444  3
   2253   2242   2254   2255     1  0.0000000  0.6508444  3
   2253   2242   2254   2256     1  0.0000000  0.6508444  3
   2253   2242   2241   2262     1  0.0000000  0.6508444  3
   2254   2257   2259   2261     1  180.0000771  9.6232000  2
   2254   2242   2241   2262     1  0.0000000  0.6508444  3
   2255   2254   2257   2258     1  0.0000000  3.3472000  1
   2255   2254   2257   2258     1  0.0000000  0.0000000  2
   2255   2254   2257   2258     1  180.0000771  0.3347200  3
   2255   2254   2257   2259     1  180.0000771  0.0000000  2
   2256   2254   2257   2258     1  0.0000000  3.3472000  1
   2256   2254   2257   2258     1  0.0000000  0.0000000  2
   2256   2254   2257   2258     1  180.0000771  0.3347200  3
   2256   2254   2257   2259     1  180.0000771  0.0000000  2
   2258   2257   2259   2261     1  0.0000000  7.9496000  1
   2258   2257   2259   2261     1  180.0000771  9.6232000  2
   2263   2265   2267   2269     1  0.0000000  0.6508444  3
   2263   2265   2267   2270     1  0.0000000  0.6508444  3
   2264   2263   2265   2267     1  0.0000000  0.0000000  2
   2264   2263   2265   2266     1  0.0000000  0.0000000  2
   2264   2263   2265   2268     1  0.0000000  0.0000000  2
   2265   2267   2271   2292     1  0.0000000  0.6508444  3
   2266   2265   2267   2271     1  0.0000000  0.6508444  3
   2266   2265   2267   2269     1  0.0000000  0.6508444  3
   2266   2265   2267   2270     1  0.0000000  0.6508444  3
   2267   2271   2272   2282     1  0.0000000  0.6508444  3
   2267   2271   2272   2283     1  0.0000000  0.6508444  3
   2267   2271   2273   2274     1  0.0000000  0.6508444  3
   2267   2271   2273   2276     1  0.0000000  0.6508444  3
   2268   2265   2267   2271     1  0.0000000  0.6508444  3
   2268   2265   2267   2269     1  0.0000000  0.6508444  3
   2268   2265   2267   2270     1  0.0000000  0.6508444  3
   2269   2267   2271   2272     1  0.0000000  0.6508444  3
   2269   2267   2271   2273     1  0.0000000  0.6508444  3
   2269   2267   2271   2292     1  0.0000000  0.6508444  3
   2270   2267   2271   2272     1  0.0000000  0.6508444  3
   2270   2267   2271   2273     1  0.0000000  0.6508444  3
   2270   2267   2271   2292     1  0.0000000  0.6508444  3
   2271   2272   2284   2285     1  0.0000000  0.6508444  3
   2271   2272   2284   2286     1  0.0000000  0.6508444  3
   2271   2273   2275   2277     1  0.0000000  0.6508444  3
   2271   2273   2275   2278     1  0.0000000  0.6508444  3
   2272   2271   2273   2274     1  0.0000000  0.6508444  3
   2272   2271   2273   2276     1  0.0000000  0.6508444  3
   2273   2271   2272   2282     1  0.0000000  0.6508444  3
   2273   2271   2272   2283     1  0.0000000  0.6508444  3
   2274   2273   2271   2292     1  0.0000000  0.6508444  3
   2274   2273   2275   2279     1  0.0000000  0.6508444  3
   2274   2273   2275   2277     1  0.0000000  0.6508444  3
   2274   2273   2275   2278     1  0.0000000  0.6508444  3
   2275   2273   2271   2292     1  0.0000000  0.6508444  3
   2275   2279   2280   2290     1  180.0000771  9.6232000  2
   2276   2273   2271   2292     1  0.0000000  0.6508444  3
   2276   2273   2275   2279     1  0.0000000  0.6508444  3
   2276   2273   2275   2277     1  0.0000000  0.6508444  3
   2276   2273   2275   2278     1  0.0000000  0.6508444  3
   2277   2275   2279   2280     1  180.0000771  0.0000000  2
   2277   2275   2279   2281     1  0.0000000  3.3472000  1
   2277   2275   2279   2281     1  0.0000000  0.0000000  2
   2277   2275   2279   2281     1  180.0000771  0.3347200  3
   2278   2275   2279   2280     1  180.0000771  0.0000000  2
   2278   2275   2279   2281     1  0.0000000  3.3472000  1
   2278   2275   2279   2281     1  0.0000000  0.0000000  2
   2278   2275   2279   2281     1  180.0000771  0.3347200  3
   2281   2279   2280   2290     1  0.0000000  7.9496000  1
   2281   2279   2280   2290     1  180.0000771  9.6232000  2
   2282   2272   2271   2292     1  0.0000000  0.6508444  3
   2282   2272   2284   2287     1  0.0000000  0.6508444  3
   2282   2272   2284   2285     1  0.0000000  0.6508444  3
   2282   2272   2284   2286     1  0.0000000  0.6508444  3
   2283   2272   2271   2292     1  0.0000000  0.6508444  3
   2283   2272   2284   2287     1  0.0000000  0.6508444  3
   2283   2272   2284   2285     1  0.0000000  0.6508444  3
   2283   2272   2284   2286     1  0.0000000  0.6508444  3
   2284   2272   2271   2292     1  0.0000000  0.6508444  3
   2284   2287   2289   2291     1  180.0000771  9.6232000  2
   2285   2284   2287   2288     1  0.0000000  3.3472000  1
   2285   2284   2287   2288     1  0.0000000  0.0000000  2
   2285   2284   2287   2288     1  180.0000771  0.3347200  3
   2285   2284   2287   2289     1  180.0000771  0.0000000  2
   2286   2284   2287   2288     1  0.0000000  3.3472000  1
   2286   2284   2287   2288     1  0.0000000  0.0000000  2
   2286   2284   2287   2288     1  180.0000771  0.3347200  3
   2286   2284   2287   2289     1  180.0000771  0.0000000  2
   2288   2287   2289   2291     1  0.0000000  7.9496000  1
   2288   2287   2289   2291     1  180.0000771  9.6232000  2
   2293   2295   2297   2299     1  0.0000000  0.6508444  3
   2293   2295   2297   2300     1  0.0000000  0.6508444  3
   2294   2293   2295   2297     1  0.0000000  0.0000000  2
   2294   2293   2295   2296     1  0.0000000  0.0000000  2
   2294   2293   2295   2298     1  0.0000000  0.0000000  2
   2295   2297   2301   2322     1  0.0000000  0.6508444  3
   2296   2295   2297   2301     1  0.0000000  0.6508444  3
   2296   2295   2297   2299     1  0.0000000  0.6508444  3
   2296   2295   2297   2300     1  0.0000000  0.6508444  3
   2297   2301   2302   2312     1  0.0000000  0.6508444  3
   2297   2301   2302   2313     1  0.0000000  0.6508444  3
   2297   2301   2303   2304     1  0.0000000  0.6508444  3
   2297   2301   2303   2306     1  0.0000000  0.6508444  3
   2298   2295   2297   2301     1  0.0000000  0.6508444  3
   2298   2295   2297   2299     1  0.0000000  0.6508444  3
   2298   2295   2297   2300     1  0.0000000  0.6508444  3
   2299   2297   2301   2302     1  0.0000000  0.6508444  3
   2299   2297   2301   2303     1  0.0000000  0.6508444  3
   2299   2297   2301   2322     1  0.0000000  0.6508444  3
   2300   2297   2301   2302     1  0.0000000  0.6508444  3
   2300   2297   2301   2303     1  0.0000000  0.6508444  3
   2300   2297   2301   2322     1  0.0000000  0.6508444  3
   2301   2302   2314   2315     1  0.0000000  0.6508444  3
   2301   2302   2314   2316     1  0.0000000  0.6508444  3
   2301   2303   2305   2307     1  0.0000000  0.6508444  3
   2301   2303   2305   2308     1  0.0000000  0.6508444  3
   2302   2301   2303   2304     1  0.0000000  0.6508444  3
   2302   2301   2303   2306     1  0.0000000  0.6508444  3
   2303   2301   2302   2312     1  0.0000000  0.6508444  3
   2303   2301   2302   2313     1  0.0000000  0.6508444  3
   2304   2303   2305   2309     1  0.0000000  0.6508444  3
   2304   2303   2305   2307     1  0.0000000  0.6508444  3
   2304   2303   2305   2308     1  0.0000000  0.6508444  3
   2304   2303   2301   2322     1  0.0000000  0.6508444  3
   2305   2309   2310   2320     1  180.0000771  9.6232000  2
   2305   2303   2301   2322     1  0.0000000  0.6508444  3
   2306   2303   2305   2309     1  0.0000000  0.6508444  3
   2306   2303   2305   2307     1  0.0000000  0.6508444  3
   2306   2303   2305   2308     1  0.0000000  0.6508444  3
   2306   2303   2301   2322     1  0.0000000  0.6508444  3
   2307   2305   2309   2310     1  180.0000771  0.0000000  2
   2307   2305   2309   2311     1  0.0000000  3.3472000  1
   2307   2305   2309   2311     1  0.0000000  0.0000000  2
   2307   2305   2309   2311     1  180.0000771  0.3347200  3
   2308   2305   2309   2310     1  180.0000771  0.0000000  2
   2308   2305   2309   2311     1  0.0000000  3.3472000  1
   2308   2305   2309   2311     1  0.0000000  0.0000000  2
   2308   2305   2309   2311     1  180.0000771  0.3347200  3
   2311   2309   2310   2320     1  0.0000000  7.9496000  1
   2311   2309   2310   2320     1  180.0000771  9.6232000  2
   2312   2302   2314   2317     1  0.0000000  0.6508444  3
   2312   2302   2314   2315     1  0.0000000  0.6508444  3
   2312   2302   2314   2316     1  0.0000000  0.6508444  3
   2312   2302   2301   2322     1  0.0000000  0.6508444  3
   2313   2302   2314   2317     1  0.0000000  0.6508444  3
   2313   2302   2314   2315     1  0.0000000  0.6508444  3
   2313   2302   2314   2316     1  0.0000000  0.6508444  3
   2313   2302   2301   2322     1  0.0000000  0.6508444  3
   2314   2317   2319   2321     1  180.0000771  9.6232000  2
   2314   2302   2301   2322     1  0.0000000  0.6508444  3
   2315   2314   2317   2318     1  0.0000000  3.3472000  1
   2315   2314   2317   2318     1  0.0000000  0.0000000  2
   2315   2314   2317   2318     1  180.0000771  0.3347200  3
   2315   2314   2317   2319     1  180.0000771  0.0000000  2
   2316   2314   2317   2318     1  0.0000000  3.3472000  1
   2316   2314   2317   2318     1  0.0000000  0.0000000  2
   2316   2314   2317   2318     1  180.0000771  0.3347200  3
   2316   2314   2317   2319     1  180.0000771  0.0000000  2
   2318   2317   2319   2321     1  0.0000000  7.9496000  1
   2318   2317   2319   2321     1  180.0000771  9.6232000  2
   2323   2325   2327   2329     1  0.0000000  0.6508444  3
   2323   2325   2327   2330     1  0.0000000  0.6508444  3
   2324   2323   2325   2327     1  0.0000000  0.0000000  2
   2324   2323   2325   2326     1  0.0000000  0.0000000  2
   2324   2323   2325   2328     1  0.0000000  0.0000000  2
   2325   2327   2331   2352     1  0.0000000  0.6508444  3
   2326   2325   2327   2331     1  0.0000000  0.6508444  3
   2326   2325   2327   2329     1  0.0000000  0.6508444  3
   2326   2325   2327   2330     1  0.0000000  0.6508444  3
   2327   2331   2332   2342     1  0.0000000  0.6508444  3
   2327   2331   2332   2343     1  0.0000000  0.6508444  3
   2327   2331   2333   2334     1  0.0000000  0.6508444  3
   2327   2331   2333   2336     1  0.0000000  0.6508444  3
   2328   2325   2327   2331     1  0.0000000  0.6508444  3
   2328   2325   2327   2329     1  0.0000000  0.6508444  3
   2328   2325   2327   2330     1  0.0000000  0.6508444  3
   2329   2327   2331   2332     1  0.0000000  0.6508444  3
   2329   2327   2331   2333     1  0.0000000  0.6508444  3
   2329   2327   2331   2352     1  0.0000000  0.6508444  3
   2330   2327   2331   2332     1  0.0000000  0.6508444  3
   2330   2327   2331   2333     1  0.0000000  0.6508444  3
   2330   2327   2331   2352     1  0.0000000  0.6508444  3
   2331   2332   2344   2345     1  0.0000000  0.6508444  3
   2331   2332   2344   2346     1  0.0000000  0.6508444  3
   2331   2333   2335   2337     1  0.0000000  0.6508444  3
   2331   2333   2335   2338     1  0.0000000  0.6508444  3
   2332   2331   2333   2334     1  0.0000000  0.6508444  3
   2332   2331   2333   2336     1  0.0000000  0.6508444  3
   2333   2331   2332   2342     1  0.0000000  0.6508444  3
   2333   2331   2332   2343     1  0.0000000  0.6508444  3
   2334   2333   2331   2352     1  0.0000000  0.6508444  3
   2334   2333   2335   2339     1  0.0000000  0.6508444  3
   2334   2333   2335   2337     1  0.0000000  0.6508444  3
   2334   2333   2335   2338     1  0.0000000  0.6508444  3
   2335   2333   2331   2352     1  0.0000000  0.6508444  3
   2335   2339   2340   2350     1  180.0000771  9.6232000  2
   2336   2333   2331   2352     1  0.0000000  0.6508444  3
   2336   2333   2335   2339     1  0.0000000  0.6508444  3
   2336   2333   2335   2337     1  0.0000000  0.6508444  3
   2336   2333   2335   2338     1  0.0000000  0.6508444  3
   2337   2335   2339   2340     1  180.0000771  0.0000000  2
   2337   2335   2339   2341     1  0.0000000  3.3472000  1
   2337   2335   2339   2341     1  0.0000000  0.0000000  2
   2337   2335   2339   2341     1  180.0000771  0.3347200  3
   2338   2335   2339   2340     1  180.0000771  0.0000000  2
   2338   2335   2339   2341     1  0.0000000  3.3472000  1
   2338   2335   2339   2341     1  0.0000000  0.0000000  2
   2338   2335   2339   2341     1  180.0000771  0.3347200  3
   2341   2339   2340   2350     1  0.0000000  7.9496000  1
   2341   2339   2340   2350     1  180.0000771  9.6232000  2
   2342   2332   2331   2352     1  0.0000000  0.6508444  3
   2342   2332   2344   2347     1  0.0000000  0.6508444  3
   2342   2332   2344   2345     1  0.0000000  0.6508444  3
   2342   2332   2344   2346     1  0.0000000  0.6508444  3
   2343   2332   2331   2352     1  0.0000000  0.6508444  3
   2343   2332   2344   2347     1  0.0000000  0.6508444  3
   2343   2332   2344   2345     1  0.0000000  0.6508444  3
   2343   2332   2344   2346     1  0.0000000  0.6508444  3
   2344   2332   2331   2352     1  0.0000000  0.6508444  3
   2344   2347   2349   2351     1  180.0000771  9.6232000  2
   2345   2344   2347   2348     1  0.0000000  3.3472000  1
   2345   2344   2347   2348     1  0.0000000  0.0000000  2
   2345   2344   2347   2348     1  180.0000771  0.3347200  3
   2345   2344   2347   2349     1  180.0000771  0.0000000  2
   2346   2344   2347   2348     1  0.0000000  3.3472000  1
   2346   2344   2347   2348     1  0.0000000  0.0000000  2
   2346   2344   2347   2348     1  180.0000771  0.3347200  3
   2346   2344   2347   2349     1  180.0000771  0.0000000  2
   2348   2347   2349   2351     1  0.0000000  7.9496000  1
   2348   2347   2349   2351     1  180.0000771  9.6232000  2
   2353   2355   2357   2359     1  0.0000000  0.6508444  3
   2353   2355   2357   2360     1  0.0000000  0.6508444  3
   2354   2353   2355   2357     1  0.0000000  0.0000000  2
   2354   2353   2355   2356     1  0.0000000  0.0000000  2
   2354   2353   2355   2358     1  0.0000000  0.0000000  2
   2355   2357   2361   2382     1  0.0000000  0.6508444  3
   2356   2355   2357   2361     1  0.0000000  0.6508444  3
   2356   2355   2357   2359     1  0.0000000  0.6508444  3
   2356   2355   2357   2360     1  0.0000000  0.6508444  3
   2357   2361   2362   2372     1  0.0000000  0.6508444  3
   2357   2361   2362   2373     1  0.0000000  0.6508444  3
   2357   2361   2363   2364     1  0.0000000  0.6508444  3
   2357   2361   2363   2366     1  0.0000000  0.6508444  3
   2358   2355   2357   2361     1  0.0000000  0.6508444  3
   2358   2355   2357   2359     1  0.0000000  0.6508444  3
   2358   2355   2357   2360     1  0.0000000  0.6508444  3
   2359   2357   2361   2362     1  0.0000000  0.6508444  3
   2359   2357   2361   2363     1  0.0000000  0.6508444  3
   2359   2357   2361   2382     1  0.0000000  0.6508444  3
   2360   2357   2361   2362     1  0.0000000  0.6508444  3
   2360   2357   2361   2363     1  0.0000000  0.6508444  3
   2360   2357   2361   2382     1  0.0000000  0.6508444  3
   2361   2362   2374   2375     1  0.0000000  0.6508444  3
   2361   2362   2374   2376     1  0.0000000  0.6508444  3
   2361   2363   2365   2367     1  0.0000000  0.6508444  3
   2361   2363   2365   2368     1  0.0000000  0.6508444  3
   2362   2361   2363   2364     1  0.0000000  0.6508444  3
   2362   2361   2363   2366     1  0.0000000  0.6508444  3
   2363   2361   2362   2372     1  0.0000000  0.6508444  3
   2363   2361   2362   2373     1  0.0000000  0.6508444  3
   2364   2363   2365   2369     1  0.0000000  0.6508444  3
   2364   2363   2365   2367     1  0.0000000  0.6508444  3
   2364   2363   2365   2368     1  0.0000000  0.6508444  3
   2364   2363   2361   2382     1  0.0000000  0.6508444  3
   2365   2369   2370   2380     1  180.0000771  9.6232000  2
   2365   2363   2361   2382     1  0.0000000  0.6508444  3
   2366   2363   2365   2369     1  0.0000000  0.6508444  3
   2366   2363   2365   2367     1  0.0000000  0.6508444  3
   2366   2363   2365   2368     1  0.0000000  0.6508444  3
   2366   2363   2361   2382     1  0.0000000  0.6508444  3
   2367   2365   2369   2370     1  180.0000771  0.0000000  2
   2367   2365   2369   2371     1  0.0000000  3.3472000  1
   2367   2365   2369   2371     1  0.0000000  0.0000000  2
   2367   2365   2369   2371     1  180.0000771  0.3347200  3
   2368   2365   2369   2370     1  180.0000771  0.0000000  2
   2368   2365   2369   2371     1  0.0000000  3.3472000  1
   2368   2365   2369   2371     1  0.0000000  0.0000000  2
   2368   2365   2369   2371     1  180.0000771  0.3347200  3
   2371   2369   2370   2380     1  0.0000000  7.9496000  1
   2371   2369   2370   2380     1  180.0000771  9.6232000  2
   2372   2362   2374   2377     1  0.0000000  0.6508444  3
   2372   2362   2374   2375     1  0.0000000  0.6508444  3
   2372   2362   2374   2376     1  0.0000000  0.6508444  3
   2372   2362   2361   2382     1  0.0000000  0.6508444  3
   2373   2362   2374   2377     1  0.0000000  0.6508444  3
   2373   2362   2374   2375     1  0.0000000  0.6508444  3
   2373   2362   2374   2376     1  0.0000000  0.6508444  3
   2373   2362   2361   2382     1  0.0000000  0.6508444  3
   2374   2377   2379   2381     1  180.0000771  9.6232000  2
   2374   2362   2361   2382     1  0.0000000  0.6508444  3
   2375   2374   2377   2378     1  0.0000000  3.3472000  1
   2375   2374   2377   2378     1  0.0000000  0.0000000  2
   2375   2374   2377   2378     1  180.0000771  0.3347200  3
   2375   2374   2377   2379     1  180.0000771  0.0000000  2
   2376   2374   2377   2378     1  0.0000000  3.3472000  1
   2376   2374   2377   2378     1  0.0000000  0.0000000  2
   2376   2374   2377   2378     1  180.0000771  0.3347200  3
   2376   2374   2377   2379     1  180.0000771  0.0000000  2
   2378   2377   2379   2381     1  0.0000000  7.9496000  1
   2378   2377   2379   2381     1  180.0000771  9.6232000  2
   2383   2385   2387   2389     1  0.0000000  0.6508444  3
   2383   2385   2387   2390     1  0.0000000  0.6508444  3
   2384   2383   2385   2387     1  0.0000000  0.0000000  2
   2384   2383   2385   2386     1  0.0000000  0.0000000  2
   2384   2383   2385   2388     1  0.0000000  0.0000000  2
   2385   2387   2391   2412     1  0.0000000  0.6508444  3
   2386   2385   2387   2391     1  0.0000000  0.6508444  3
   2386   2385   2387   2389     1  0.0000000  0.6508444  3
   2386   2385   2387   2390     1  0.0000000  0.6508444  3
   2387   2391   2392   2402     1  0.0000000  0.6508444  3
   2387   2391   2392   2403     1  0.0000000  0.6508444  3
   2387   2391   2393   2394     1  0.0000000  0.6508444  3
   2387   2391   2393   2396     1  0.0000000  0.6508444  3
   2388   2385   2387   2391     1  0.0000000  0.6508444  3
   2388   2385   2387   2389     1  0.0000000  0.6508444  3
   2388   2385   2387   2390     1  0.0000000  0.6508444  3
   2389   2387   2391   2392     1  0.0000000  0.6508444  3
   2389   2387   2391   2393     1  0.0000000  0.6508444  3
   2389   2387   2391   2412     1  0.0000000  0.6508444  3
   2390   2387   2391   2392     1  0.0000000  0.6508444  3
   2390   2387   2391   2393     1  0.0000000  0.6508444  3
   2390   2387   2391   2412     1  0.0000000  0.6508444  3
   2391   2392   2404   2405     1  0.0000000  0.6508444  3
   2391   2392   2404   2406     1  0.0000000  0.6508444  3
   2391   2393   2395   2397     1  0.0000000  0.6508444  3
   2391   2393   2395   2398     1  0.0000000  0.6508444  3
   2392   2391   2393   2394     1  0.0000000  0.6508444  3
   2392   2391   2393   2396     1  0.0000000  0.6508444  3
   2393   2391   2392   2402     1  0.0000000  0.6508444  3
   2393   2391   2392   2403     1  0.0000000  0.6508444  3
   2394   2393   2391   2412     1  0.0000000  0.6508444  3
   2394   2393   2395   2399     1  0.0000000  0.6508444  3
   2394   2393   2395   2397     1  0.0000000  0.6508444  3
   2394   2393   2395   2398     1  0.0000000  0.6508444  3
   2395   2393   2391   2412     1  0.0000000  0.6508444  3
   2395   2399   2400   2410     1  180.0000771  9.6232000  2
   2396   2393   2391   2412     1  0.0000000  0.6508444  3
   2396   2393   2395   2399     1  0.0000000  0.6508444  3
   2396   2393   2395   2397     1  0.0000000  0.6508444  3
   2396   2393   2395   2398     1  0.0000000  0.6508444  3
   2397   2395   2399   2400     1  180.0000771  0.0000000  2
   2397   2395   2399   2401     1  0.0000000  3.3472000  1
   2397   2395   2399   2401     1  0.0000000  0.0000000  2
   2397   2395   2399   2401     1  180.0000771  0.3347200  3
   2398   2395   2399   2400     1  180.0000771  0.0000000  2
   2398   2395   2399   2401     1  0.0000000  3.3472000  1
   2398   2395   2399   2401     1  0.0000000  0.0000000  2
   2398   2395   2399   2401     1  180.0000771  0.3347200  3
   2401   2399   2400   2410     1  0.0000000  7.9496000  1
   2401   2399   2400   2410     1  180.0000771  9.6232000  2
   2402   2392   2391   2412     1  0.0000000  0.6508444  3
   2402   2392   2404   2407     1  0.0000000  0.6508444  3
   2402   2392   2404   2405     1  0.0000000  0.6508444  3
   2402   2392   2404   2406     1  0.0000000  0.6508444  3
   2403   2392   2391   2412     1  0.0000000  0.6508444  3
   2403   2392   2404   2407     1  0.0000000  0.6508444  3
   2403   2392   2404   2405     1  0.0000000  0.6508444  3
   2403   2392   2404   2406     1  0.0000000  0.6508444  3
   2404   2392   2391   2412     1  0.0000000  0.6508444  3
   2404   2407   2409   2411     1  180.0000771  9.6232000  2
   2405   2404   2407   2408     1  0.0000000  3.3472000  1
   2405   2404   2407   2408     1  0.0000000  0.0000000  2
   2405   2404   2407   2408     1  180.0000771  0.3347200  3
   2405   2404   2407   2409     1  180.0000771  0.0000000  2
   2406   2404   2407   2408     1  0.0000000  3.3472000  1
   2406   2404   2407   2408     1  0.0000000  0.0000000  2
   2406   2404   2407   2408     1  180.0000771  0.3347200  3
   2406   2404   2407   2409     1  180.0000771  0.0000000  2
   2408   2407   2409   2411     1  0.0000000  7.9496000  1
   2408   2407   2409   2411     1  180.0000771  9.6232000  2
   2413   2415   2417   2419     1  0.0000000  0.6508444  3
   2413   2415   2417   2420     1  0.0000000  0.6508444  3
   2414   2413   2415   2417     1  0.0000000  0.0000000  2
   2414   2413   2415   2416     1  0.0000000  0.0000000  2
   2414   2413   2415   2418     1  0.0000000  0.0000000  2
   2415   2417   2421   2442     1  0.0000000  0.6508444  3
   2416   2415   2417   2421     1  0.0000000  0.6508444  3
   2416   2415   2417   2419     1  0.0000000  0.6508444  3
   2416   2415   2417   2420     1  0.0000000  0.6508444  3
   2417   2421   2422   2432     1  0.0000000  0.6508444  3
   2417   2421   2422   2433     1  0.0000000  0.6508444  3
   2417   2421   2423   2424     1  0.0000000  0.6508444  3
   2417   2421   2423   2426     1  0.0000000  0.6508444  3
   2418   2415   2417   2421     1  0.0000000  0.6508444  3
   2418   2415   2417   2419     1  0.0000000  0.6508444  3
   2418   2415   2417   2420     1  0.0000000  0.6508444  3
   2419   2417   2421   2422     1  0.0000000  0.6508444  3
   2419   2417   2421   2423     1  0.0000000  0.6508444  3
   2419   2417   2421   2442     1  0.0000000  0.6508444  3
   2420   2417   2421   2422     1  0.0000000  0.6508444  3
   2420   2417   2421   2423     1  0.0000000  0.6508444  3
   2420   2417   2421   2442     1  0.0000000  0.6508444  3
   2421   2422   2434   2435     1  0.0000000  0.6508444  3
   2421   2422   2434   2436     1  0.0000000  0.6508444  3
   2421   2423   2425   2427     1  0.0000000  0.6508444  3
   2421   2423   2425   2428     1  0.0000000  0.6508444  3
   2422   2421   2423   2424     1  0.0000000  0.6508444  3
   2422   2421   2423   2426     1  0.0000000  0.6508444  3
   2423   2421   2422   2432     1  0.0000000  0.6508444  3
   2423   2421   2422   2433     1  0.0000000  0.6508444  3
   2424   2423   2425   2429     1  0.0000000  0.6508444  3
   2424   2423   2425   2427     1  0.0000000  0.6508444  3
   2424   2423   2425   2428     1  0.0000000  0.6508444  3
   2424   2423   2421   2442     1  0.0000000  0.6508444  3
   2425   2429   2430   2440     1  180.0000771  9.6232000  2
   2425   2423   2421   2442     1  0.0000000  0.6508444  3
   2426   2423   2425   2429     1  0.0000000  0.6508444  3
   2426   2423   2425   2427     1  0.0000000  0.6508444  3
   2426   2423   2425   2428     1  0.0000000  0.6508444  3
   2426   2423   2421   2442     1  0.0000000  0.6508444  3
   2427   2425   2429   2430     1  180.0000771  0.0000000  2
   2427   2425   2429   2431     1  0.0000000  3.3472000  1
   2427   2425   2429   2431     1  0.0000000  0.0000000  2
   2427   2425   2429   2431     1  180.0000771  0.3347200  3
   2428   2425   2429   2430     1  180.0000771  0.0000000  2
   2428   2425   2429   2431     1  0.0000000  3.3472000  1
   2428   2425   2429   2431     1  0.0000000  0.0000000  2
   2428   2425   2429   2431     1  180.0000771  0.3347200  3
   2431   2429   2430   2440     1  0.0000000  7.9496000  1
   2431   2429   2430   2440     1  180.0000771  9.6232000  2
   2432   2422   2434   2437     1  0.0000000  0.6508444  3
   2432   2422   2434   2435     1  0.0000000  0.6508444  3
   2432   2422   2434   2436     1  0.0000000  0.6508444  3
   2432   2422   2421   2442     1  0.0000000  0.6508444  3
   2433   2422   2434   2437     1  0.0000000  0.6508444  3
   2433   2422   2434   2435     1  0.0000000  0.6508444  3
   2433   2422   2434   2436     1  0.0000000  0.6508444  3
   2433   2422   2421   2442     1  0.0000000  0.6508444  3
   2434   2437   2439   2441     1  180.0000771  9.6232000  2
   2434   2422   2421   2442     1  0.0000000  0.6508444  3
   2435   2434   2437   2438     1  0.0000000  3.3472000  1
   2435   2434   2437   2438     1  0.0000000  0.0000000  2
   2435   2434   2437   2438     1  180.0000771  0.3347200  3
   2435   2434   2437   2439     1  180.0000771  0.0000000  2
   2436   2434   2437   2438     1  0.0000000  3.3472000  1
   2436   2434   2437   2438     1  0.0000000  0.0000000  2
   2436   2434   2437   2438     1  180.0000771  0.3347200  3
   2436   2434   2437   2439     1  180.0000771  0.0000000  2
   2438   2437   2439   2441     1  0.0000000  7.9496000  1
   2438   2437   2439   2441     1  180.0000771  9.6232000  2
   2443   2445   2447   2449     1  0.0000000  0.6508444  3
   2443   2445   2447   2450     1  0.0000000  0.6508444  3
   2444   2443   2445   2447     1  0.0000000  0.0000000  2
   2444   2443   2445   2446     1  0.0000000  0.0000000  2
   2444   2443   2445   2448     1  0.0000000  0.0000000  2
   2445   2447   2451   2472     1  0.0000000  0.6508444  3
   2446   2445   2447   2451     1  0.0000000  0.6508444  3
   2446   2445   2447   2449     1  0.0000000  0.6508444  3
   2446   2445   2447   2450     1  0.0000000  0.6508444  3
   2447   2451   2452   2462     1  0.0000000  0.6508444  3
   2447   2451   2452   2463     1  0.0000000  0.6508444  3
   2447   2451   2453   2454     1  0.0000000  0.6508444  3
   2447   2451   2453   2456     1  0.0000000  0.6508444  3
   2448   2445   2447   2451     1  0.0000000  0.6508444  3
   2448   2445   2447   2449     1  0.0000000  0.6508444  3
   2448   2445   2447   2450     1  0.0000000  0.6508444  3
   2449   2447   2451   2452     1  0.0000000  0.6508444  3
   2449   2447   2451   2453     1  0.0000000  0.6508444  3
   2449   2447   2451   2472     1  0.0000000  0.6508444  3
   2450   2447   2451   2452     1  0.0000000  0.6508444  3
   2450   2447   2451   2453     1  0.0000000  0.6508444  3
   2450   2447   2451   2472     1  0.0000000  0.6508444  3
   2451   2452   2464   2465     1  0.0000000  0.6508444  3
   2451   2452   2464   2466     1  0.0000000  0.6508444  3
   2451   2453   2455   2457     1  0.0000000  0.6508444  3
   2451   2453   2455   2458     1  0.0000000  0.6508444  3
   2452   2451   2453   2454     1  0.0000000  0.6508444  3
   2452   2451   2453   2456     1  0.0000000  0.6508444  3
   2453   2451   2452   2462     1  0.0000000  0.6508444  3
   2453   2451   2452   2463     1  0.0000000  0.6508444  3
   2454   2453   2451   2472     1  0.0000000  0.6508444  3
   2454   2453   2455   2459     1  0.0000000  0.6508444  3
   2454   2453   2455   2457     1  0.0000000  0.6508444  3
   2454   2453   2455   2458     1  0.0000000  0.6508444  3
   2455   2453   2451   2472     1  0.0000000  0.6508444  3
   2455   2459   2460   2470     1  180.0000771  9.6232000  2
   2456   2453   2451   2472     1  0.0000000  0.6508444  3
   2456   2453   2455   2459     1  0.0000000  0.6508444  3
   2456   2453   2455   2457     1  0.0000000  0.6508444  3
   2456   2453   2455   2458     1  0.0000000  0.6508444  3
   2457   2455   2459   2460     1  180.0000771  0.0000000  2
   2457   2455   2459   2461     1  0.0000000  3.3472000  1
   2457   2455   2459   2461     1  0.0000000  0.0000000  2
   2457   2455   2459   2461     1  180.0000771  0.3347200  3
   2458   2455   2459   2460     1  180.0000771  0.0000000  2
   2458   2455   2459   2461     1  0.0000000  3.3472000  1
   2458   2455   2459   2461     1  0.0000000  0.0000000  2
   2458   2455   2459   2461     1  180.0000771  0.3347200  3
   2461   2459   2460   2470     1  0.0000000  7.9496000  1
   2461   2459   2460   2470     1  180.0000771  9.6232000  2
   2462   2452   2451   2472     1  0.0000000  0.6508444  3
   2462   2452   2464   2467     1  0.0000000  0.6508444  3
   2462   2452   2464   2465     1  0.0000000  0.6508444  3
   2462   2452   2464   2466     1  0.0000000  0.6508444  3
   2463   2452   2451   2472     1  0.0000000  0.6508444  3
   2463   2452   2464   2467     1  0.0000000  0.6508444  3
   2463   2452   2464   2465     1  0.0000000  0.6508444  3
   2463   2452   2464   2466     1  0.0000000  0.6508444  3
   2464   2452   2451   2472     1  0.0000000  0.6508444  3
   2464   2467   2469   2471     1  180.0000771  9.6232000  2
   2465   2464   2467   2468     1  0.0000000  3.3472000  1
   2465   2464   2467   2468     1  0.0000000  0.0000000  2
   2465   2464   2467   2468     1  180.0000771  0.3347200  3
   2465   2464   2467   2469     1  180.0000771  0.0000000  2
   2466   2464   2467   2468     1  0.0000000  3.3472000  1
   2466   2464   2467   2468     1  0.0000000  0.0000000  2
   2466   2464   2467   2468     1  180.0000771  0.3347200  3
   2466   2464   2467   2469     1  180.0000771  0.0000000  2
   2468   2467   2469   2471     1  0.0000000  7.9496000  1
   2468   2467   2469   2471     1  180.0000771  9.6232000  2
   2473   2475   2477   2479     1  0.0000000  0.6508444  3
   2473   2475   2477   2480     1  0.0000000  0.6508444  3
   2474   2473   2475   2477     1  0.0000000  0.0000000  2
   2474   2473   2475   2476     1  0.0000000  0.0000000  2
   2474   2473   2475   2478     1  0.0000000  0.0000000  2
   2475   2477   2481   2502     1  0.0000000  0.6508444  3
   2476   2475   2477   2481     1  0.0000000  0.6508444  3
   2476   2475   2477   2479     1  0.0000000  0.6508444  3
   2476   2475   2477   2480     1  0.0000000  0.6508444  3
   2477   2481   2482   2492     1  0.0000000  0.6508444  3
   2477   2481   2482   2493     1  0.0000000  0.6508444  3
   2477   2481   2483   2484     1  0.0000000  0.6508444  3
   2477   2481   2483   2486     1  0.0000000  0.6508444  3
   2478   2475   2477   2481     1  0.0000000  0.6508444  3
   2478   2475   2477   2479     1  0.0000000  0.6508444  3
   2478   2475   2477   2480     1  0.0000000  0.6508444  3
   2479   2477   2481   2482     1  0.0000000  0.6508444  3
   2479   2477   2481   2483     1  0.0000000  0.6508444  3
   2479   2477   2481   2502     1  0.0000000  0.6508444  3
   2480   2477   2481   2482     1  0.0000000  0.6508444  3
   2480   2477   2481   2483     1  0.0000000  0.6508444  3
   2480   2477   2481   2502     1  0.0000000  0.6508444  3
   2481   2482   2494   2495     1  0.0000000  0.6508444  3
   2481   2482   2494   2496     1  0.0000000  0.6508444  3
   2481   2483   2485   2487     1  0.0000000  0.6508444  3
   2481   2483   2485   2488     1  0.0000000  0.6508444  3
   2482   2481   2483   2484     1  0.0000000  0.6508444  3
   2482   2481   2483   2486     1  0.0000000  0.6508444  3
   2483   2481   2482   2492     1  0.0000000  0.6508444  3
   2483   2481   2482   2493     1  0.0000000  0.6508444  3
   2484   2483   2485   2489     1  0.0000000  0.6508444  3
   2484   2483   2485   2487     1  0.0000000  0.6508444  3
   2484   2483   2485   2488     1  0.0000000  0.6508444  3
   2484   2483   2481   2502     1  0.0000000  0.6508444  3
   2485   2489   2490   2500     1  180.0000771  9.6232000  2
   2485   2483   2481   2502     1  0.0000000  0.6508444  3
   2486   2483   2485   2489     1  0.0000000  0.6508444  3
   2486   2483   2485   2487     1  0.0000000  0.6508444  3
   2486   2483   2485   2488     1  0.0000000  0.6508444  3
   2486   2483   2481   2502     1  0.0000000  0.6508444  3
   2487   2485   2489   2490     1  180.0000771  0.0000000  2
   2487   2485   2489   2491     1  0.0000000  3.3472000  1
   2487   2485   2489   2491     1  0.0000000  0.0000000  2
   2487   2485   2489   2491     1  180.0000771  0.3347200  3
   2488   2485   2489   2490     1  180.0000771  0.0000000  2
   2488   2485   2489   2491     1  0.0000000  3.3472000  1
   2488   2485   2489   2491     1  0.0000000  0.0000000  2
   2488   2485   2489   2491     1  180.0000771  0.3347200  3
   2491   2489   2490   2500     1  0.0000000  7.9496000  1
   2491   2489   2490   2500     1  180.0000771  9.6232000  2
   2492   2482   2494   2497     1  0.0000000  0.6508444  3
   2492   2482   2494   2495     1  0.0000000  0.6508444  3
   2492   2482   2494   2496     1  0.0000000  0.6508444  3
   2492   2482   2481   2502     1  0.0000000  0.6508444  3
   2493   2482   2494   2497     1  0.0000000  0.6508444  3
   2493   2482   2494   2495     1  0.0000000  0.6508444  3
   2493   2482   2494   2496     1  0.0000000  0.6508444  3
   2493   2482   2481   2502     1  0.0000000  0.6508444  3
   2494   2497   2499   2501     1  180.0000771  9.6232000  2
   2494   2482   2481   2502     1  0.0000000  0.6508444  3
   2495   2494   2497   2498     1  0.0000000  3.3472000  1
   2495   2494   2497   2498     1  0.0000000  0.0000000  2
   2495   2494   2497   2498     1  180.0000771  0.3347200  3
   2495   2494   2497   2499     1  180.0000771  0.0000000  2
   2496   2494   2497   2498     1  0.0000000  3.3472000  1
   2496   2494   2497   2498     1  0.0000000  0.0000000  2
   2496   2494   2497   2498     1  180.0000771  0.3347200  3
   2496   2494   2497   2499     1  180.0000771  0.0000000  2
   2498   2497   2499   2501     1  0.0000000  7.9496000  1
   2498   2497   2499   2501     1  180.0000771  9.6232000  2
   2503   2505   2507   2509     1  0.0000000  0.6508444  3
   2503   2505   2507   2510     1  0.0000000  0.6508444  3
   2504   2503   2505   2507     1  0.0000000  0.0000000  2
   2504   2503   2505   2506     1  0.0000000  0.0000000  2
   2504   2503   2505   2508     1  0.0000000  0.0000000  2
   2505   2507   2511   2532     1  0.0000000  0.6508444  3
   2506   2505   2507   2511     1  0.0000000  0.6508444  3
   2506   2505   2507   2509     1  0.0000000  0.6508444  3
   2506   2505   2507   2510     1  0.0000000  0.6508444  3
   2507   2511   2512   2522     1  0.0000000  0.6508444  3
   2507   2511   2512   2523     1  0.0000000  0.6508444  3
   2507   2511   2513   2514     1  0.0000000  0.6508444  3
   2507   2511   2513   2516     1  0.0000000  0.6508444  3
   2508   2505   2507   2511     1  0.0000000  0.6508444  3
   2508   2505   2507   2509     1  0.0000000  0.6508444  3
   2508   2505   2507   2510     1  0.0000000  0.6508444  3
   2509   2507   2511   2512     1  0.0000000  0.6508444  3
   2509   2507   2511   2513     1  0.0000000  0.6508444  3
   2509   2507   2511   2532     1  0.0000000  0.6508444  3
   2510   2507   2511   2512     1  0.0000000  0.6508444  3
   2510   2507   2511   2513     1  0.0000000  0.6508444  3
   2510   2507   2511   2532     1  0.0000000  0.6508444  3
   2511   2512   2524   2525     1  0.0000000  0.6508444  3
   2511   2512   2524   2526     1  0.0000000  0.6508444  3
   2511   2513   2515   2517     1  0.0000000  0.6508444  3
   2511   2513   2515   2518     1  0.0000000  0.6508444  3
   2512   2511   2513   2514     1  0.0000000  0.6508444  3
   2512   2511   2513   2516     1  0.0000000  0.6508444  3
   2513   2511   2512   2522     1  0.0000000  0.6508444  3
   2513   2511   2512   2523     1  0.0000000  0.6508444  3
   2514   2513   2511   2532     1  0.0000000  0.6508444  3
   2514   2513   2515   2519     1  0.0000000  0.6508444  3
   2514   2513   2515   2517     1  0.0000000  0.6508444  3
   2514   2513   2515   2518     1  0.0000000  0.6508444  3
   2515   2513   2511   2532     1  0.0000000  0.6508444  3
   2515   2519   2520   2530     1  180.0000771  9.6232000  2
   2516   2513   2511   2532     1  0.0000000  0.6508444  3
   2516   2513   2515   2519     1  0.0000000  0.6508444  3
   2516   2513   2515   2517     1  0.0000000  0.6508444  3
   2516   2513   2515   2518     1  0.0000000  0.6508444  3
   2517   2515   2519   2520     1  180.0000771  0.0000000  2
   2517   2515   2519   2521     1  0.0000000  3.3472000  1
   2517   2515   2519   2521     1  0.0000000  0.0000000  2
   2517   2515   2519   2521     1  180.0000771  0.3347200  3
   2518   2515   2519   2520     1  180.0000771  0.0000000  2
   2518   2515   2519   2521     1  0.0000000  3.3472000  1
   2518   2515   2519   2521     1  0.0000000  0.0000000  2
   2518   2515   2519   2521     1  180.0000771  0.3347200  3
   2521   2519   2520   2530     1  0.0000000  7.9496000  1
   2521   2519   2520   2530     1  180.0000771  9.6232000  2
   2522   2512   2511   2532     1  0.0000000  0.6508444  3
   2522   2512   2524   2527     1  0.0000000  0.6508444  3
   2522   2512   2524   2525     1  0.0000000  0.6508444  3
   2522   2512   2524   2526     1  0.0000000  0.6508444  3
   2523   2512   2511   2532     1  0.0000000  0.6508444  3
   2523   2512   2524   2527     1  0.0000000  0.6508444  3
   2523   2512   2524   2525     1  0.0000000  0.6508444  3
   2523   2512   2524   2526     1  0.0000000  0.6508444  3
   2524   2512   2511   2532     1  0.0000000  0.6508444  3
   2524   2527   2529   2531     1  180.0000771  9.6232000  2
   2525   2524   2527   2528     1  0.0000000  3.3472000  1
   2525   2524   2527   2528     1  0.0000000  0.0000000  2
   2525   2524   2527   2528     1  180.0000771  0.3347200  3
   2525   2524   2527   2529     1  180.0000771  0.0000000  2
   2526   2524   2527   2528     1  0.0000000  3.3472000  1
   2526   2524   2527   2528     1  0.0000000  0.0000000  2
   2526   2524   2527   2528     1  180.0000771  0.3347200  3
   2526   2524   2527   2529     1  180.0000771  0.0000000  2
   2528   2527   2529   2531     1  0.0000000  7.9496000  1
   2528   2527   2529   2531     1  180.0000771  9.6232000  2
   2533   2535   2537   2539     1  0.0000000  0.6508444  3
   2533   2535   2537   2540     1  0.0000000  0.6508444  3
   2534   2533   2535   2537     1  0.0000000  0.0000000  2
   2534   2533   2535   2536     1  0.0000000  0.0000000  2
   2534   2533   2535   2538     1  0.0000000  0.0000000  2
   2535   2537   2541   2562     1  0.0000000  0.6508444  3
   2536   2535   2537   2541     1  0.0000000  0.6508444  3
   2536   2535   2537   2539     1  0.0000000  0.6508444  3
   2536   2535   2537   2540     1  0.0000000  0.6508444  3
   2537   2541   2542   2552     1  0.0000000  0.6508444  3
   2537   2541   2542   2553     1  0.0000000  0.6508444  3
   2537   2541   2543   2544     1  0.0000000  0.6508444  3
   2537   2541   2543   2546     1  0.0000000  0.6508444  3
   2538   2535   2537   2541     1  0.0000000  0.6508444  3
   2538   2535   2537   2539     1  0.0000000  0.6508444  3
   2538   2535   2537   2540     1  0.0000000  0.6508444  3
   2539   2537   2541   2542     1  0.0000000  0.6508444  3
   2539   2537   2541   2543     1  0.0000000  0.6508444  3
   2539   2537   2541   2562     1  0.0000000  0.6508444  3
   2540   2537   2541   2542     1  0.0000000  0.6508444  3
   2540   2537   2541   2543     1  0.0000000  0.6508444  3
   2540   2537   2541   2562     1  0.0000000  0.6508444  3
   2541   2542   2554   2555     1  0.0000000  0.6508444  3
   2541   2542   2554   2556     1  0.0000000  0.6508444  3
   2541   2543   2545   2547     1  0.0000000  0.6508444  3
   2541   2543   2545   2548     1  0.0000000  0.6508444  3
   2542   2541   2543   2544     1  0.0000000  0.6508444  3
   2542   2541   2543   2546     1  0.0000000  0.6508444  3
   2543   2541   2542   2552     1  0.0000000  0.6508444  3
   2543   2541   2542   2553     1  0.0000000  0.6508444  3
   2544   2543   2545   2549     1  0.0000000  0.6508444  3
   2544   2543   2545   2547     1  0.0000000  0.6508444  3
   2544   2543   2545   2548     1  0.0000000  0.6508444  3
   2544   2543   2541   2562     1  0.0000000  0.6508444  3
   2545   2549   2550   2560     1  180.0000771  9.6232000  2
   2545   2543   2541   2562     1  0.0000000  0.6508444  3
   2546   2543   2545   2549     1  0.0000000  0.6508444  3
   2546   2543   2545   2547     1  0.0000000  0.6508444  3
   2546   2543   2545   2548     1  0.0000000  0.6508444  3
   2546   2543   2541   2562     1  0.0000000  0.6508444  3
   2547   2545   2549   2550     1  180.0000771  0.0000000  2
   2547   2545   2549   2551     1  0.0000000  3.3472000  1
   2547   2545   2549   2551     1  0.0000000  0.0000000  2
   2547   2545   2549   2551     1  180.0000771  0.3347200  3
   2548   2545   2549   2550     1  180.0000771  0.0000000  2
   2548   2545   2549   2551     1  0.0000000  3.3472000  1
   2548   2545   2549   2551     1  0.0000000  0.0000000  2
   2548   2545   2549   2551     1  180.0000771  0.3347200  3
   2551   2549   2550   2560     1  0.0000000  7.9496000  1
   2551   2549   2550   2560     1  180.0000771  9.6232000  2
   2552   2542   2554   2557     1  0.0000000  0.6508444  3
   2552   2542   2554   2555     1  0.0000000  0.6508444  3
   2552   2542   2554   2556     1  0.0000000  0.6508444  3
   2552   2542   2541   2562     1  0.0000000  0.6508444  3
   2553   2542   2554   2557     1  0.0000000  0.6508444  3
   2553   2542   2554   2555     1  0.0000000  0.6508444  3
   2553   2542   2554   2556     1  0.0000000  0.6508444  3
   2553   2542   2541   2562     1  0.0000000  0.6508444  3
   2554   2557   2559   2561     1  180.0000771  9.6232000  2
   2554   2542   2541   2562     1  0.0000000  0.6508444  3
   2555   2554   2557   2558     1  0.0000000  3.3472000  1
   2555   2554   2557   2558     1  0.0000000  0.0000000  2
   2555   2554   2557   2558     1  180.0000771  0.3347200  3
   2555   2554   2557   2559     1  180.0000771  0.0000000  2
   2556   2554   2557   2558     1  0.0000000  3.3472000  1
   2556   2554   2557   2558     1  0.0000000  0.0000000  2
   2556   2554   2557   2558     1  180.0000771  0.3347200  3
   2556   2554   2557   2559     1  180.0000771  0.0000000  2
   2558   2557   2559   2561     1  0.0000000  7.9496000  1
   2558   2557   2559   2561     1  180.0000771  9.6232000  2
   2563   2565   2567   2569     1  0.0000000  0.6508444  3
   2563   2565   2567   2570     1  0.0000000  0.6508444  3
   2564   2563   2565   2567     1  0.0000000  0.0000000  2
   2564   2563   2565   2566     1  0.0000000  0.0000000  2
   2564   2563   2565   2568     1  0.0000000  0.0000000  2
   2565   2567   2571   2592     1  0.0000000  0.6508444  3
   2566   2565   2567   2571     1  0.0000000  0.6508444  3
   2566   2565   2567   2569     1  0.0000000  0.6508444  3
   2566   2565   2567   2570     1  0.0000000  0.6508444  3
   2567   2571   2572   2582     1  0.0000000  0.6508444  3
   2567   2571   2572   2583     1  0.0000000  0.6508444  3
   2567   2571   2573   2574     1  0.0000000  0.6508444  3
   2567   2571   2573   2576     1  0.0000000  0.6508444  3
   2568   2565   2567   2571     1  0.0000000  0.6508444  3
   2568   2565   2567   2569     1  0.0000000  0.6508444  3
   2568   2565   2567   2570     1  0.0000000  0.6508444  3
   2569   2567   2571   2572     1  0.0000000  0.6508444  3
   2569   2567   2571   2573     1  0.0000000  0.6508444  3
   2569   2567   2571   2592     1  0.0000000  0.6508444  3
   2570   2567   2571   2572     1  0.0000000  0.6508444  3
   2570   2567   2571   2573     1  0.0000000  0.6508444  3
   2570   2567   2571   2592     1  0.0000000  0.6508444  3
   2571   2572   2584   2585     1  0.0000000  0.6508444  3
   2571   2572   2584   2586     1  0.0000000  0.6508444  3
   2571   2573   2575   2577     1  0.0000000  0.6508444  3
   2571   2573   2575   2578     1  0.0000000  0.6508444  3
   2572   2571   2573   2574     1  0.0000000  0.6508444  3
   2572   2571   2573   2576     1  0.0000000  0.6508444  3
   2573   2571   2572   2582     1  0.0000000  0.6508444  3
   2573   2571   2572   2583     1  0.0000000  0.6508444  3
   2574   2573   2571   2592     1  0.0000000  0.6508444  3
   2574   2573   2575   2579     1  0.0000000  0.6508444  3
   2574   2573   2575   2577     1  0.0000000  0.6508444  3
   2574   2573   2575   2578     1  0.0000000  0.6508444  3
   2575   2573   2571   2592     1  0.0000000  0.6508444  3
   2575   2579   2580   2590     1  180.0000771  9.6232000  2
   2576   2573   2571   2592     1  0.0000000  0.6508444  3
   2576   2573   2575   2579     1  0.0000000  0.6508444  3
   2576   2573   2575   2577     1  0.0000000  0.6508444  3
   2576   2573   2575   2578     1  0.0000000  0.6508444  3
   2577   2575   2579   2580     1  180.0000771  0.0000000  2
   2577   2575   2579   2581     1  0.0000000  3.3472000  1
   2577   2575   2579   2581     1  0.0000000  0.0000000  2
   2577   2575   2579   2581     1  180.0000771  0.3347200  3
   2578   2575   2579   2580     1  180.0000771  0.0000000  2
   2578   2575   2579   2581     1  0.0000000  3.3472000  1
   2578   2575   2579   2581     1  0.0000000  0.0000000  2
   2578   2575   2579   2581     1  180.0000771  0.3347200  3
   2581   2579   2580   2590     1  0.0000000  7.9496000  1
   2581   2579   2580   2590     1  180.0000771  9.6232000  2
   2582   2572   2571   2592     1  0.0000000  0.6508444  3
   2582   2572   2584   2587     1  0.0000000  0.6508444  3
   2582   2572   2584   2585     1  0.0000000  0.6508444  3
   2582   2572   2584   2586     1  0.0000000  0.6508444  3
   2583   2572   2571   2592     1  0.0000000  0.6508444  3
   2583   2572   2584   2587     1  0.0000000  0.6508444  3
   2583   2572   2584   2585     1  0.0000000  0.6508444  3
   2583   2572   2584   2586     1  0.0000000  0.6508444  3
   2584   2572   2571   2592     1  0.0000000  0.6508444  3
   2584   2587   2589   2591     1  180.0000771  9.6232000  2
   2585   2584   2587   2588     1  0.0000000  3.3472000  1
   2585   2584   2587   2588     1  0.0000000  0.0000000  2
   2585   2584   2587   2588     1  180.0000771  0.3347200  3
   2585   2584   2587   2589     1  180.0000771  0.0000000  2
   2586   2584   2587   2588     1  0.0000000  3.3472000  1
   2586   2584   2587   2588     1  0.0000000  0.0000000  2
   2586   2584   2587   2588     1  180.0000771  0.3347200  3
   2586   2584   2587   2589     1  180.0000771  0.0000000  2
   2588   2587   2589   2591     1  0.0000000  7.9496000  1
   2588   2587   2589   2591     1  180.0000771  9.6232000  2
   2593   2595   2597   2599     1  0.0000000  0.6508444  3
   2593   2595   2597   2600     1  0.0000000  0.6508444  3
   2594   2593   2595   2597     1  0.0000000  0.0000000  2
   2594   2593   2595   2596     1  0.0000000  0.0000000  2
   2594   2593   2595   2598     1  0.0000000  0.0000000  2
   2595   2597   2601   2622     1  0.0000000  0.6508444  3
   2596   2595   2597   2601     1  0.0000000  0.6508444  3
   2596   2595   2597   2599     1  0.0000000  0.6508444  3
   2596   2595   2597   2600     1  0.0000000  0.6508444  3
   2597   2601   2602   2612     1  0.0000000  0.6508444  3
   2597   2601   2602   2613     1  0.0000000  0.6508444  3
   2597   2601   2603   2604     1  0.0000000  0.6508444  3
   2597   2601   2603   2606     1  0.0000000  0.6508444  3
   2598   2595   2597   2601     1  0.0000000  0.6508444  3
   2598   2595   2597   2599     1  0.0000000  0.6508444  3
   2598   2595   2597   2600     1  0.0000000  0.6508444  3
   2599   2597   2601   2602     1  0.0000000  0.6508444  3
   2599   2597   2601   2603     1  0.0000000  0.6508444  3
   2599   2597   2601   2622     1  0.0000000  0.6508444  3
   2600   2597   2601   2602     1  0.0000000  0.6508444  3
   2600   2597   2601   2603     1  0.0000000  0.6508444  3
   2600   2597   2601   2622     1  0.0000000  0.6508444  3
   2601   2602   2614   2615     1  0.0000000  0.6508444  3
   2601   2602   2614   2616     1  0.0000000  0.6508444  3
   2601   2603   2605   2607     1  0.0000000  0.6508444  3
   2601   2603   2605   2608     1  0.0000000  0.6508444  3
   2602   2601   2603   2604     1  0.0000000  0.6508444  3
   2602   2601   2603   2606     1  0.0000000  0.6508444  3
   2603   2601   2602   2612     1  0.0000000  0.6508444  3
   2603   2601   2602   2613     1  0.0000000  0.6508444  3
   2604   2603   2605   2609     1  0.0000000  0.6508444  3
   2604   2603   2605   2607     1  0.0000000  0.6508444  3
   2604   2603   2605   2608     1  0.0000000  0.6508444  3
   2604   2603   2601   2622     1  0.0000000  0.6508444  3
   2605   2609   2610   2620     1  180.0000771  9.6232000  2
   2605   2603   2601   2622     1  0.0000000  0.6508444  3
   2606   2603   2605   2609     1  0.0000000  0.6508444  3
   2606   2603   2605   2607     1  0.0000000  0.6508444  3
   2606   2603   2605   2608     1  0.0000000  0.6508444  3
   2606   2603   2601   2622     1  0.0000000  0.6508444  3
   2607   2605   2609   2610     1  180.0000771  0.0000000  2
   2607   2605   2609   2611     1  0.0000000  3.3472000  1
   2607   2605   2609   2611     1  0.0000000  0.0000000  2
   2607   2605   2609   2611     1  180.0000771  0.3347200  3
   2608   2605   2609   2610     1  180.0000771  0.0000000  2
   2608   2605   2609   2611     1  0.0000000  3.3472000  1
   2608   2605   2609   2611     1  0.0000000  0.0000000  2
   2608   2605   2609   2611     1  180.0000771  0.3347200  3
   2611   2609   2610   2620     1  0.0000000  7.9496000  1
   2611   2609   2610   2620     1  180.0000771  9.6232000  2
   2612   2602   2614   2617     1  0.0000000  0.6508444  3
   2612   2602   2614   2615     1  0.0000000  0.6508444  3
   2612   2602   2614   2616     1  0.0000000  0.6508444  3
   2612   2602   2601   2622     1  0.0000000  0.6508444  3
   2613   2602   2614   2617     1  0.0000000  0.6508444  3
   2613   2602   2614   2615     1  0.0000000  0.6508444  3
   2613   2602   2614   2616     1  0.0000000  0.6508444  3
   2613   2602   2601   2622     1  0.0000000  0.6508444  3
   2614   2617   2619   2621     1  180.0000771  9.6232000  2
   2614   2602   2601   2622     1  0.0000000  0.6508444  3
   2615   2614   2617   2618     1  0.0000000  3.3472000  1
   2615   2614   2617   2618     1  0.0000000  0.0000000  2
   2615   2614   2617   2618     1  180.0000771  0.3347200  3
   2615   2614   2617   2619     1  180.0000771  0.0000000  2
   2616   2614   2617   2618     1  0.0000000  3.3472000  1
   2616   2614   2617   2618     1  0.0000000  0.0000000  2
   2616   2614   2617   2618     1  180.0000771  0.3347200  3
   2616   2614   2617   2619     1  180.0000771  0.0000000  2
   2618   2617   2619   2621     1  0.0000000  7.9496000  1
   2618   2617   2619   2621     1  180.0000771  9.6232000  2
   2623   2625   2627   2629     1  0.0000000  0.6508444  3
   2623   2625   2627   2630     1  0.0000000  0.6508444  3
   2624   2623   2625   2627     1  0.0000000  0.0000000  2
   2624   2623   2625   2626     1  0.0000000  0.0000000  2
   2624   2623   2625   2628     1  0.0000000  0.0000000  2
   2625   2627   2631   2652     1  0.0000000  0.6508444  3
   2626   2625   2627   2631     1  0.0000000  0.6508444  3
   2626   2625   2627   2629     1  0.0000000  0.6508444  3
   2626   2625   2627   2630     1  0.0000000  0.6508444  3
   2627   2631   2632   2642     1  0.0000000  0.6508444  3
   2627   2631   2632   2643     1  0.0000000  0.6508444  3
   2627   2631   2633   2634     1  0.0000000  0.6508444  3
   2627   2631   2633   2636     1  0.0000000  0.6508444  3
   2628   2625   2627   2631     1  0.0000000  0.6508444  3
   2628   2625   2627   2629     1  0.0000000  0.6508444  3
   2628   2625   2627   2630     1  0.0000000  0.6508444  3
   2629   2627   2631   2632     1  0.0000000  0.6508444  3
   2629   2627   2631   2633     1  0.0000000  0.6508444  3
   2629   2627   2631   2652     1  0.0000000  0.6508444  3
   2630   2627   2631   2632     1  0.0000000  0.6508444  3
   2630   2627   2631   2633     1  0.0000000  0.6508444  3
   2630   2627   2631   2652     1  0.0000000  0.6508444  3
   2631   2632   2644   2645     1  0.0000000  0.6508444  3
   2631   2632   2644   2646     1  0.0000000  0.6508444  3
   2631   2633   2635   2637     1  0.0000000  0.6508444  3
   2631   2633   2635   2638     1  0.0000000  0.6508444  3
   2632   2631   2633   2634     1  0.0000000  0.6508444  3
   2632   2631   2633   2636     1  0.0000000  0.6508444  3
   2633   2631   2632   2642     1  0.0000000  0.6508444  3
   2633   2631   2632   2643     1  0.0000000  0.6508444  3
   2634   2633   2631   2652     1  0.0000000  0.6508444  3
   2634   2633   2635   2639     1  0.0000000  0.6508444  3
   2634   2633   2635   2637     1  0.0000000  0.6508444  3
   2634   2633   2635   2638     1  0.0000000  0.6508444  3
   2635   2633   2631   2652     1  0.0000000  0.6508444  3
   2635   2639   2640   2650     1  180.0000771  9.6232000  2
   2636   2633   2631   2652     1  0.0000000  0.6508444  3
   2636   2633   2635   2639     1  0.0000000  0.6508444  3
   2636   2633   2635   2637     1  0.0000000  0.6508444  3
   2636   2633   2635   2638     1  0.0000000  0.6508444  3
   2637   2635   2639   2640     1  180.0000771  0.0000000  2
   2637   2635   2639   2641     1  0.0000000  3.3472000  1
   2637   2635   2639   2641     1  0.0000000  0.0000000  2
   2637   2635   2639   2641     1  180.0000771  0.3347200  3
   2638   2635   2639   2640     1  180.0000771  0.0000000  2
   2638   2635   2639   2641     1  0.0000000  3.3472000  1
   2638   2635   2639   2641     1  0.0000000  0.0000000  2
   2638   2635   2639   2641     1  180.0000771  0.3347200  3
   2641   2639   2640   2650     1  0.0000000  7.9496000  1
   2641   2639   2640   2650     1  180.0000771  9.6232000  2
   2642   2632   2631   2652     1  0.0000000  0.6508444  3
   2642   2632   2644   2647     1  0.0000000  0.6508444  3
   2642   2632   2644   2645     1  0.0000000  0.6508444  3
   2642   2632   2644   2646     1  0.0000000  0.6508444  3
   2643   2632   2631   2652     1  0.0000000  0.6508444  3
   2643   2632   2644   2647     1  0.0000000  0.6508444  3
   2643   2632   2644   2645     1  0.0000000  0.6508444  3
   2643   2632   2644   2646     1  0.0000000  0.6508444  3
   2644   2632   2631   2652     1  0.0000000  0.6508444  3
   2644   2647   2649   2651     1  180.0000771  9.6232000  2
   2645   2644   2647   2648     1  0.0000000  3.3472000  1
   2645   2644   2647   2648     1  0.0000000  0.0000000  2
   2645   2644   2647   2648     1  180.0000771  0.3347200  3
   2645   2644   2647   2649     1  180.0000771  0.0000000  2
   2646   2644   2647   2648     1  0.0000000  3.3472000  1
   2646   2644   2647   2648     1  0.0000000  0.0000000  2
   2646   2644   2647   2648     1  180.0000771  0.3347200  3
   2646   2644   2647   2649     1  180.0000771  0.0000000  2
   2648   2647   2649   2651     1  0.0000000  7.9496000  1
   2648   2647   2649   2651     1  180.0000771  9.6232000  2
   2653   2655   2657   2659     1  0.0000000  0.6508444  3
   2653   2655   2657   2660     1  0.0000000  0.6508444  3
   2654   2653   2655   2657     1  0.0000000  0.0000000  2
   2654   2653   2655   2656     1  0.0000000  0.0000000  2
   2654   2653   2655   2658     1  0.0000000  0.0000000  2
   2655   2657   2661   2682     1  0.0000000  0.6508444  3
   2656   2655   2657   2661     1  0.0000000  0.6508444  3
   2656   2655   2657   2659     1  0.0000000  0.6508444  3
   2656   2655   2657   2660     1  0.0000000  0.6508444  3
   2657   2661   2662   2672     1  0.0000000  0.6508444  3
   2657   2661   2662   2673     1  0.0000000  0.6508444  3
   2657   2661   2663   2664     1  0.0000000  0.6508444  3
   2657   2661   2663   2666     1  0.0000000  0.6508444  3
   2658   2655   2657   2661     1  0.0000000  0.6508444  3
   2658   2655   2657   2659     1  0.0000000  0.6508444  3
   2658   2655   2657   2660     1  0.0000000  0.6508444  3
   2659   2657   2661   2662     1  0.0000000  0.6508444  3
   2659   2657   2661   2663     1  0.0000000  0.6508444  3
   2659   2657   2661   2682     1  0.0000000  0.6508444  3
   2660   2657   2661   2662     1  0.0000000  0.6508444  3
   2660   2657   2661   2663     1  0.0000000  0.6508444  3
   2660   2657   2661   2682     1  0.0000000  0.6508444  3
   2661   2662   2674   2675     1  0.0000000  0.6508444  3
   2661   2662   2674   2676     1  0.0000000  0.6508444  3
   2661   2663   2665   2667     1  0.0000000  0.6508444  3
   2661   2663   2665   2668     1  0.0000000  0.6508444  3
   2662   2661   2663   2664     1  0.0000000  0.6508444  3
   2662   2661   2663   2666     1  0.0000000  0.6508444  3
   2663   2661   2662   2672     1  0.0000000  0.6508444  3
   2663   2661   2662   2673     1  0.0000000  0.6508444  3
   2664   2663   2665   2669     1  0.0000000  0.6508444  3
   2664   2663   2665   2667     1  0.0000000  0.6508444  3
   2664   2663   2665   2668     1  0.0000000  0.6508444  3
   2664   2663   2661   2682     1  0.0000000  0.6508444  3
   2665   2669   2670   2680     1  180.0000771  9.6232000  2
   2665   2663   2661   2682     1  0.0000000  0.6508444  3
   2666   2663   2665   2669     1  0.0000000  0.6508444  3
   2666   2663   2665   2667     1  0.0000000  0.6508444  3
   2666   2663   2665   2668     1  0.0000000  0.6508444  3
   2666   2663   2661   2682     1  0.0000000  0.6508444  3
   2667   2665   2669   2670     1  180.0000771  0.0000000  2
   2667   2665   2669   2671     1  0.0000000  3.3472000  1
   2667   2665   2669   2671     1  0.0000000  0.0000000  2
   2667   2665   2669   2671     1  180.0000771  0.3347200  3
   2668   2665   2669   2670     1  180.0000771  0.0000000  2
   2668   2665   2669   2671     1  0.0000000  3.3472000  1
   2668   2665   2669   2671     1  0.0000000  0.0000000  2
   2668   2665   2669   2671     1  180.0000771  0.3347200  3
   2671   2669   2670   2680     1  0.0000000  7.9496000  1
   2671   2669   2670   2680     1  180.0000771  9.6232000  2
   2672   2662   2674   2677     1  0.0000000  0.6508444  3
   2672   2662   2674   2675     1  0.0000000  0.6508444  3
   2672   2662   2674   2676     1  0.0000000  0.6508444  3
   2672   2662   2661   2682     1  0.0000000  0.6508444  3
   2673   2662   2674   2677     1  0.0000000  0.6508444  3
   2673   2662   2674   2675     1  0.0000000  0.6508444  3
   2673   2662   2674   2676     1  0.0000000  0.6508444  3
   2673   2662   2661   2682     1  0.0000000  0.6508444  3
   2674   2677   2679   2681     1  180.0000771  9.6232000  2
   2674   2662   2661   2682     1  0.0000000  0.6508444  3
   2675   2674   2677   2678     1  0.0000000  3.3472000  1
   2675   2674   2677   2678     1  0.0000000  0.0000000  2
   2675   2674   2677   2678     1  180.0000771  0.3347200  3
   2675   2674   2677   2679     1  180.0000771  0.0000000  2
   2676   2674   2677   2678     1  0.0000000  3.3472000  1
   2676   2674   2677   2678     1  0.0000000  0.0000000  2
   2676   2674   2677   2678     1  180.0000771  0.3347200  3
   2676   2674   2677   2679     1  180.0000771  0.0000000  2
   2678   2677   2679   2681     1  0.0000000  7.9496000  1
   2678   2677   2679   2681     1  180.0000771  9.6232000  2
   2683   2685   2687   2689     1  0.0000000  0.6508444  3
   2683   2685   2687   2690     1  0.0000000  0.6508444  3
   2684   2683   2685   2687     1  0.0000000  0.0000000  2
   2684   2683   2685   2686     1  0.0000000  0.0000000  2
   2684   2683   2685   2688     1  0.0000000  0.0000000  2
   2685   2687   2691   2712     1  0.0000000  0.6508444  3
   2686   2685   2687   2691     1  0.0000000  0.6508444  3
   2686   2685   2687   2689     1  0.0000000  0.6508444  3
   2686   2685   2687   2690     1  0.0000000  0.6508444  3
   2687   2691   2692   2702     1  0.0000000  0.6508444  3
   2687   2691   2692   2703     1  0.0000000  0.6508444  3
   2687   2691   2693   2694     1  0.0000000  0.6508444  3
   2687   2691   2693   2696     1  0.0000000  0.6508444  3
   2688   2685   2687   2691     1  0.0000000  0.6508444  3
   2688   2685   2687   2689     1  0.0000000  0.6508444  3
   2688   2685   2687   2690     1  0.0000000  0.6508444  3
   2689   2687   2691   2692     1  0.0000000  0.6508444  3
   2689   2687   2691   2693     1  0.0000000  0.6508444  3
   2689   2687   2691   2712     1  0.0000000  0.6508444  3
   2690   2687   2691   2692     1  0.0000000  0.6508444  3
   2690   2687   2691   2693     1  0.0000000  0.6508444  3
   2690   2687   2691   2712     1  0.0000000  0.6508444  3
   2691   2692   2704   2705     1  0.0000000  0.6508444  3
   2691   2692   2704   2706     1  0.0000000  0.6508444  3
   2691   2693   2695   2697     1  0.0000000  0.6508444  3
   2691   2693   2695   2698     1  0.0000000  0.6508444  3
   2692   2691   2693   2694     1  0.0000000  0.6508444  3
   2692   2691   2693   2696     1  0.0000000  0.6508444  3
   2693   2691   2692   2702     1  0.0000000  0.6508444  3
   2693   2691   2692   2703     1  0.0000000  0.6508444  3
   2694   2693   2691   2712     1  0.0000000  0.6508444  3
   2694   2693   2695   2699     1  0.0000000  0.6508444  3
   2694   2693   2695   2697     1  0.0000000  0.6508444  3
   2694   2693   2695   2698     1  0.0000000  0.6508444  3
   2695   2693   2691   2712     1  0.0000000  0.6508444  3
   2695   2699   2700   2710     1  180.0000771  9.6232000  2
   2696   2693   2691   2712     1  0.0000000  0.6508444  3
   2696   2693   2695   2699     1  0.0000000  0.6508444  3
   2696   2693   2695   2697     1  0.0000000  0.6508444  3
   2696   2693   2695   2698     1  0.0000000  0.6508444  3
   2697   2695   2699   2700     1  180.0000771  0.0000000  2
   2697   2695   2699   2701     1  0.0000000  3.3472000  1
   2697   2695   2699   2701     1  0.0000000  0.0000000  2
   2697   2695   2699   2701     1  180.0000771  0.3347200  3
   2698   2695   2699   2700     1  180.0000771  0.0000000  2
   2698   2695   2699   2701     1  0.0000000  3.3472000  1
   2698   2695   2699   2701     1  0.0000000  0.0000000  2
   2698   2695   2699   2701     1  180.0000771  0.3347200  3
   2701   2699   2700   2710     1  0.0000000  7.9496000  1
   2701   2699   2700   2710     1  180.0000771  9.6232000  2
   2702   2692   2691   2712     1  0.0000000  0.6508444  3
   2702   2692   2704   2707     1  0.0000000  0.6508444  3
   2702   2692   2704   2705     1  0.0000000  0.6508444  3
   2702   2692   2704   2706     1  0.0000000  0.6508444  3
   2703   2692   2691   2712     1  0.0000000  0.6508444  3
   2703   2692   2704   2707     1  0.0000000  0.6508444  3
   2703   2692   2704   2705     1  0.0000000  0.6508444  3
   2703   2692   2704   2706     1  0.0000000  0.6508444  3
   2704   2692   2691   2712     1  0.0000000  0.6508444  3
   2704   2707   2709   2711     1  180.0000771  9.6232000  2
   2705   2704   2707   2708     1  0.0000000  3.3472000  1
   2705   2704   2707   2708     1  0.0000000  0.0000000  2
   2705   2704   2707   2708     1  180.0000771  0.3347200  3
   2705   2704   2707   2709     1  180.0000771  0.0000000  2
   2706   2704   2707   2708     1  0.0000000  3.3472000  1
   2706   2704   2707   2708     1  0.0000000  0.0000000  2
   2706   2704   2707   2708     1  180.0000771  0.3347200  3
   2706   2704   2707   2709     1  180.0000771  0.0000000  2
   2708   2707   2709   2711     1  0.0000000  7.9496000  1
   2708   2707   2709   2711     1  180.0000771  9.6232000  2
   2713   2715   2717   2719     1  0.0000000  0.6508444  3
   2713   2715   2717   2720     1  0.0000000  0.6508444  3
   2714   2713   2715   2717     1  0.0000000  0.0000000  2
   2714   2713   2715   2716     1  0.0000000  0.0000000  2
   2714   2713   2715   2718     1  0.0000000  0.0000000  2
   2715   2717   2721   2742     1  0.0000000  0.6508444  3
   2716   2715   2717   2721     1  0.0000000  0.6508444  3
   2716   2715   2717   2719     1  0.0000000  0.6508444  3
   2716   2715   2717   2720     1  0.0000000  0.6508444  3
   2717   2721   2722   2732     1  0.0000000  0.6508444  3
   2717   2721   2722   2733     1  0.0000000  0.6508444  3
   2717   2721   2723   2724     1  0.0000000  0.6508444  3
   2717   2721   2723   2726     1  0.0000000  0.6508444  3
   2718   2715   2717   2721     1  0.0000000  0.6508444  3
   2718   2715   2717   2719     1  0.0000000  0.6508444  3
   2718   2715   2717   2720     1  0.0000000  0.6508444  3
   2719   2717   2721   2722     1  0.0000000  0.6508444  3
   2719   2717   2721   2723     1  0.0000000  0.6508444  3
   2719   2717   2721   2742     1  0.0000000  0.6508444  3
   2720   2717   2721   2722     1  0.0000000  0.6508444  3
   2720   2717   2721   2723     1  0.0000000  0.6508444  3
   2720   2717   2721   2742     1  0.0000000  0.6508444  3
   2721   2722   2734   2735     1  0.0000000  0.6508444  3
   2721   2722   2734   2736     1  0.0000000  0.6508444  3
   2721   2723   2725   2727     1  0.0000000  0.6508444  3
   2721   2723   2725   2728     1  0.0000000  0.6508444  3
   2722   2721   2723   2724     1  0.0000000  0.6508444  3
   2722   2721   2723   2726     1  0.0000000  0.6508444  3
   2723   2721   2722   2732     1  0.0000000  0.6508444  3
   2723   2721   2722   2733     1  0.0000000  0.6508444  3
   2724   2723   2725   2729     1  0.0000000  0.6508444  3
   2724   2723   2725   2727     1  0.0000000  0.6508444  3
   2724   2723   2725   2728     1  0.0000000  0.6508444  3
   2724   2723   2721   2742     1  0.0000000  0.6508444  3
   2725   2729   2730   2740     1  180.0000771  9.6232000  2
   2725   2723   2721   2742     1  0.0000000  0.6508444  3
   2726   2723   2725   2729     1  0.0000000  0.6508444  3
   2726   2723   2725   2727     1  0.0000000  0.6508444  3
   2726   2723   2725   2728     1  0.0000000  0.6508444  3
   2726   2723   2721   2742     1  0.0000000  0.6508444  3
   2727   2725   2729   2730     1  180.0000771  0.0000000  2
   2727   2725   2729   2731     1  0.0000000  3.3472000  1
   2727   2725   2729   2731     1  0.0000000  0.0000000  2
   2727   2725   2729   2731     1  180.0000771  0.3347200  3
   2728   2725   2729   2730     1  180.0000771  0.0000000  2
   2728   2725   2729   2731     1  0.0000000  3.3472000  1
   2728   2725   2729   2731     1  0.0000000  0.0000000  2
   2728   2725   2729   2731     1  180.0000771  0.3347200  3
   2731   2729   2730   2740     1  0.0000000  7.9496000  1
   2731   2729   2730   2740     1  180.0000771  9.6232000  2
   2732   2722   2734   2737     1  0.0000000  0.6508444  3
   2732   2722   2734   2735     1  0.0000000  0.6508444  3
   2732   2722   2734   2736     1  0.0000000  0.6508444  3
   2732   2722   2721   2742     1  0.0000000  0.6508444  3
   2733   2722   2734   2737     1  0.0000000  0.6508444  3
   2733   2722   2734   2735     1  0.0000000  0.6508444  3
   2733   2722   2734   2736     1  0.0000000  0.6508444  3
   2733   2722   2721   2742     1  0.0000000  0.6508444  3
   2734   2737   2739   2741     1  180.0000771  9.6232000  2
   2734   2722   2721   2742     1  0.0000000  0.6508444  3
   2735   2734   2737   2738     1  0.0000000  3.3472000  1
   2735   2734   2737   2738     1  0.0000000  0.0000000  2
   2735   2734   2737   2738     1  180.0000771  0.3347200  3
   2735   2734   2737   2739     1  180.0000771  0.0000000  2
   2736   2734   2737   2738     1  0.0000000  3.3472000  1
   2736   2734   2737   2738     1  0.0000000  0.0000000  2
   2736   2734   2737   2738     1  180.0000771  0.3347200  3
   2736   2734   2737   2739     1  180.0000771  0.0000000  2
   2738   2737   2739   2741     1  0.0000000  7.9496000  1
   2738   2737   2739   2741     1  180.0000771  9.6232000  2
   2743   2745   2747   2749     1  0.0000000  0.6508444  3
   2743   2745   2747   2750     1  0.0000000  0.6508444  3
   2744   2743   2745   2747     1  0.0000000  0.0000000  2
   2744   2743   2745   2746     1  0.0000000  0.0000000  2
   2744   2743   2745   2748     1  0.0000000  0.0000000  2
   2745   2747   2751   2772     1  0.0000000  0.6508444  3
   2746   2745   2747   2751     1  0.0000000  0.6508444  3
   2746   2745   2747   2749     1  0.0000000  0.6508444  3
   2746   2745   2747   2750     1  0.0000000  0.6508444  3
   2747   2751   2752   2762     1  0.0000000  0.6508444  3
   2747   2751   2752   2763     1  0.0000000  0.6508444  3
   2747   2751   2753   2754     1  0.0000000  0.6508444  3
   2747   2751   2753   2756     1  0.0000000  0.6508444  3
   2748   2745   2747   2751     1  0.0000000  0.6508444  3
   2748   2745   2747   2749     1  0.0000000  0.6508444  3
   2748   2745   2747   2750     1  0.0000000  0.6508444  3
   2749   2747   2751   2752     1  0.0000000  0.6508444  3
   2749   2747   2751   2753     1  0.0000000  0.6508444  3
   2749   2747   2751   2772     1  0.0000000  0.6508444  3
   2750   2747   2751   2752     1  0.0000000  0.6508444  3
   2750   2747   2751   2753     1  0.0000000  0.6508444  3
   2750   2747   2751   2772     1  0.0000000  0.6508444  3
   2751   2752   2764   2765     1  0.0000000  0.6508444  3
   2751   2752   2764   2766     1  0.0000000  0.6508444  3
   2751   2753   2755   2757     1  0.0000000  0.6508444  3
   2751   2753   2755   2758     1  0.0000000  0.6508444  3
   2752   2751   2753   2754     1  0.0000000  0.6508444  3
   2752   2751   2753   2756     1  0.0000000  0.6508444  3
   2753   2751   2752   2762     1  0.0000000  0.6508444  3
   2753   2751   2752   2763     1  0.0000000  0.6508444  3
   2754   2753   2751   2772     1  0.0000000  0.6508444  3
   2754   2753   2755   2759     1  0.0000000  0.6508444  3
   2754   2753   2755   2757     1  0.0000000  0.6508444  3
   2754   2753   2755   2758     1  0.0000000  0.6508444  3
   2755   2753   2751   2772     1  0.0000000  0.6508444  3
   2755   2759   2760   2770     1  180.0000771  9.6232000  2
   2756   2753   2751   2772     1  0.0000000  0.6508444  3
   2756   2753   2755   2759     1  0.0000000  0.6508444  3
   2756   2753   2755   2757     1  0.0000000  0.6508444  3
   2756   2753   2755   2758     1  0.0000000  0.6508444  3
   2757   2755   2759   2760     1  180.0000771  0.0000000  2
   2757   2755   2759   2761     1  0.0000000  3.3472000  1
   2757   2755   2759   2761     1  0.0000000  0.0000000  2
   2757   2755   2759   2761     1  180.0000771  0.3347200  3
   2758   2755   2759   2760     1  180.0000771  0.0000000  2
   2758   2755   2759   2761     1  0.0000000  3.3472000  1
   2758   2755   2759   2761     1  0.0000000  0.0000000  2
   2758   2755   2759   2761     1  180.0000771  0.3347200  3
   2761   2759   2760   2770     1  0.0000000  7.9496000  1
   2761   2759   2760   2770     1  180.0000771  9.6232000  2
   2762   2752   2751   2772     1  0.0000000  0.6508444  3
   2762   2752   2764   2767     1  0.0000000  0.6508444  3
   2762   2752   2764   2765     1  0.0000000  0.6508444  3
   2762   2752   2764   2766     1  0.0000000  0.6508444  3
   2763   2752   2751   2772     1  0.0000000  0.6508444  3
   2763   2752   2764   2767     1  0.0000000  0.6508444  3
   2763   2752   2764   2765     1  0.0000000  0.6508444  3
   2763   2752   2764   2766     1  0.0000000  0.6508444  3
   2764   2752   2751   2772     1  0.0000000  0.6508444  3
   2764   2767   2769   2771     1  180.0000771  9.6232000  2
   2765   2764   2767   2768     1  0.0000000  3.3472000  1
   2765   2764   2767   2768     1  0.0000000  0.0000000  2
   2765   2764   2767   2768     1  180.0000771  0.3347200  3
   2765   2764   2767   2769     1  180.0000771  0.0000000  2
   2766   2764   2767   2768     1  0.0000000  3.3472000  1
   2766   2764   2767   2768     1  0.0000000  0.0000000  2
   2766   2764   2767   2768     1  180.0000771  0.3347200  3
   2766   2764   2767   2769     1  180.0000771  0.0000000  2
   2768   2767   2769   2771     1  0.0000000  7.9496000  1
   2768   2767   2769   2771     1  180.0000771  9.6232000  2
   2773   2775   2777   2779     1  0.0000000  0.6508444  3
   2773   2775   2777   2780     1  0.0000000  0.6508444  3
   2774   2773   2775   2777     1  0.0000000  0.0000000  2
   2774   2773   2775   2776     1  0.0000000  0.0000000  2
   2774   2773   2775   2778     1  0.0000000  0.0000000  2
   2775   2777   2781   2802     1  0.0000000  0.6508444  3
   2776   2775   2777   2781     1  0.0000000  0.6508444  3
   2776   2775   2777   2779     1  0.0000000  0.6508444  3
   2776   2775   2777   2780     1  0.0000000  0.6508444  3
   2777   2781   2782   2792     1  0.0000000  0.6508444  3
   2777   2781   2782   2793     1  0.0000000  0.6508444  3
   2777   2781   2783   2784     1  0.0000000  0.6508444  3
   2777   2781   2783   2786     1  0.0000000  0.6508444  3
   2778   2775   2777   2781     1  0.0000000  0.6508444  3
   2778   2775   2777   2779     1  0.0000000  0.6508444  3
   2778   2775   2777   2780     1  0.0000000  0.6508444  3
   2779   2777   2781   2782     1  0.0000000  0.6508444  3
   2779   2777   2781   2783     1  0.0000000  0.6508444  3
   2779   2777   2781   2802     1  0.0000000  0.6508444  3
   2780   2777   2781   2782     1  0.0000000  0.6508444  3
   2780   2777   2781   2783     1  0.0000000  0.6508444  3
   2780   2777   2781   2802     1  0.0000000  0.6508444  3
   2781   2782   2794   2795     1  0.0000000  0.6508444  3
   2781   2782   2794   2796     1  0.0000000  0.6508444  3
   2781   2783   2785   2787     1  0.0000000  0.6508444  3
   2781   2783   2785   2788     1  0.0000000  0.6508444  3
   2782   2781   2783   2784     1  0.0000000  0.6508444  3
   2782   2781   2783   2786     1  0.0000000  0.6508444  3
   2783   2781   2782   2792     1  0.0000000  0.6508444  3
   2783   2781   2782   2793     1  0.0000000  0.6508444  3
   2784   2783   2785   2789     1  0.0000000  0.6508444  3
   2784   2783   2785   2787     1  0.0000000  0.6508444  3
   2784   2783   2785   2788     1  0.0000000  0.6508444  3
   2784   2783   2781   2802     1  0.0000000  0.6508444  3
   2785   2789   2790   2800     1  180.0000771  9.6232000  2
   2785   2783   2781   2802     1  0.0000000  0.6508444  3
   2786   2783   2785   2789     1  0.0000000  0.6508444  3
   2786   2783   2785   2787     1  0.0000000  0.6508444  3
   2786   2783   2785   2788     1  0.0000000  0.6508444  3
   2786   2783   2781   2802     1  0.0000000  0.6508444  3
   2787   2785   2789   2790     1  180.0000771  0.0000000  2
   2787   2785   2789   2791     1  0.0000000  3.3472000  1
   2787   2785   2789   2791     1  0.0000000  0.0000000  2
   2787   2785   2789   2791     1  180.0000771  0.3347200  3
   2788   2785   2789   2790     1  180.0000771  0.0000000  2
   2788   2785   2789   2791     1  0.0000000  3.3472000  1
   2788   2785   2789   2791     1  0.0000000  0.0000000  2
   2788   2785   2789   2791     1  180.0000771  0.3347200  3
   2791   2789   2790   2800     1  0.0000000  7.9496000  1
   2791   2789   2790   2800     1  180.0000771  9.6232000  2
   2792   2782   2794   2797     1  0.0000000  0.6508444  3
   2792   2782   2794   2795     1  0.0000000  0.6508444  3
   2792   2782   2794   2796     1  0.0000000  0.6508444  3
   2792   2782   2781   2802     1  0.0000000  0.6508444  3
   2793   2782   2794   2797     1  0.0000000  0.6508444  3
   2793   2782   2794   2795     1  0.0000000  0.6508444  3
   2793   2782   2794   2796     1  0.0000000  0.6508444  3
   2793   2782   2781   2802     1  0.0000000  0.6508444  3
   2794   2797   2799   2801     1  180.0000771  9.6232000  2
   2794   2782   2781   2802     1  0.0000000  0.6508444  3
   2795   2794   2797   2798     1  0.0000000  3.3472000  1
   2795   2794   2797   2798     1  0.0000000  0.0000000  2
   2795   2794   2797   2798     1  180.0000771  0.3347200  3
   2795   2794   2797   2799     1  180.0000771  0.0000000  2
   2796   2794   2797   2798     1  0.0000000  3.3472000  1
   2796   2794   2797   2798     1  0.0000000  0.0000000  2
   2796   2794   2797   2798     1  180.0000771  0.3347200  3
   2796   2794   2797   2799     1  180.0000771  0.0000000  2
   2798   2797   2799   2801     1  0.0000000  7.9496000  1
   2798   2797   2799   2801     1  180.0000771  9.6232000  2
   2803   2805   2807   2809     1  0.0000000  0.6508444  3
   2803   2805   2807   2810     1  0.0000000  0.6508444  3
   2804   2803   2805   2807     1  0.0000000  0.0000000  2
   2804   2803   2805   2806     1  0.0000000  0.0000000  2
   2804   2803   2805   2808     1  0.0000000  0.0000000  2
   2805   2807   2811   2832     1  0.0000000  0.6508444  3
   2806   2805   2807   2811     1  0.0000000  0.6508444  3
   2806   2805   2807   2809     1  0.0000000  0.6508444  3
   2806   2805   2807   2810     1  0.0000000  0.6508444  3
   2807   2811   2812   2822     1  0.0000000  0.6508444  3
   2807   2811   2812   2823     1  0.0000000  0.6508444  3
   2807   2811   2813   2814     1  0.0000000  0.6508444  3
   2807   2811   2813   2816     1  0.0000000  0.6508444  3
   2808   2805   2807   2811     1  0.0000000  0.6508444  3
   2808   2805   2807   2809     1  0.0000000  0.6508444  3
   2808   2805   2807   2810     1  0.0000000  0.6508444  3
   2809   2807   2811   2812     1  0.0000000  0.6508444  3
   2809   2807   2811   2813     1  0.0000000  0.6508444  3
   2809   2807   2811   2832     1  0.0000000  0.6508444  3
   2810   2807   2811   2812     1  0.0000000  0.6508444  3
   2810   2807   2811   2813     1  0.0000000  0.6508444  3
   2810   2807   2811   2832     1  0.0000000  0.6508444  3
   2811   2812   2824   2825     1  0.0000000  0.6508444  3
   2811   2812   2824   2826     1  0.0000000  0.6508444  3
   2811   2813   2815   2817     1  0.0000000  0.6508444  3
   2811   2813   2815   2818     1  0.0000000  0.6508444  3
   2812   2811   2813   2814     1  0.0000000  0.6508444  3
   2812   2811   2813   2816     1  0.0000000  0.6508444  3
   2813   2811   2812   2822     1  0.0000000  0.6508444  3
   2813   2811   2812   2823     1  0.0000000  0.6508444  3
   2814   2813   2811   2832     1  0.0000000  0.6508444  3
   2814   2813   2815   2819     1  0.0000000  0.6508444  3
   2814   2813   2815   2817     1  0.0000000  0.6508444  3
   2814   2813   2815   2818     1  0.0000000  0.6508444  3
   2815   2813   2811   2832     1  0.0000000  0.6508444  3
   2815   2819   2820   2830     1  180.0000771  9.6232000  2
   2816   2813   2811   2832     1  0.0000000  0.6508444  3
   2816   2813   2815   2819     1  0.0000000  0.6508444  3
   2816   2813   2815   2817     1  0.0000000  0.6508444  3
   2816   2813   2815   2818     1  0.0000000  0.6508444  3
   2817   2815   2819   2820     1  180.0000771  0.0000000  2
   2817   2815   2819   2821     1  0.0000000  3.3472000  1
   2817   2815   2819   2821     1  0.0000000  0.0000000  2
   2817   2815   2819   2821     1  180.0000771  0.3347200  3
   2818   2815   2819   2820     1  180.0000771  0.0000000  2
   2818   2815   2819   2821     1  0.0000000  3.3472000  1
   2818   2815   2819   2821     1  0.0000000  0.0000000  2
   2818   2815   2819   2821     1  180.0000771  0.3347200  3
   2821   2819   2820   2830     1  0.0000000  7.9496000  1
   2821   2819   2820   2830     1  180.0000771  9.6232000  2
   2822   2812   2811   2832     1  0.0000000  0.6508444  3
   2822   2812   2824   2827     1  0.0000000  0.6508444  3
   2822   2812   2824   2825     1  0.0000000  0.6508444  3
   2822   2812   2824   2826     1  0.0000000  0.6508444  3
   2823   2812   2811   2832     1  0.0000000  0.6508444  3
   2823   2812   2824   2827     1  0.0000000  0.6508444  3
   2823   2812   2824   2825     1  0.0000000  0.6508444  3
   2823   2812   2824   2826     1  0.0000000  0.6508444  3
   2824   2812   2811   2832     1  0.0000000  0.6508444  3
   2824   2827   2829   2831     1  180.0000771  9.6232000  2
   2825   2824   2827   2828     1  0.0000000  3.3472000  1
   2825   2824   2827   2828     1  0.0000000  0.0000000  2
   2825   2824   2827   2828     1  180.0000771  0.3347200  3
   2825   2824   2827   2829     1  180.0000771  0.0000000  2
   2826   2824   2827   2828     1  0.0000000  3.3472000  1
   2826   2824   2827   2828     1  0.0000000  0.0000000  2
   2826   2824   2827   2828     1  180.0000771  0.3347200  3
   2826   2824   2827   2829     1  180.0000771  0.0000000  2
   2828   2827   2829   2831     1  0.0000000  7.9496000  1
   2828   2827   2829   2831     1  180.0000771  9.6232000  2
   2833   2835   2837   2839     1  0.0000000  0.6508444  3
   2833   2835   2837   2840     1  0.0000000  0.6508444  3
   2834   2833   2835   2837     1  0.0000000  0.0000000  2
   2834   2833   2835   2836     1  0.0000000  0.0000000  2
   2834   2833   2835   2838     1  0.0000000  0.0000000  2
   2835   2837   2841   2862     1  0.0000000  0.6508444  3
   2836   2835   2837   2841     1  0.0000000  0.6508444  3
   2836   2835   2837   2839     1  0.0000000  0.6508444  3
   2836   2835   2837   2840     1  0.0000000  0.6508444  3
   2837   2841   2842   2852     1  0.0000000  0.6508444  3
   2837   2841   2842   2853     1  0.0000000  0.6508444  3
   2837   2841   2843   2844     1  0.0000000  0.6508444  3
   2837   2841   2843   2846     1  0.0000000  0.6508444  3
   2838   2835   2837   2841     1  0.0000000  0.6508444  3
   2838   2835   2837   2839     1  0.0000000  0.6508444  3
   2838   2835   2837   2840     1  0.0000000  0.6508444  3
   2839   2837   2841   2842     1  0.0000000  0.6508444  3
   2839   2837   2841   2843     1  0.0000000  0.6508444  3
   2839   2837   2841   2862     1  0.0000000  0.6508444  3
   2840   2837   2841   2842     1  0.0000000  0.6508444  3
   2840   2837   2841   2843     1  0.0000000  0.6508444  3
   2840   2837   2841   2862     1  0.0000000  0.6508444  3
   2841   2842   2854   2855     1  0.0000000  0.6508444  3
   2841   2842   2854   2856     1  0.0000000  0.6508444  3
   2841   2843   2845   2847     1  0.0000000  0.6508444  3
   2841   2843   2845   2848     1  0.0000000  0.6508444  3
   2842   2841   2843   2844     1  0.0000000  0.6508444  3
   2842   2841   2843   2846     1  0.0000000  0.6508444  3
   2843   2841   2842   2852     1  0.0000000  0.6508444  3
   2843   2841   2842   2853     1  0.0000000  0.6508444  3
   2844   2843   2845   2849     1  0.0000000  0.6508444  3
   2844   2843   2845   2847     1  0.0000000  0.6508444  3
   2844   2843   2845   2848     1  0.0000000  0.6508444  3
   2844   2843   2841   2862     1  0.0000000  0.6508444  3
   2845   2849   2850   2860     1  180.0000771  9.6232000  2
   2845   2843   2841   2862     1  0.0000000  0.6508444  3
   2846   2843   2845   2849     1  0.0000000  0.6508444  3
   2846   2843   2845   2847     1  0.0000000  0.6508444  3
   2846   2843   2845   2848     1  0.0000000  0.6508444  3
   2846   2843   2841   2862     1  0.0000000  0.6508444  3
   2847   2845   2849   2850     1  180.0000771  0.0000000  2
   2847   2845   2849   2851     1  0.0000000  3.3472000  1
   2847   2845   2849   2851     1  0.0000000  0.0000000  2
   2847   2845   2849   2851     1  180.0000771  0.3347200  3
   2848   2845   2849   2850     1  180.0000771  0.0000000  2
   2848   2845   2849   2851     1  0.0000000  3.3472000  1
   2848   2845   2849   2851     1  0.0000000  0.0000000  2
   2848   2845   2849   2851     1  180.0000771  0.3347200  3
   2851   2849   2850   2860     1  0.0000000  7.9496000  1
   2851   2849   2850   2860     1  180.0000771  9.6232000  2
   2852   2842   2854   2857     1  0.0000000  0.6508444  3
   2852   2842   2854   2855     1  0.0000000  0.6508444  3
   2852   2842   2854   2856     1  0.0000000  0.6508444  3
   2852   2842   2841   2862     1  0.0000000  0.6508444  3
   2853   2842   2854   2857     1  0.0000000  0.6508444  3
   2853   2842   2854   2855     1  0.0000000  0.6508444  3
   2853   2842   2854   2856     1  0.0000000  0.6508444  3
   2853   2842   2841   2862     1  0.0000000  0.6508444  3
   2854   2857   2859   2861     1  180.0000771  9.6232000  2
   2854   2842   2841   2862     1  0.0000000  0.6508444  3
   2855   2854   2857   2858     1  0.0000000  3.3472000  1
   2855   2854   2857   2858     1  0.0000000  0.0000000  2
   2855   2854   2857   2858     1  180.0000771  0.3347200  3
   2855   2854   2857   2859     1  180.0000771  0.0000000  2
   2856   2854   2857   2858     1  0.0000000  3.3472000  1
   2856   2854   2857   2858     1  0.0000000  0.0000000  2
   2856   2854   2857   2858     1  180.0000771  0.3347200  3
   2856   2854   2857   2859     1  180.0000771  0.0000000  2
   2858   2857   2859   2861     1  0.0000000  7.9496000  1
   2858   2857   2859   2861     1  180.0000771  9.6232000  2
   2863   2865   2867   2869     1  0.0000000  0.6508444  3
   2863   2865   2867   2870     1  0.0000000  0.6508444  3
   2864   2863   2865   2867     1  0.0000000  0.0000000  2
   2864   2863   2865   2866     1  0.0000000  0.0000000  2
   2864   2863   2865   2868     1  0.0000000  0.0000000  2
   2865   2867   2871   2892     1  0.0000000  0.6508444  3
   2866   2865   2867   2871     1  0.0000000  0.6508444  3
   2866   2865   2867   2869     1  0.0000000  0.6508444  3
   2866   2865   2867   2870     1  0.0000000  0.6508444  3
   2867   2871   2872   2882     1  0.0000000  0.6508444  3
   2867   2871   2872   2883     1  0.0000000  0.6508444  3
   2867   2871   2873   2874     1  0.0000000  0.6508444  3
   2867   2871   2873   2876     1  0.0000000  0.6508444  3
   2868   2865   2867   2871     1  0.0000000  0.6508444  3
   2868   2865   2867   2869     1  0.0000000  0.6508444  3
   2868   2865   2867   2870     1  0.0000000  0.6508444  3
   2869   2867   2871   2872     1  0.0000000  0.6508444  3
   2869   2867   2871   2873     1  0.0000000  0.6508444  3
   2869   2867   2871   2892     1  0.0000000  0.6508444  3
   2870   2867   2871   2872     1  0.0000000  0.6508444  3
   2870   2867   2871   2873     1  0.0000000  0.6508444  3
   2870   2867   2871   2892     1  0.0000000  0.6508444  3
   2871   2872   2884   2885     1  0.0000000  0.6508444  3
   2871   2872   2884   2886     1  0.0000000  0.6508444  3
   2871   2873   2875   2877     1  0.0000000  0.6508444  3
   2871   2873   2875   2878     1  0.0000000  0.6508444  3
   2872   2871   2873   2874     1  0.0000000  0.6508444  3
   2872   2871   2873   2876     1  0.0000000  0.6508444  3
   2873   2871   2872   2882     1  0.0000000  0.6508444  3
   2873   2871   2872   2883     1  0.0000000  0.6508444  3
   2874   2873   2871   2892     1  0.0000000  0.6508444  3
   2874   2873   2875   2879     1  0.0000000  0.6508444  3
   2874   2873   2875   2877     1  0.0000000  0.6508444  3
   2874   2873   2875   2878     1  0.0000000  0.6508444  3
   2875   2873   2871   2892     1  0.0000000  0.6508444  3
   2875   2879   2880   2890     1  180.0000771  9.6232000  2
   2876   2873   2871   2892     1  0.0000000  0.6508444  3
   2876   2873   2875   2879     1  0.0000000  0.6508444  3
   2876   2873   2875   2877     1  0.0000000  0.6508444  3
   2876   2873   2875   2878     1  0.0000000  0.6508444  3
   2877   2875   2879   2880     1  180.0000771  0.0000000  2
   2877   2875   2879   2881     1  0.0000000  3.3472000  1
   2877   2875   2879   2881     1  0.0000000  0.0000000  2
   2877   2875   2879   2881     1  180.0000771  0.3347200  3
   2878   2875   2879   2880     1  180.0000771  0.0000000  2
   2878   2875   2879   2881     1  0.0000000  3.3472000  1
   2878   2875   2879   2881     1  0.0000000  0.0000000  2
   2878   2875   2879   2881     1  180.0000771  0.3347200  3
   2881   2879   2880   2890     1  0.0000000  7.9496000  1
   2881   2879   2880   2890     1  180.0000771  9.6232000  2
   2882   2872   2871   2892     1  0.0000000  0.6508444  3
   2882   2872   2884   2887     1  0.0000000  0.6508444  3
   2882   2872   2884   2885     1  0.0000000  0.6508444  3
   2882   2872   2884   2886     1  0.0000000  0.6508444  3
   2883   2872   2871   2892     1  0.0000000  0.6508444  3
   2883   2872   2884   2887     1  0.0000000  0.6508444  3
   2883   2872   2884   2885     1  0.0000000  0.6508444  3
   2883   2872   2884   2886     1  0.0000000  0.6508444  3
   2884   2872   2871   2892     1  0.0000000  0.6508444  3
   2884   2887   2889   2891     1  180.0000771  9.6232000  2
   2885   2884   2887   2888     1  0.0000000  3.3472000  1
   2885   2884   2887   2888     1  0.0000000  0.0000000  2
   2885   2884   2887   2888     1  180.0000771  0.3347200  3
   2885   2884   2887   2889     1  180.0000771  0.0000000  2
   2886   2884   2887   2888     1  0.0000000  3.3472000  1
   2886   2884   2887   2888     1  0.0000000  0.0000000  2
   2886   2884   2887   2888     1  180.0000771  0.3347200  3
   2886   2884   2887   2889     1  180.0000771  0.0000000  2
   2888   2887   2889   2891     1  0.0000000  7.9496000  1
   2888   2887   2889   2891     1  180.0000771  9.6232000  2
   2893   2895   2897   2899     1  0.0000000  0.6508444  3
   2893   2895   2897   2900     1  0.0000000  0.6508444  3
   2894   2893   2895   2897     1  0.0000000  0.0000000  2
   2894   2893   2895   2896     1  0.0000000  0.0000000  2
   2894   2893   2895   2898     1  0.0000000  0.0000000  2
   2895   2897   2901   2922     1  0.0000000  0.6508444  3
   2896   2895   2897   2901     1  0.0000000  0.6508444  3
   2896   2895   2897   2899     1  0.0000000  0.6508444  3
   2896   2895   2897   2900     1  0.0000000  0.6508444  3
   2897   2901   2902   2912     1  0.0000000  0.6508444  3
   2897   2901   2902   2913     1  0.0000000  0.6508444  3
   2897   2901   2903   2904     1  0.0000000  0.6508444  3
   2897   2901   2903   2906     1  0.0000000  0.6508444  3
   2898   2895   2897   2901     1  0.0000000  0.6508444  3
   2898   2895   2897   2899     1  0.0000000  0.6508444  3
   2898   2895   2897   2900     1  0.0000000  0.6508444  3
   2899   2897   2901   2902     1  0.0000000  0.6508444  3
   2899   2897   2901   2903     1  0.0000000  0.6508444  3
   2899   2897   2901   2922     1  0.0000000  0.6508444  3
   2900   2897   2901   2902     1  0.0000000  0.6508444  3
   2900   2897   2901   2903     1  0.0000000  0.6508444  3
   2900   2897   2901   2922     1  0.0000000  0.6508444  3
   2901   2902   2914   2915     1  0.0000000  0.6508444  3
   2901   2902   2914   2916     1  0.0000000  0.6508444  3
   2901   2903   2905   2907     1  0.0000000  0.6508444  3
   2901   2903   2905   2908     1  0.0000000  0.6508444  3
   2902   2901   2903   2904     1  0.0000000  0.6508444  3
   2902   2901   2903   2906     1  0.0000000  0.6508444  3
   2903   2901   2902   2912     1  0.0000000  0.6508444  3
   2903   2901   2902   2913     1  0.0000000  0.6508444  3
   2904   2903   2905   2909     1  0.0000000  0.6508444  3
   2904   2903   2905   2907     1  0.0000000  0.6508444  3
   2904   2903   2905   2908     1  0.0000000  0.6508444  3
   2904   2903   2901   2922     1  0.0000000  0.6508444  3
   2905   2909   2910   2920     1  180.0000771  9.6232000  2
   2905   2903   2901   2922     1  0.0000000  0.6508444  3
   2906   2903   2905   2909     1  0.0000000  0.6508444  3
   2906   2903   2905   2907     1  0.0000000  0.6508444  3
   2906   2903   2905   2908     1  0.0000000  0.6508444  3
   2906   2903   2901   2922     1  0.0000000  0.6508444  3
   2907   2905   2909   2910     1  180.0000771  0.0000000  2
   2907   2905   2909   2911     1  0.0000000  3.3472000  1
   2907   2905   2909   2911     1  0.0000000  0.0000000  2
   2907   2905   2909   2911     1  180.0000771  0.3347200  3
   2908   2905   2909   2910     1  180.0000771  0.0000000  2
   2908   2905   2909   2911     1  0.0000000  3.3472000  1
   2908   2905   2909   2911     1  0.0000000  0.0000000  2
   2908   2905   2909   2911     1  180.0000771  0.3347200  3
   2911   2909   2910   2920     1  0.0000000  7.9496000  1
   2911   2909   2910   2920     1  180.0000771  9.6232000  2
   2912   2902   2914   2917     1  0.0000000  0.6508444  3
   2912   2902   2914   2915     1  0.0000000  0.6508444  3
   2912   2902   2914   2916     1  0.0000000  0.6508444  3
   2912   2902   2901   2922     1  0.0000000  0.6508444  3
   2913   2902   2914   2917     1  0.0000000  0.6508444  3
   2913   2902   2914   2915     1  0.0000000  0.6508444  3
   2913   2902   2914   2916     1  0.0000000  0.6508444  3
   2913   2902   2901   2922     1  0.0000000  0.6508444  3
   2914   2917   2919   2921     1  180.0000771  9.6232000  2
   2914   2902   2901   2922     1  0.0000000  0.6508444  3
   2915   2914   2917   2918     1  0.0000000  3.3472000  1
   2915   2914   2917   2918     1  0.0000000  0.0000000  2
   2915   2914   2917   2918     1  180.0000771  0.3347200  3
   2915   2914   2917   2919     1  180.0000771  0.0000000  2
   2916   2914   2917   2918     1  0.0000000  3.3472000  1
   2916   2914   2917   2918     1  0.0000000  0.0000000  2
   2916   2914   2917   2918     1  180.0000771  0.3347200  3
   2916   2914   2917   2919     1  180.0000771  0.0000000  2
   2918   2917   2919   2921     1  0.0000000  7.9496000  1
   2918   2917   2919   2921     1  180.0000771  9.6232000  2
   2923   2925   2927   2929     1  0.0000000  0.6508444  3
   2923   2925   2927   2930     1  0.0000000  0.6508444  3
   2924   2923   2925   2927     1  0.0000000  0.0000000  2
   2924   2923   2925   2926     1  0.0000000  0.0000000  2
   2924   2923   2925   2928     1  0.0000000  0.0000000  2
   2925   2927   2931   2952     1  0.0000000  0.6508444  3
   2926   2925   2927   2931     1  0.0000000  0.6508444  3
   2926   2925   2927   2929     1  0.0000000  0.6508444  3
   2926   2925   2927   2930     1  0.0000000  0.6508444  3
   2927   2931   2932   2942     1  0.0000000  0.6508444  3
   2927   2931   2932   2943     1  0.0000000  0.6508444  3
   2927   2931   2933   2934     1  0.0000000  0.6508444  3
   2927   2931   2933   2936     1  0.0000000  0.6508444  3
   2928   2925   2927   2931     1  0.0000000  0.6508444  3
   2928   2925   2927   2929     1  0.0000000  0.6508444  3
   2928   2925   2927   2930     1  0.0000000  0.6508444  3
   2929   2927   2931   2932     1  0.0000000  0.6508444  3
   2929   2927   2931   2933     1  0.0000000  0.6508444  3
   2929   2927   2931   2952     1  0.0000000  0.6508444  3
   2930   2927   2931   2932     1  0.0000000  0.6508444  3
   2930   2927   2931   2933     1  0.0000000  0.6508444  3
   2930   2927   2931   2952     1  0.0000000  0.6508444  3
   2931   2932   2944   2945     1  0.0000000  0.6508444  3
   2931   2932   2944   2946     1  0.0000000  0.6508444  3
   2931   2933   2935   2937     1  0.0000000  0.6508444  3
   2931   2933   2935   2938     1  0.0000000  0.6508444  3
   2932   2931   2933   2934     1  0.0000000  0.6508444  3
   2932   2931   2933   2936     1  0.0000000  0.6508444  3
   2933   2931   2932   2942     1  0.0000000  0.6508444  3
   2933   2931   2932   2943     1  0.0000000  0.6508444  3
   2934   2933   2931   2952     1  0.0000000  0.6508444  3
   2934   2933   2935   2939     1  0.0000000  0.6508444  3
   2934   2933   2935   2937     1  0.0000000  0.6508444  3
   2934   2933   2935   2938     1  0.0000000  0.6508444  3
   2935   2933   2931   2952     1  0.0000000  0.6508444  3
   2935   2939   2940   2950     1  180.0000771  9.6232000  2
   2936   2933   2931   2952     1  0.0000000  0.6508444  3
   2936   2933   2935   2939     1  0.0000000  0.6508444  3
   2936   2933   2935   2937     1  0.0000000  0.6508444  3
   2936   2933   2935   2938     1  0.0000000  0.6508444  3
   2937   2935   2939   2940     1  180.0000771  0.0000000  2
   2937   2935   2939   2941     1  0.0000000  3.3472000  1
   2937   2935   2939   2941     1  0.0000000  0.0000000  2
   2937   2935   2939   2941     1  180.0000771  0.3347200  3
   2938   2935   2939   2940     1  180.0000771  0.0000000  2
   2938   2935   2939   2941     1  0.0000000  3.3472000  1
   2938   2935   2939   2941     1  0.0000000  0.0000000  2
   2938   2935   2939   2941     1  180.0000771  0.3347200  3
   2941   2939   2940   2950     1  0.0000000  7.9496000  1
   2941   2939   2940   2950     1  180.0000771  9.6232000  2
   2942   2932   2931   2952     1  0.0000000  0.6508444  3
   2942   2932   2944   2947     1  0.0000000  0.6508444  3
   2942   2932   2944   2945     1  0.0000000  0.6508444  3
   2942   2932   2944   2946     1  0.0000000  0.6508444  3
   2943   2932   2931   2952     1  0.0000000  0.6508444  3
   2943   2932   2944   2947     1  0.0000000  0.6508444  3
   2943   2932   2944   2945     1  0.0000000  0.6508444  3
   2943   2932   2944   2946     1  0.0000000  0.6508444  3
   2944   2932   2931   2952     1  0.0000000  0.6508444  3
   2944   2947   2949   2951     1  180.0000771  9.6232000  2
   2945   2944   2947   2948     1  0.0000000  3.3472000  1
   2945   2944   2947   2948     1  0.0000000  0.0000000  2
   2945   2944   2947   2948     1  180.0000771  0.3347200  3
   2945   2944   2947   2949     1  180.0000771  0.0000000  2
   2946   2944   2947   2948     1  0.0000000  3.3472000  1
   2946   2944   2947   2948     1  0.0000000  0.0000000  2
   2946   2944   2947   2948     1  180.0000771  0.3347200  3
   2946   2944   2947   2949     1  180.0000771  0.0000000  2
   2948   2947   2949   2951     1  0.0000000  7.9496000  1
   2948   2947   2949   2951     1  180.0000771  9.6232000  2
   2953   2955   2957   2959     1  0.0000000  0.6508444  3
   2953   2955   2957   2960     1  0.0000000  0.6508444  3
   2954   2953   2955   2957     1  0.0000000  0.0000000  2
   2954   2953   2955   2956     1  0.0000000  0.0000000  2
   2954   2953   2955   2958     1  0.0000000  0.0000000  2
   2955   2957   2961   2982     1  0.0000000  0.6508444  3
   2956   2955   2957   2961     1  0.0000000  0.6508444  3
   2956   2955   2957   2959     1  0.0000000  0.6508444  3
   2956   2955   2957   2960     1  0.0000000  0.6508444  3
   2957   2961   2962   2972     1  0.0000000  0.6508444  3
   2957   2961   2962   2973     1  0.0000000  0.6508444  3
   2957   2961   2963   2964     1  0.0000000  0.6508444  3
   2957   2961   2963   2966     1  0.0000000  0.6508444  3
   2958   2955   2957   2961     1  0.0000000  0.6508444  3
   2958   2955   2957   2959     1  0.0000000  0.6508444  3
   2958   2955   2957   2960     1  0.0000000  0.6508444  3
   2959   2957   2961   2962     1  0.0000000  0.6508444  3
   2959   2957   2961   2963     1  0.0000000  0.6508444  3
   2959   2957   2961   2982     1  0.0000000  0.6508444  3
   2960   2957   2961   2962     1  0.0000000  0.6508444  3
   2960   2957   2961   2963     1  0.0000000  0.6508444  3
   2960   2957   2961   2982     1  0.0000000  0.6508444  3
   2961   2962   2974   2975     1  0.0000000  0.6508444  3
   2961   2962   2974   2976     1  0.0000000  0.6508444  3
   2961   2963   2965   2967     1  0.0000000  0.6508444  3
   2961   2963   2965   2968     1  0.0000000  0.6508444  3
   2962   2961   2963   2964     1  0.0000000  0.6508444  3
   2962   2961   2963   2966     1  0.0000000  0.6508444  3
   2963   2961   2962   2972     1  0.0000000  0.6508444  3
   2963   2961   2962   2973     1  0.0000000  0.6508444  3
   2964   2963   2965   2969     1  0.0000000  0.6508444  3
   2964   2963   2965   2967     1  0.0000000  0.6508444  3
   2964   2963   2965   2968     1  0.0000000  0.6508444  3
   2964   2963   2961   2982     1  0.0000000  0.6508444  3
   2965   2969   2970   2980     1  180.0000771  9.6232000  2
   2965   2963   2961   2982     1  0.0000000  0.6508444  3
   2966   2963   2965   2969     1  0.0000000  0.6508444  3
   2966   2963   2965   2967     1  0.0000000  0.6508444  3
   2966   2963   2965   2968     1  0.0000000  0.6508444  3
   2966   2963   2961   2982     1  0.0000000  0.6508444  3
   2967   2965   2969   2970     1  180.0000771  0.0000000  2
   2967   2965   2969   2971     1  0.0000000  3.3472000  1
   2967   2965   2969   2971     1  0.0000000  0.0000000  2
   2967   2965   2969   2971     1  180.0000771  0.3347200  3
   2968   2965   2969   2970     1  180.0000771  0.0000000  2
   2968   2965   2969   2971     1  0.0000000  3.3472000  1
   2968   2965   2969   2971     1  0.0000000  0.0000000  2
   2968   2965   2969   2971     1  180.0000771  0.3347200  3
   2971   2969   2970   2980     1  0.0000000  7.9496000  1
   2971   2969   2970   2980     1  180.0000771  9.6232000  2
   2972   2962   2974   2977     1  0.0000000  0.6508444  3
   2972   2962   2974   2975     1  0.0000000  0.6508444  3
   2972   2962   2974   2976     1  0.0000000  0.6508444  3
   2972   2962   2961   2982     1  0.0000000  0.6508444  3
   2973   2962   2974   2977     1  0.0000000  0.6508444  3
   2973   2962   2974   2975     1  0.0000000  0.6508444  3
   2973   2962   2974   2976     1  0.0000000  0.6508444  3
   2973   2962   2961   2982     1  0.0000000  0.6508444  3
   2974   2977   2979   2981     1  180.0000771  9.6232000  2
   2974   2962   2961   2982     1  0.0000000  0.6508444  3
   2975   2974   2977   2978     1  0.0000000  3.3472000  1
   2975   2974   2977   2978     1  0.0000000  0.0000000  2
   2975   2974   2977   2978     1  180.0000771  0.3347200  3
   2975   2974   2977   2979     1  180.0000771  0.0000000  2
   2976   2974   2977   2978     1  0.0000000  3.3472000  1
   2976   2974   2977   2978     1  0.0000000  0.0000000  2
   2976   2974   2977   2978     1  180.0000771  0.3347200  3
   2976   2974   2977   2979     1  180.0000771  0.0000000  2
   2978   2977   2979   2981     1  0.0000000  7.9496000  1
   2978   2977   2979   2981     1  180.0000771  9.6232000  2
   2983   2985   2987   2989     1  0.0000000  0.6508444  3
   2983   2985   2987   2990     1  0.0000000  0.6508444  3
   2984   2983   2985   2987     1  0.0000000  0.0000000  2
   2984   2983   2985   2986     1  0.0000000  0.0000000  2
   2984   2983   2985   2988     1  0.0000000  0.0000000  2
   2985   2987   2991   3012     1  0.0000000  0.6508444  3
   2986   2985   2987   2991     1  0.0000000  0.6508444  3
   2986   2985   2987   2989     1  0.0000000  0.6508444  3
   2986   2985   2987   2990     1  0.0000000  0.6508444  3
   2987   2991   2992   3002     1  0.0000000  0.6508444  3
   2987   2991   2992   3003     1  0.0000000  0.6508444  3
   2987   2991   2993   2994     1  0.0000000  0.6508444  3
   2987   2991   2993   2996     1  0.0000000  0.6508444  3
   2988   2985   2987   2991     1  0.0000000  0.6508444  3
   2988   2985   2987   2989     1  0.0000000  0.6508444  3
   2988   2985   2987   2990     1  0.0000000  0.6508444  3
   2989   2987   2991   2992     1  0.0000000  0.6508444  3
   2989   2987   2991   2993     1  0.0000000  0.6508444  3
   2989   2987   2991   3012     1  0.0000000  0.6508444  3
   2990   2987   2991   2992     1  0.0000000  0.6508444  3
   2990   2987   2991   2993     1  0.0000000  0.6508444  3
   2990   2987   2991   3012     1  0.0000000  0.6508444  3
   2991   2992   3004   3005     1  0.0000000  0.6508444  3
   2991   2992   3004   3006     1  0.0000000  0.6508444  3
   2991   2993   2995   2997     1  0.0000000  0.6508444  3
   2991   2993   2995   2998     1  0.0000000  0.6508444  3
   2992   2991   2993   2994     1  0.0000000  0.6508444  3
   2992   2991   2993   2996     1  0.0000000  0.6508444  3
   2993   2991   2992   3002     1  0.0000000  0.6508444  3
   2993   2991   2992   3003     1  0.0000000  0.6508444  3
   2994   2993   2991   3012     1  0.0000000  0.6508444  3
   2994   2993   2995   2999     1  0.0000000  0.6508444  3
   2994   2993   2995   2997     1  0.0000000  0.6508444  3
   2994   2993   2995   2998     1  0.0000000  0.6508444  3
   2995   2993   2991   3012     1  0.0000000  0.6508444  3
   2995   2999   3000   3010     1  180.0000771  9.6232000  2
   2996   2993   2991   3012     1  0.0000000  0.6508444  3
   2996   2993   2995   2999     1  0.0000000  0.6508444  3
   2996   2993   2995   2997     1  0.0000000  0.6508444  3
   2996   2993   2995   2998     1  0.0000000  0.6508444  3
   2997   2995   2999   3000     1  180.0000771  0.0000000  2
   2997   2995   2999   3001     1  0.0000000  3.3472000  1
   2997   2995   2999   3001     1  0.0000000  0.0000000  2
   2997   2995   2999   3001     1  180.0000771  0.3347200  3
   2998   2995   2999   3000     1  180.0000771  0.0000000  2
   2998   2995   2999   3001     1  0.0000000  3.3472000  1
   2998   2995   2999   3001     1  0.0000000  0.0000000  2
   2998   2995   2999   3001     1  180.0000771  0.3347200  3
   3001   2999   3000   3010     1  0.0000000  7.9496000  1
   3001   2999   3000   3010     1  180.0000771  9.6232000  2
   3002   2992   2991   3012     1  0.0000000  0.6508444  3
   3002   2992   3004   3007     1  0.0000000  0.6508444  3
   3002   2992   3004   3005     1  0.0000000  0.6508444  3
   3002   2992   3004   3006     1  0.0000000  0.6508444  3
   3003   2992   2991   3012     1  0.0000000  0.6508444  3
   3003   2992   3004   3007     1  0.0000000  0.6508444  3
   3003   2992   3004   3005     1  0.0000000  0.6508444  3
   3003   2992   3004   3006     1  0.0000000  0.6508444  3
   3004   2992   2991   3012     1  0.0000000  0.6508444  3
   3004   3007   3009   3011     1  180.0000771  9.6232000  2
   3005   3004   3007   3008     1  0.0000000  3.3472000  1
   3005   3004   3007   3008     1  0.0000000  0.0000000  2
   3005   3004   3007   3008     1  180.0000771  0.3347200  3
   3005   3004   3007   3009     1  180.0000771  0.0000000  2
   3006   3004   3007   3008     1  0.0000000  3.3472000  1
   3006   3004   3007   3008     1  0.0000000  0.0000000  2
   3006   3004   3007   3008     1  180.0000771  0.3347200  3
   3006   3004   3007   3009     1  180.0000771  0.0000000  2
   3008   3007   3009   3011     1  0.0000000  7.9496000  1
   3008   3007   3009   3011     1  180.0000771  9.6232000  2
   3013   3015   3017   3019     1  0.0000000  0.6508444  3
   3013   3015   3017   3020     1  0.0000000  0.6508444  3
   3014   3013   3015   3017     1  0.0000000  0.0000000  2
   3014   3013   3015   3016     1  0.0000000  0.0000000  2
   3014   3013   3015   3018     1  0.0000000  0.0000000  2
   3015   3017   3021   3042     1  0.0000000  0.6508444  3
   3016   3015   3017   3021     1  0.0000000  0.6508444  3
   3016   3015   3017   3019     1  0.0000000  0.6508444  3
   3016   3015   3017   3020     1  0.0000000  0.6508444  3
   3017   3021   3022   3032     1  0.0000000  0.6508444  3
   3017   3021   3022   3033     1  0.0000000  0.6508444  3
   3017   3021   3023   3024     1  0.0000000  0.6508444  3
   3017   3021   3023   3026     1  0.0000000  0.6508444  3
   3018   3015   3017   3021     1  0.0000000  0.6508444  3
   3018   3015   3017   3019     1  0.0000000  0.6508444  3
   3018   3015   3017   3020     1  0.0000000  0.6508444  3
   3019   3017   3021   3022     1  0.0000000  0.6508444  3
   3019   3017   3021   3023     1  0.0000000  0.6508444  3
   3019   3017   3021   3042     1  0.0000000  0.6508444  3
   3020   3017   3021   3022     1  0.0000000  0.6508444  3
   3020   3017   3021   3023     1  0.0000000  0.6508444  3
   3020   3017   3021   3042     1  0.0000000  0.6508444  3
   3021   3022   3034   3035     1  0.0000000  0.6508444  3
   3021   3022   3034   3036     1  0.0000000  0.6508444  3
   3021   3023   3025   3027     1  0.0000000  0.6508444  3
   3021   3023   3025   3028     1  0.0000000  0.6508444  3
   3022   3021   3023   3024     1  0.0000000  0.6508444  3
   3022   3021   3023   3026     1  0.0000000  0.6508444  3
   3023   3021   3022   3032     1  0.0000000  0.6508444  3
   3023   3021   3022   3033     1  0.0000000  0.6508444  3
   3024   3023   3025   3029     1  0.0000000  0.6508444  3
   3024   3023   3025   3027     1  0.0000000  0.6508444  3
   3024   3023   3025   3028     1  0.0000000  0.6508444  3
   3024   3023   3021   3042     1  0.0000000  0.6508444  3
   3025   3029   3030   3040     1  180.0000771  9.6232000  2
   3025   3023   3021   3042     1  0.0000000  0.6508444  3
   3026   3023   3025   3029     1  0.0000000  0.6508444  3
   3026   3023   3025   3027     1  0.0000000  0.6508444  3
   3026   3023   3025   3028     1  0.0000000  0.6508444  3
   3026   3023   3021   3042     1  0.0000000  0.6508444  3
   3027   3025   3029   3030     1  180.0000771  0.0000000  2
   3027   3025   3029   3031     1  0.0000000  3.3472000  1
   3027   3025   3029   3031     1  0.0000000  0.0000000  2
   3027   3025   3029   3031     1  180.0000771  0.3347200  3
   3028   3025   3029   3030     1  180.0000771  0.0000000  2
   3028   3025   3029   3031     1  0.0000000  3.3472000  1
   3028   3025   3029   3031     1  0.0000000  0.0000000  2
   3028   3025   3029   3031     1  180.0000771  0.3347200  3
   3031   3029   3030   3040     1  0.0000000  7.9496000  1
   3031   3029   3030   3040     1  180.0000771  9.6232000  2
   3032   3022   3034   3037     1  0.0000000  0.6508444  3
   3032   3022   3034   3035     1  0.0000000  0.6508444  3
   3032   3022   3034   3036     1  0.0000000  0.6508444  3
   3032   3022   3021   3042     1  0.0000000  0.6508444  3
   3033   3022   3034   3037     1  0.0000000  0.6508444  3
   3033   3022   3034   3035     1  0.0000000  0.6508444  3
   3033   3022   3034   3036     1  0.0000000  0.6508444  3
   3033   3022   3021   3042     1  0.0000000  0.6508444  3
   3034   3037   3039   3041     1  180.0000771  9.6232000  2
   3034   3022   3021   3042     1  0.0000000  0.6508444  3
   3035   3034   3037   3038     1  0.0000000  3.3472000  1
   3035   3034   3037   3038     1  0.0000000  0.0000000  2
   3035   3034   3037   3038     1  180.0000771  0.3347200  3
   3035   3034   3037   3039     1  180.0000771  0.0000000  2
   3036   3034   3037   3038     1  0.0000000  3.3472000  1
   3036   3034   3037   3038     1  0.0000000  0.0000000  2
   3036   3034   3037   3038     1  180.0000771  0.3347200  3
   3036   3034   3037   3039     1  180.0000771  0.0000000  2
   3038   3037   3039   3041     1  0.0000000  7.9496000  1
   3038   3037   3039   3041     1  180.0000771  9.6232000  2
   3043   3045   3047   3049     1  0.0000000  0.6508444  3
   3043   3045   3047   3050     1  0.0000000  0.6508444  3
   3044   3043   3045   3047     1  0.0000000  0.0000000  2
   3044   3043   3045   3046     1  0.0000000  0.0000000  2
   3044   3043   3045   3048     1  0.0000000  0.0000000  2
   3045   3047   3051   3072     1  0.0000000  0.6508444  3
   3046   3045   3047   3051     1  0.0000000  0.6508444  3
   3046   3045   3047   3049     1  0.0000000  0.6508444  3
   3046   3045   3047   3050     1  0.0000000  0.6508444  3
   3047   3051   3052   3062     1  0.0000000  0.6508444  3
   3047   3051   3052   3063     1  0.0000000  0.6508444  3
   3047   3051   3053   3054     1  0.0000000  0.6508444  3
   3047   3051   3053   3056     1  0.0000000  0.6508444  3
   3048   3045   3047   3051     1  0.0000000  0.6508444  3
   3048   3045   3047   3049     1  0.0000000  0.6508444  3
   3048   3045   3047   3050     1  0.0000000  0.6508444  3
   3049   3047   3051   3052     1  0.0000000  0.6508444  3
   3049   3047   3051   3053     1  0.0000000  0.6508444  3
   3049   3047   3051   3072     1  0.0000000  0.6508444  3
   3050   3047   3051   3052     1  0.0000000  0.6508444  3
   3050   3047   3051   3053     1  0.0000000  0.6508444  3
   3050   3047   3051   3072     1  0.0000000  0.6508444  3
   3051   3052   3064   3065     1  0.0000000  0.6508444  3
   3051   3052   3064   3066     1  0.0000000  0.6508444  3
   3051   3053   3055   3057     1  0.0000000  0.6508444  3
   3051   3053   3055   3058     1  0.0000000  0.6508444  3
   3052   3051   3053   3054     1  0.0000000  0.6508444  3
   3052   3051   3053   3056     1  0.0000000  0.6508444  3
   3053   3051   3052   3062     1  0.0000000  0.6508444  3
   3053   3051   3052   3063     1  0.0000000  0.6508444  3
   3054   3053   3051   3072     1  0.0000000  0.6508444  3
   3054   3053   3055   3059     1  0.0000000  0.6508444  3
   3054   3053   3055   3057     1  0.0000000  0.6508444  3
   3054   3053   3055   3058     1  0.0000000  0.6508444  3
   3055   3053   3051   3072     1  0.0000000  0.6508444  3
   3055   3059   3060   3070     1  180.0000771  9.6232000  2
   3056   3053   3051   3072     1  0.0000000  0.6508444  3
   3056   3053   3055   3059     1  0.0000000  0.6508444  3
   3056   3053   3055   3057     1  0.0000000  0.6508444  3
   3056   3053   3055   3058     1  0.0000000  0.6508444  3
   3057   3055   3059   3060     1  180.0000771  0.0000000  2
   3057   3055   3059   3061     1  0.0000000  3.3472000  1
   3057   3055   3059   3061     1  0.0000000  0.0000000  2
   3057   3055   3059   3061     1  180.0000771  0.3347200  3
   3058   3055   3059   3060     1  180.0000771  0.0000000  2
   3058   3055   3059   3061     1  0.0000000  3.3472000  1
   3058   3055   3059   3061     1  0.0000000  0.0000000  2
   3058   3055   3059   3061     1  180.0000771  0.3347200  3
   3061   3059   3060   3070     1  0.0000000  7.9496000  1
   3061   3059   3060   3070     1  180.0000771  9.6232000  2
   3062   3052   3051   3072     1  0.0000000  0.6508444  3
   3062   3052   3064   3067     1  0.0000000  0.6508444  3
   3062   3052   3064   3065     1  0.0000000  0.6508444  3
   3062   3052   3064   3066     1  0.0000000  0.6508444  3
   3063   3052   3051   3072     1  0.0000000  0.6508444  3
   3063   3052   3064   3067     1  0.0000000  0.6508444  3
   3063   3052   3064   3065     1  0.0000000  0.6508444  3
   3063   3052   3064   3066     1  0.0000000  0.6508444  3
   3064   3052   3051   3072     1  0.0000000  0.6508444  3
   3064   3067   3069   3071     1  180.0000771  9.6232000  2
   3065   3064   3067   3068     1  0.0000000  3.3472000  1
   3065   3064   3067   3068     1  0.0000000  0.0000000  2
   3065   3064   3067   3068     1  180.0000771  0.3347200  3
   3065   3064   3067   3069     1  180.0000771  0.0000000  2
   3066   3064   3067   3068     1  0.0000000  3.3472000  1
   3066   3064   3067   3068     1  0.0000000  0.0000000  2
   3066   3064   3067   3068     1  180.0000771  0.3347200  3
   3066   3064   3067   3069     1  180.0000771  0.0000000  2
   3068   3067   3069   3071     1  0.0000000  7.9496000  1
   3068   3067   3069   3071     1  180.0000771  9.6232000  2
   3073   3075   3077   3079     1  0.0000000  0.6508444  3
   3073   3075   3077   3080     1  0.0000000  0.6508444  3
   3074   3073   3075   3077     1  0.0000000  0.0000000  2
   3074   3073   3075   3076     1  0.0000000  0.0000000  2
   3074   3073   3075   3078     1  0.0000000  0.0000000  2
   3075   3077   3081   3102     1  0.0000000  0.6508444  3
   3076   3075   3077   3081     1  0.0000000  0.6508444  3
   3076   3075   3077   3079     1  0.0000000  0.6508444  3
   3076   3075   3077   3080     1  0.0000000  0.6508444  3
   3077   3081   3082   3092     1  0.0000000  0.6508444  3
   3077   3081   3082   3093     1  0.0000000  0.6508444  3
   3077   3081   3083   3084     1  0.0000000  0.6508444  3
   3077   3081   3083   3086     1  0.0000000  0.6508444  3
   3078   3075   3077   3081     1  0.0000000  0.6508444  3
   3078   3075   3077   3079     1  0.0000000  0.6508444  3
   3078   3075   3077   3080     1  0.0000000  0.6508444  3
   3079   3077   3081   3082     1  0.0000000  0.6508444  3
   3079   3077   3081   3083     1  0.0000000  0.6508444  3
   3079   3077   3081   3102     1  0.0000000  0.6508444  3
   3080   3077   3081   3082     1  0.0000000  0.6508444  3
   3080   3077   3081   3083     1  0.0000000  0.6508444  3
   3080   3077   3081   3102     1  0.0000000  0.6508444  3
   3081   3082   3094   3095     1  0.0000000  0.6508444  3
   3081   3082   3094   3096     1  0.0000000  0.6508444  3
   3081   3083   3085   3087     1  0.0000000  0.6508444  3
   3081   3083   3085   3088     1  0.0000000  0.6508444  3
   3082   3081   3083   3084     1  0.0000000  0.6508444  3
   3082   3081   3083   3086     1  0.0000000  0.6508444  3
   3083   3081   3082   3092     1  0.0000000  0.6508444  3
   3083   3081   3082   3093     1  0.0000000  0.6508444  3
   3084   3083   3085   3089     1  0.0000000  0.6508444  3
   3084   3083   3085   3087     1  0.0000000  0.6508444  3
   3084   3083   3085   3088     1  0.0000000  0.6508444  3
   3084   3083   3081   3102     1  0.0000000  0.6508444  3
   3085   3089   3090   3100     1  180.0000771  9.6232000  2
   3085   3083   3081   3102     1  0.0000000  0.6508444  3
   3086   3083   3085   3089     1  0.0000000  0.6508444  3
   3086   3083   3085   3087     1  0.0000000  0.6508444  3
   3086   3083   3085   3088     1  0.0000000  0.6508444  3
   3086   3083   3081   3102     1  0.0000000  0.6508444  3
   3087   3085   3089   3090     1  180.0000771  0.0000000  2
   3087   3085   3089   3091     1  0.0000000  3.3472000  1
   3087   3085   3089   3091     1  0.0000000  0.0000000  2
   3087   3085   3089   3091     1  180.0000771  0.3347200  3
   3088   3085   3089   3090     1  180.0000771  0.0000000  2
   3088   3085   3089   3091     1  0.0000000  3.3472000  1
   3088   3085   3089   3091     1  0.0000000  0.0000000  2
   3088   3085   3089   3091     1  180.0000771  0.3347200  3
   3091   3089   3090   3100     1  0.0000000  7.9496000  1
   3091   3089   3090   3100     1  180.0000771  9.6232000  2
   3092   3082   3094   3097     1  0.0000000  0.6508444  3
   3092   3082   3094   3095     1  0.0000000  0.6508444  3
   3092   3082   3094   3096     1  0.0000000  0.6508444  3
   3092   3082   3081   3102     1  0.0000000  0.6508444  3
   3093   3082   3094   3097     1  0.0000000  0.6508444  3
   3093   3082   3094   3095     1  0.0000000  0.6508444  3
   3093   3082   3094   3096     1  0.0000000  0.6508444  3
   3093   3082   3081   3102     1  0.0000000  0.6508444  3
   3094   3097   3099   3101     1  180.0000771  9.6232000  2
   3094   3082   3081   3102     1  0.0000000  0.6508444  3
   3095   3094   3097   3098     1  0.0000000  3.3472000  1
   3095   3094   3097   3098     1  0.0000000  0.0000000  2
   3095   3094   3097   3098     1  180.0000771  0.3347200  3
   3095   3094   3097   3099     1  180.0000771  0.0000000  2
   3096   3094   3097   3098     1  0.0000000  3.3472000  1
   3096   3094   3097   3098     1  0.0000000  0.0000000  2
   3096   3094   3097   3098     1  180.0000771  0.3347200  3
   3096   3094   3097   3099     1  180.0000771  0.0000000  2
   3098   3097   3099   3101     1  0.0000000  7.9496000  1
   3098   3097   3099   3101     1  180.0000771  9.6232000  2
   3103   3105   3107   3109     1  0.0000000  0.6508444  3
   3103   3105   3107   3110     1  0.0000000  0.6508444  3
   3104   3103   3105   3107     1  0.0000000  0.0000000  2
   3104   3103   3105   3106     1  0.0000000  0.0000000  2
   3104   3103   3105   3108     1  0.0000000  0.0000000  2
   3105   3107   3111   3132     1  0.0000000  0.6508444  3
   3106   3105   3107   3111     1  0.0000000  0.6508444  3
   3106   3105   3107   3109     1  0.0000000  0.6508444  3
   3106   3105   3107   3110     1  0.0000000  0.6508444  3
   3107   3111   3112   3122     1  0.0000000  0.6508444  3
   3107   3111   3112   3123     1  0.0000000  0.6508444  3
   3107   3111   3113   3114     1  0.0000000  0.6508444  3
   3107   3111   3113   3116     1  0.0000000  0.6508444  3
   3108   3105   3107   3111     1  0.0000000  0.6508444  3
   3108   3105   3107   3109     1  0.0000000  0.6508444  3
   3108   3105   3107   3110     1  0.0000000  0.6508444  3
   3109   3107   3111   3112     1  0.0000000  0.6508444  3
   3109   3107   3111   3113     1  0.0000000  0.6508444  3
   3109   3107   3111   3132     1  0.0000000  0.6508444  3
   3110   3107   3111   3112     1  0.0000000  0.6508444  3
   3110   3107   3111   3113     1  0.0000000  0.6508444  3
   3110   3107   3111   3132     1  0.0000000  0.6508444  3
   3111   3112   3124   3125     1  0.0000000  0.6508444  3
   3111   3112   3124   3126     1  0.0000000  0.6508444  3
   3111   3113   3115   3117     1  0.0000000  0.6508444  3
   3111   3113   3115   3118     1  0.0000000  0.6508444  3
   3112   3111   3113   3114     1  0.0000000  0.6508444  3
   3112   3111   3113   3116     1  0.0000000  0.6508444  3
   3113   3111   3112   3122     1  0.0000000  0.6508444  3
   3113   3111   3112   3123     1  0.0000000  0.6508444  3
   3114   3113   3111   3132     1  0.0000000  0.6508444  3
   3114   3113   3115   3119     1  0.0000000  0.6508444  3
   3114   3113   3115   3117     1  0.0000000  0.6508444  3
   3114   3113   3115   3118     1  0.0000000  0.6508444  3
   3115   3113   3111   3132     1  0.0000000  0.6508444  3
   3115   3119   3120   3130     1  180.0000771  9.6232000  2
   3116   3113   3111   3132     1  0.0000000  0.6508444  3
   3116   3113   3115   3119     1  0.0000000  0.6508444  3
   3116   3113   3115   3117     1  0.0000000  0.6508444  3
   3116   3113   3115   3118     1  0.0000000  0.6508444  3
   3117   3115   3119   3120     1  180.0000771  0.0000000  2
   3117   3115   3119   3121     1  0.0000000  3.3472000  1
   3117   3115   3119   3121     1  0.0000000  0.0000000  2
   3117   3115   3119   3121     1  180.0000771  0.3347200  3
   3118   3115   3119   3120     1  180.0000771  0.0000000  2
   3118   3115   3119   3121     1  0.0000000  3.3472000  1
   3118   3115   3119   3121     1  0.0000000  0.0000000  2
   3118   3115   3119   3121     1  180.0000771  0.3347200  3
   3121   3119   3120   3130     1  0.0000000  7.9496000  1
   3121   3119   3120   3130     1  180.0000771  9.6232000  2
   3122   3112   3111   3132     1  0.0000000  0.6508444  3
   3122   3112   3124   3127     1  0.0000000  0.6508444  3
   3122   3112   3124   3125     1  0.0000000  0.6508444  3
   3122   3112   3124   3126     1  0.0000000  0.6508444  3
   3123   3112   3111   3132     1  0.0000000  0.6508444  3
   3123   3112   3124   3127     1  0.0000000  0.6508444  3
   3123   3112   3124   3125     1  0.0000000  0.6508444  3
   3123   3112   3124   3126     1  0.0000000  0.6508444  3
   3124   3112   3111   3132     1  0.0000000  0.6508444  3
   3124   3127   3129   3131     1  180.0000771  9.6232000  2
   3125   3124   3127   3128     1  0.0000000  3.3472000  1
   3125   3124   3127   3128     1  0.0000000  0.0000000  2
   3125   3124   3127   3128     1  180.0000771  0.3347200  3
   3125   3124   3127   3129     1  180.0000771  0.0000000  2
   3126   3124   3127   3128     1  0.0000000  3.3472000  1
   3126   3124   3127   3128     1  0.0000000  0.0000000  2
   3126   3124   3127   3128     1  180.0000771  0.3347200  3
   3126   3124   3127   3129     1  180.0000771  0.0000000  2
   3128   3127   3129   3131     1  0.0000000  7.9496000  1
   3128   3127   3129   3131     1  180.0000771  9.6232000  2
   3133   3135   3137   3139     1  0.0000000  0.6508444  3
   3133   3135   3137   3140     1  0.0000000  0.6508444  3
   3134   3133   3135   3137     1  0.0000000  0.0000000  2
   3134   3133   3135   3136     1  0.0000000  0.0000000  2
   3134   3133   3135   3138     1  0.0000000  0.0000000  2
   3135   3137   3141   3162     1  0.0000000  0.6508444  3
   3136   3135   3137   3141     1  0.0000000  0.6508444  3
   3136   3135   3137   3139     1  0.0000000  0.6508444  3
   3136   3135   3137   3140     1  0.0000000  0.6508444  3
   3137   3141   3142   3152     1  0.0000000  0.6508444  3
   3137   3141   3142   3153     1  0.0000000  0.6508444  3
   3137   3141   3143   3144     1  0.0000000  0.6508444  3
   3137   3141   3143   3146     1  0.0000000  0.6508444  3
   3138   3135   3137   3141     1  0.0000000  0.6508444  3
   3138   3135   3137   3139     1  0.0000000  0.6508444  3
   3138   3135   3137   3140     1  0.0000000  0.6508444  3
   3139   3137   3141   3142     1  0.0000000  0.6508444  3
   3139   3137   3141   3143     1  0.0000000  0.6508444  3
   3139   3137   3141   3162     1  0.0000000  0.6508444  3
   3140   3137   3141   3142     1  0.0000000  0.6508444  3
   3140   3137   3141   3143     1  0.0000000  0.6508444  3
   3140   3137   3141   3162     1  0.0000000  0.6508444  3
   3141   3142   3154   3155     1  0.0000000  0.6508444  3
   3141   3142   3154   3156     1  0.0000000  0.6508444  3
   3141   3143   3145   3147     1  0.0000000  0.6508444  3
   3141   3143   3145   3148     1  0.0000000  0.6508444  3
   3142   3141   3143   3144     1  0.0000000  0.6508444  3
   3142   3141   3143   3146     1  0.0000000  0.6508444  3
   3143   3141   3142   3152     1  0.0000000  0.6508444  3
   3143   3141   3142   3153     1  0.0000000  0.6508444  3
   3144   3143   3145   3149     1  0.0000000  0.6508444  3
   3144   3143   3145   3147     1  0.0000000  0.6508444  3
   3144   3143   3145   3148     1  0.0000000  0.6508444  3
   3144   3143   3141   3162     1  0.0000000  0.6508444  3
   3145   3149   3150   3160     1  180.0000771  9.6232000  2
   3145   3143   3141   3162     1  0.0000000  0.6508444  3
   3146   3143   3145   3149     1  0.0000000  0.6508444  3
   3146   3143   3145   3147     1  0.0000000  0.6508444  3
   3146   3143   3145   3148     1  0.0000000  0.6508444  3
   3146   3143   3141   3162     1  0.0000000  0.6508444  3
   3147   3145   3149   3150     1  180.0000771  0.0000000  2
   3147   3145   3149   3151     1  0.0000000  3.3472000  1
   3147   3145   3149   3151     1  0.0000000  0.0000000  2
   3147   3145   3149   3151     1  180.0000771  0.3347200  3
   3148   3145   3149   3150     1  180.0000771  0.0000000  2
   3148   3145   3149   3151     1  0.0000000  3.3472000  1
   3148   3145   3149   3151     1  0.0000000  0.0000000  2
   3148   3145   3149   3151     1  180.0000771  0.3347200  3
   3151   3149   3150   3160     1  0.0000000  7.9496000  1
   3151   3149   3150   3160     1  180.0000771  9.6232000  2
   3152   3142   3154   3157     1  0.0000000  0.6508444  3
   3152   3142   3154   3155     1  0.0000000  0.6508444  3
   3152   3142   3154   3156     1  0.0000000  0.6508444  3
   3152   3142   3141   3162     1  0.0000000  0.6508444  3
   3153   3142   3154   3157     1  0.0000000  0.6508444  3
   3153   3142   3154   3155     1  0.0000000  0.6508444  3
   3153   3142   3154   3156     1  0.0000000  0.6508444  3
   3153   3142   3141   3162     1  0.0000000  0.6508444  3
   3154   3157   3159   3161     1  180.0000771  9.6232000  2
   3154   3142   3141   3162     1  0.0000000  0.6508444  3
   3155   3154   3157   3158     1  0.0000000  3.3472000  1
   3155   3154   3157   3158     1  0.0000000  0.0000000  2
   3155   3154   3157   3158     1  180.0000771  0.3347200  3
   3155   3154   3157   3159     1  180.0000771  0.0000000  2
   3156   3154   3157   3158     1  0.0000000  3.3472000  1
   3156   3154   3157   3158     1  0.0000000  0.0000000  2
   3156   3154   3157   3158     1  180.0000771  0.3347200  3
   3156   3154   3157   3159     1  180.0000771  0.0000000  2
   3158   3157   3159   3161     1  0.0000000  7.9496000  1
   3158   3157   3159   3161     1  180.0000771  9.6232000  2
   3163   3165   3167   3169     1  0.0000000  0.6508444  3
   3163   3165   3167   3170     1  0.0000000  0.6508444  3
   3164   3163   3165   3167     1  0.0000000  0.0000000  2
   3164   3163   3165   3166     1  0.0000000  0.0000000  2
   3164   3163   3165   3168     1  0.0000000  0.0000000  2
   3165   3167   3171   3192     1  0.0000000  0.6508444  3
   3166   3165   3167   3171     1  0.0000000  0.6508444  3
   3166   3165   3167   3169     1  0.0000000  0.6508444  3
   3166   3165   3167   3170     1  0.0000000  0.6508444  3
   3167   3171   3172   3182     1  0.0000000  0.6508444  3
   3167   3171   3172   3183     1  0.0000000  0.6508444  3
   3167   3171   3173   3174     1  0.0000000  0.6508444  3
   3167   3171   3173   3176     1  0.0000000  0.6508444  3
   3168   3165   3167   3171     1  0.0000000  0.6508444  3
   3168   3165   3167   3169     1  0.0000000  0.6508444  3
   3168   3165   3167   3170     1  0.0000000  0.6508444  3
   3169   3167   3171   3172     1  0.0000000  0.6508444  3
   3169   3167   3171   3173     1  0.0000000  0.6508444  3
   3169   3167   3171   3192     1  0.0000000  0.6508444  3
   3170   3167   3171   3172     1  0.0000000  0.6508444  3
   3170   3167   3171   3173     1  0.0000000  0.6508444  3
   3170   3167   3171   3192     1  0.0000000  0.6508444  3
   3171   3172   3184   3185     1  0.0000000  0.6508444  3
   3171   3172   3184   3186     1  0.0000000  0.6508444  3
   3171   3173   3175   3177     1  0.0000000  0.6508444  3
   3171   3173   3175   3178     1  0.0000000  0.6508444  3
   3172   3171   3173   3174     1  0.0000000  0.6508444  3
   3172   3171   3173   3176     1  0.0000000  0.6508444  3
   3173   3171   3172   3182     1  0.0000000  0.6508444  3
   3173   3171   3172   3183     1  0.0000000  0.6508444  3
   3174   3173   3171   3192     1  0.0000000  0.6508444  3
   3174   3173   3175   3179     1  0.0000000  0.6508444  3
   3174   3173   3175   3177     1  0.0000000  0.6508444  3
   3174   3173   3175   3178     1  0.0000000  0.6508444  3
   3175   3173   3171   3192     1  0.0000000  0.6508444  3
   3175   3179   3180   3190     1  180.0000771  9.6232000  2
   3176   3173   3171   3192     1  0.0000000  0.6508444  3
   3176   3173   3175   3179     1  0.0000000  0.6508444  3
   3176   3173   3175   3177     1  0.0000000  0.6508444  3
   3176   3173   3175   3178     1  0.0000000  0.6508444  3
   3177   3175   3179   3180     1  180.0000771  0.0000000  2
   3177   3175   3179   3181     1  0.0000000  3.3472000  1
   3177   3175   3179   3181     1  0.0000000  0.0000000  2
   3177   3175   3179   3181     1  180.0000771  0.3347200  3
   3178   3175   3179   3180     1  180.0000771  0.0000000  2
   3178   3175   3179   3181     1  0.0000000  3.3472000  1
   3178   3175   3179   3181     1  0.0000000  0.0000000  2
   3178   3175   3179   3181     1  180.0000771  0.3347200  3
   3181   3179   3180   3190     1  0.0000000  7.9496000  1
   3181   3179   3180   3190     1  180.0000771  9.6232000  2
   3182   3172   3171   3192     1  0.0000000  0.6508444  3
   3182   3172   3184   3187     1  0.0000000  0.6508444  3
   3182   3172   3184   3185     1  0.0000000  0.6508444  3
   3182   3172   3184   3186     1  0.0000000  0.6508444  3
   3183   3172   3171   3192     1  0.0000000  0.6508444  3
   3183   3172   3184   3187     1  0.0000000  0.6508444  3
   3183   3172   3184   3185     1  0.0000000  0.6508444  3
   3183   3172   3184   3186     1  0.0000000  0.6508444  3
   3184   3172   3171   3192     1  0.0000000  0.6508444  3
   3184   3187   3189   3191     1  180.0000771  9.6232000  2
   3185   3184   3187   3188     1  0.0000000  3.3472000  1
   3185   3184   3187   3188     1  0.0000000  0.0000000  2
   3185   3184   3187   3188     1  180.0000771  0.3347200  3
   3185   3184   3187   3189     1  180.0000771  0.0000000  2
   3186   3184   3187   3188     1  0.0000000  3.3472000  1
   3186   3184   3187   3188     1  0.0000000  0.0000000  2
   3186   3184   3187   3188     1  180.0000771  0.3347200  3
   3186   3184   3187   3189     1  180.0000771  0.0000000  2
   3188   3187   3189   3191     1  0.0000000  7.9496000  1
   3188   3187   3189   3191     1  180.0000771  9.6232000  2
   3193   3195   3197   3199     1  0.0000000  0.6508444  3
   3193   3195   3197   3200     1  0.0000000  0.6508444  3
   3194   3193   3195   3197     1  0.0000000  0.0000000  2
   3194   3193   3195   3196     1  0.0000000  0.0000000  2
   3194   3193   3195   3198     1  0.0000000  0.0000000  2
   3195   3197   3201   3222     1  0.0000000  0.6508444  3
   3196   3195   3197   3201     1  0.0000000  0.6508444  3
   3196   3195   3197   3199     1  0.0000000  0.6508444  3
   3196   3195   3197   3200     1  0.0000000  0.6508444  3
   3197   3201   3202   3212     1  0.0000000  0.6508444  3
   3197   3201   3202   3213     1  0.0000000  0.6508444  3
   3197   3201   3203   3204     1  0.0000000  0.6508444  3
   3197   3201   3203   3206     1  0.0000000  0.6508444  3
   3198   3195   3197   3201     1  0.0000000  0.6508444  3
   3198   3195   3197   3199     1  0.0000000  0.6508444  3
   3198   3195   3197   3200     1  0.0000000  0.6508444  3
   3199   3197   3201   3202     1  0.0000000  0.6508444  3
   3199   3197   3201   3203     1  0.0000000  0.6508444  3
   3199   3197   3201   3222     1  0.0000000  0.6508444  3
   3200   3197   3201   3202     1  0.0000000  0.6508444  3
   3200   3197   3201   3203     1  0.0000000  0.6508444  3
   3200   3197   3201   3222     1  0.0000000  0.6508444  3
   3201   3202   3214   3215     1  0.0000000  0.6508444  3
   3201   3202   3214   3216     1  0.0000000  0.6508444  3
   3201   3203   3205   3207     1  0.0000000  0.6508444  3
   3201   3203   3205   3208     1  0.0000000  0.6508444  3
   3202   3201   3203   3204     1  0.0000000  0.6508444  3
   3202   3201   3203   3206     1  0.0000000  0.6508444  3
   3203   3201   3202   3212     1  0.0000000  0.6508444  3
   3203   3201   3202   3213     1  0.0000000  0.6508444  3
   3204   3203   3205   3209     1  0.0000000  0.6508444  3
   3204   3203   3205   3207     1  0.0000000  0.6508444  3
   3204   3203   3205   3208     1  0.0000000  0.6508444  3
   3204   3203   3201   3222     1  0.0000000  0.6508444  3
   3205   3209   3210   3220     1  180.0000771  9.6232000  2
   3205   3203   3201   3222     1  0.0000000  0.6508444  3
   3206   3203   3205   3209     1  0.0000000  0.6508444  3
   3206   3203   3205   3207     1  0.0000000  0.6508444  3
   3206   3203   3205   3208     1  0.0000000  0.6508444  3
   3206   3203   3201   3222     1  0.0000000  0.6508444  3
   3207   3205   3209   3210     1  180.0000771  0.0000000  2
   3207   3205   3209   3211     1  0.0000000  3.3472000  1
   3207   3205   3209   3211     1  0.0000000  0.0000000  2
   3207   3205   3209   3211     1  180.0000771  0.3347200  3
   3208   3205   3209   3210     1  180.0000771  0.0000000  2
   3208   3205   3209   3211     1  0.0000000  3.3472000  1
   3208   3205   3209   3211     1  0.0000000  0.0000000  2
   3208   3205   3209   3211     1  180.0000771  0.3347200  3
   3211   3209   3210   3220     1  0.0000000  7.9496000  1
   3211   3209   3210   3220     1  180.0000771  9.6232000  2
   3212   3202   3214   3217     1  0.0000000  0.6508444  3
   3212   3202   3214   3215     1  0.0000000  0.6508444  3
   3212   3202   3214   3216     1  0.0000000  0.6508444  3
   3212   3202   3201   3222     1  0.0000000  0.6508444  3
   3213   3202   3214   3217     1  0.0000000  0.6508444  3
   3213   3202   3214   3215     1  0.0000000  0.6508444  3
   3213   3202   3214   3216     1  0.0000000  0.6508444  3
   3213   3202   3201   3222     1  0.0000000  0.6508444  3
   3214   3217   3219   3221     1  180.0000771  9.6232000  2
   3214   3202   3201   3222     1  0.0000000  0.6508444  3
   3215   3214   3217   3218     1  0.0000000  3.3472000  1
   3215   3214   3217   3218     1  0.0000000  0.0000000  2
   3215   3214   3217   3218     1  180.0000771  0.3347200  3
   3215   3214   3217   3219     1  180.0000771  0.0000000  2
   3216   3214   3217   3218     1  0.0000000  3.3472000  1
   3216   3214   3217   3218     1  0.0000000  0.0000000  2
   3216   3214   3217   3218     1  180.0000771  0.3347200  3
   3216   3214   3217   3219     1  180.0000771  0.0000000  2
   3218   3217   3219   3221     1  0.0000000  7.9496000  1
   3218   3217   3219   3221     1  180.0000771  9.6232000  2
   3223   3225   3227   3229     1  0.0000000  0.6508444  3
   3223   3225   3227   3230     1  0.0000000  0.6508444  3
   3224   3223   3225   3227     1  0.0000000  0.0000000  2
   3224   3223   3225   3226     1  0.0000000  0.0000000  2
   3224   3223   3225   3228     1  0.0000000  0.0000000  2
   3225   3227   3231   3252     1  0.0000000  0.6508444  3
   3226   3225   3227   3231     1  0.0000000  0.6508444  3
   3226   3225   3227   3229     1  0.0000000  0.6508444  3
   3226   3225   3227   3230     1  0.0000000  0.6508444  3
   3227   3231   3232   3242     1  0.0000000  0.6508444  3
   3227   3231   3232   3243     1  0.0000000  0.6508444  3
   3227   3231   3233   3234     1  0.0000000  0.6508444  3
   3227   3231   3233   3236     1  0.0000000  0.6508444  3
   3228   3225   3227   3231     1  0.0000000  0.6508444  3
   3228   3225   3227   3229     1  0.0000000  0.6508444  3
   3228   3225   3227   3230     1  0.0000000  0.6508444  3
   3229   3227   3231   3232     1  0.0000000  0.6508444  3
   3229   3227   3231   3233     1  0.0000000  0.6508444  3
   3229   3227   3231   3252     1  0.0000000  0.6508444  3
   3230   3227   3231   3232     1  0.0000000  0.6508444  3
   3230   3227   3231   3233     1  0.0000000  0.6508444  3
   3230   3227   3231   3252     1  0.0000000  0.6508444  3
   3231   3232   3244   3245     1  0.0000000  0.6508444  3
   3231   3232   3244   3246     1  0.0000000  0.6508444  3
   3231   3233   3235   3237     1  0.0000000  0.6508444  3
   3231   3233   3235   3238     1  0.0000000  0.6508444  3
   3232   3231   3233   3234     1  0.0000000  0.6508444  3
   3232   3231   3233   3236     1  0.0000000  0.6508444  3
   3233   3231   3232   3242     1  0.0000000  0.6508444  3
   3233   3231   3232   3243     1  0.0000000  0.6508444  3
   3234   3233   3231   3252     1  0.0000000  0.6508444  3
   3234   3233   3235   3239     1  0.0000000  0.6508444  3
   3234   3233   3235   3237     1  0.0000000  0.6508444  3
   3234   3233   3235   3238     1  0.0000000  0.6508444  3
   3235   3233   3231   3252     1  0.0000000  0.6508444  3
   3235   3239   3240   3250     1  180.0000771  9.6232000  2
   3236   3233   3231   3252     1  0.0000000  0.6508444  3
   3236   3233   3235   3239     1  0.0000000  0.6508444  3
   3236   3233   3235   3237     1  0.0000000  0.6508444  3
   3236   3233   3235   3238     1  0.0000000  0.6508444  3
   3237   3235   3239   3240     1  180.0000771  0.0000000  2
   3237   3235   3239   3241     1  0.0000000  3.3472000  1
   3237   3235   3239   3241     1  0.0000000  0.0000000  2
   3237   3235   3239   3241     1  180.0000771  0.3347200  3
   3238   3235   3239   3240     1  180.0000771  0.0000000  2
   3238   3235   3239   3241     1  0.0000000  3.3472000  1
   3238   3235   3239   3241     1  0.0000000  0.0000000  2
   3238   3235   3239   3241     1  180.0000771  0.3347200  3
   3241   3239   3240   3250     1  0.0000000  7.9496000  1
   3241   3239   3240   3250     1  180.0000771  9.6232000  2
   3242   3232   3231   3252     1  0.0000000  0.6508444  3
   3242   3232   3244   3247     1  0.0000000  0.6508444  3
   3242   3232   3244   3245     1  0.0000000  0.6508444  3
   3242   3232   3244   3246     1  0.0000000  0.6508444  3
   3243   3232   3231   3252     1  0.0000000  0.6508444  3
   3243   3232   3244   3247     1  0.0000000  0.6508444  3
   3243   3232   3244   3245     1  0.0000000  0.6508444  3
   3243   3232   3244   3246     1  0.0000000  0.6508444  3
   3244   3232   3231   3252     1  0.0000000  0.6508444  3
   3244   3247   3249   3251     1  180.0000771  9.6232000  2
   3245   3244   3247   3248     1  0.0000000  3.3472000  1
   3245   3244   3247   3248     1  0.0000000  0.0000000  2
   3245   3244   3247   3248     1  180.0000771  0.3347200  3
   3245   3244   3247   3249     1  180.0000771  0.0000000  2
   3246   3244   3247   3248     1  0.0000000  3.3472000  1
   3246   3244   3247   3248     1  0.0000000  0.0000000  2
   3246   3244   3247   3248     1  180.0000771  0.3347200  3
   3246   3244   3247   3249     1  180.0000771  0.0000000  2
   3248   3247   3249   3251     1  0.0000000  7.9496000  1
   3248   3247   3249   3251     1  180.0000771  9.6232000  2
   3253   3255   3257   3259     1  0.0000000  0.6508444  3
   3253   3255   3257   3260     1  0.0000000  0.6508444  3
   3254   3253   3255   3257     1  0.0000000  0.0000000  2
   3254   3253   3255   3256     1  0.0000000  0.0000000  2
   3254   3253   3255   3258     1  0.0000000  0.0000000  2
   3255   3257   3261   3282     1  0.0000000  0.6508444  3
   3256   3255   3257   3261     1  0.0000000  0.6508444  3
   3256   3255   3257   3259     1  0.0000000  0.6508444  3
   3256   3255   3257   3260     1  0.0000000  0.6508444  3
   3257   3261   3262   3272     1  0.0000000  0.6508444  3
   3257   3261   3262   3273     1  0.0000000  0.6508444  3
   3257   3261   3263   3264     1  0.0000000  0.6508444  3
   3257   3261   3263   3266     1  0.0000000  0.6508444  3
   3258   3255   3257   3261     1  0.0000000  0.6508444  3
   3258   3255   3257   3259     1  0.0000000  0.6508444  3
   3258   3255   3257   3260     1  0.0000000  0.6508444  3
   3259   3257   3261   3262     1  0.0000000  0.6508444  3
   3259   3257   3261   3263     1  0.0000000  0.6508444  3
   3259   3257   3261   3282     1  0.0000000  0.6508444  3
   3260   3257   3261   3262     1  0.0000000  0.6508444  3
   3260   3257   3261   3263     1  0.0000000  0.6508444  3
   3260   3257   3261   3282     1  0.0000000  0.6508444  3
   3261   3262   3274   3275     1  0.0000000  0.6508444  3
   3261   3262   3274   3276     1  0.0000000  0.6508444  3
   3261   3263   3265   3267     1  0.0000000  0.6508444  3
   3261   3263   3265   3268     1  0.0000000  0.6508444  3
   3262   3261   3263   3264     1  0.0000000  0.6508444  3
   3262   3261   3263   3266     1  0.0000000  0.6508444  3
   3263   3261   3262   3272     1  0.0000000  0.6508444  3
   3263   3261   3262   3273     1  0.0000000  0.6508444  3
   3264   3263   3265   3269     1  0.0000000  0.6508444  3
   3264   3263   3265   3267     1  0.0000000  0.6508444  3
   3264   3263   3265   3268     1  0.0000000  0.6508444  3
   3264   3263   3261   3282     1  0.0000000  0.6508444  3
   3265   3269   3270   3280     1  180.0000771  9.6232000  2
   3265   3263   3261   3282     1  0.0000000  0.6508444  3
   3266   3263   3265   3269     1  0.0000000  0.6508444  3
   3266   3263   3265   3267     1  0.0000000  0.6508444  3
   3266   3263   3265   3268     1  0.0000000  0.6508444  3
   3266   3263   3261   3282     1  0.0000000  0.6508444  3
   3267   3265   3269   3270     1  180.0000771  0.0000000  2
   3267   3265   3269   3271     1  0.0000000  3.3472000  1
   3267   3265   3269   3271     1  0.0000000  0.0000000  2
   3267   3265   3269   3271     1  180.0000771  0.3347200  3
   3268   3265   3269   3270     1  180.0000771  0.0000000  2
   3268   3265   3269   3271     1  0.0000000  3.3472000  1
   3268   3265   3269   3271     1  0.0000000  0.0000000  2
   3268   3265   3269   3271     1  180.0000771  0.3347200  3
   3271   3269   3270   3280     1  0.0000000  7.9496000  1
   3271   3269   3270   3280     1  180.0000771  9.6232000  2
   3272   3262   3274   3277     1  0.0000000  0.6508444  3
   3272   3262   3274   3275     1  0.0000000  0.6508444  3
   3272   3262   3274   3276     1  0.0000000  0.6508444  3
   3272   3262   3261   3282     1  0.0000000  0.6508444  3
   3273   3262   3274   3277     1  0.0000000  0.6508444  3
   3273   3262   3274   3275     1  0.0000000  0.6508444  3
   3273   3262   3274   3276     1  0.0000000  0.6508444  3
   3273   3262   3261   3282     1  0.0000000  0.6508444  3
   3274   3277   3279   3281     1  180.0000771  9.6232000  2
   3274   3262   3261   3282     1  0.0000000  0.6508444  3
   3275   3274   3277   3278     1  0.0000000  3.3472000  1
   3275   3274   3277   3278     1  0.0000000  0.0000000  2
   3275   3274   3277   3278     1  180.0000771  0.3347200  3
   3275   3274   3277   3279     1  180.0000771  0.0000000  2
   3276   3274   3277   3278     1  0.0000000  3.3472000  1
   3276   3274   3277   3278     1  0.0000000  0.0000000  2
   3276   3274   3277   3278     1  180.0000771  0.3347200  3
   3276   3274   3277   3279     1  180.0000771  0.0000000  2
   3278   3277   3279   3281     1  0.0000000  7.9496000  1
   3278   3277   3279   3281     1  180.0000771  9.6232000  2
   3283   3285   3287   3289     1  0.0000000  0.6508444  3
   3283   3285   3287   3290     1  0.0000000  0.6508444  3
   3284   3283   3285   3287     1  0.0000000  0.0000000  2
   3284   3283   3285   3286     1  0.0000000  0.0000000  2
   3284   3283   3285   3288     1  0.0000000  0.0000000  2
   3285   3287   3291   3312     1  0.0000000  0.6508444  3
   3286   3285   3287   3291     1  0.0000000  0.6508444  3
   3286   3285   3287   3289     1  0.0000000  0.6508444  3
   3286   3285   3287   3290     1  0.0000000  0.6508444  3
   3287   3291   3292   3302     1  0.0000000  0.6508444  3
   3287   3291   3292   3303     1  0.0000000  0.6508444  3
   3287   3291   3293   3294     1  0.0000000  0.6508444  3
   3287   3291   3293   3296     1  0.0000000  0.6508444  3
   3288   3285   3287   3291     1  0.0000000  0.6508444  3
   3288   3285   3287   3289     1  0.0000000  0.6508444  3
   3288   3285   3287   3290     1  0.0000000  0.6508444  3
   3289   3287   3291   3292     1  0.0000000  0.6508444  3
   3289   3287   3291   3293     1  0.0000000  0.6508444  3
   3289   3287   3291   3312     1  0.0000000  0.6508444  3
   3290   3287   3291   3292     1  0.0000000  0.6508444  3
   3290   3287   3291   3293     1  0.0000000  0.6508444  3
   3290   3287   3291   3312     1  0.0000000  0.6508444  3
   3291   3292   3304   3305     1  0.0000000  0.6508444  3
   3291   3292   3304   3306     1  0.0000000  0.6508444  3
   3291   3293   3295   3297     1  0.0000000  0.6508444  3
   3291   3293   3295   3298     1  0.0000000  0.6508444  3
   3292   3291   3293   3294     1  0.0000000  0.6508444  3
   3292   3291   3293   3296     1  0.0000000  0.6508444  3
   3293   3291   3292   3302     1  0.0000000  0.6508444  3
   3293   3291   3292   3303     1  0.0000000  0.6508444  3
   3294   3293   3291   3312     1  0.0000000  0.6508444  3
   3294   3293   3295   3299     1  0.0000000  0.6508444  3
   3294   3293   3295   3297     1  0.0000000  0.6508444  3
   3294   3293   3295   3298     1  0.0000000  0.6508444  3
   3295   3293   3291   3312     1  0.0000000  0.6508444  3
   3295   3299   3300   3310     1  180.0000771  9.6232000  2
   3296   3293   3291   3312     1  0.0000000  0.6508444  3
   3296   3293   3295   3299     1  0.0000000  0.6508444  3
   3296   3293   3295   3297     1  0.0000000  0.6508444  3
   3296   3293   3295   3298     1  0.0000000  0.6508444  3
   3297   3295   3299   3300     1  180.0000771  0.0000000  2
   3297   3295   3299   3301     1  0.0000000  3.3472000  1
   3297   3295   3299   3301     1  0.0000000  0.0000000  2
   3297   3295   3299   3301     1  180.0000771  0.3347200  3
   3298   3295   3299   3300     1  180.0000771  0.0000000  2
   3298   3295   3299   3301     1  0.0000000  3.3472000  1
   3298   3295   3299   3301     1  0.0000000  0.0000000  2
   3298   3295   3299   3301     1  180.0000771  0.3347200  3
   3301   3299   3300   3310     1  0.0000000  7.9496000  1
   3301   3299   3300   3310     1  180.0000771  9.6232000  2
   3302   3292   3291   3312     1  0.0000000  0.6508444  3
   3302   3292   3304   3307     1  0.0000000  0.6508444  3
   3302   3292   3304   3305     1  0.0000000  0.6508444  3
   3302   3292   3304   3306     1  0.0000000  0.6508444  3
   3303   3292   3291   3312     1  0.0000000  0.6508444  3
   3303   3292   3304   3307     1  0.0000000  0.6508444  3
   3303   3292   3304   3305     1  0.0000000  0.6508444  3
   3303   3292   3304   3306     1  0.0000000  0.6508444  3
   3304   3292   3291   3312     1  0.0000000  0.6508444  3
   3304   3307   3309   3311     1  180.0000771  9.6232000  2
   3305   3304   3307   3308     1  0.0000000  3.3472000  1
   3305   3304   3307   3308     1  0.0000000  0.0000000  2
   3305   3304   3307   3308     1  180.0000771  0.3347200  3
   3305   3304   3307   3309     1  180.0000771  0.0000000  2
   3306   3304   3307   3308     1  0.0000000  3.3472000  1
   3306   3304   3307   3308     1  0.0000000  0.0000000  2
   3306   3304   3307   3308     1  180.0000771  0.3347200  3
   3306   3304   3307   3309     1  180.0000771  0.0000000  2
   3308   3307   3309   3311     1  0.0000000  7.9496000  1
   3308   3307   3309   3311     1  180.0000771  9.6232000  2
   3313   3315   3317   3319     1  0.0000000  0.6508444  3
   3313   3315   3317   3320     1  0.0000000  0.6508444  3
   3314   3313   3315   3317     1  0.0000000  0.0000000  2
   3314   3313   3315   3316     1  0.0000000  0.0000000  2
   3314   3313   3315   3318     1  0.0000000  0.0000000  2
   3315   3317   3321   3342     1  0.0000000  0.6508444  3
   3316   3315   3317   3321     1  0.0000000  0.6508444  3
   3316   3315   3317   3319     1  0.0000000  0.6508444  3
   3316   3315   3317   3320     1  0.0000000  0.6508444  3
   3317   3321   3322   3332     1  0.0000000  0.6508444  3
   3317   3321   3322   3333     1  0.0000000  0.6508444  3
   3317   3321   3323   3324     1  0.0000000  0.6508444  3
   3317   3321   3323   3326     1  0.0000000  0.6508444  3
   3318   3315   3317   3321     1  0.0000000  0.6508444  3
   3318   3315   3317   3319     1  0.0000000  0.6508444  3
   3318   3315   3317   3320     1  0.0000000  0.6508444  3
   3319   3317   3321   3322     1  0.0000000  0.6508444  3
   3319   3317   3321   3323     1  0.0000000  0.6508444  3
   3319   3317   3321   3342     1  0.0000000  0.6508444  3
   3320   3317   3321   3322     1  0.0000000  0.6508444  3
   3320   3317   3321   3323     1  0.0000000  0.6508444  3
   3320   3317   3321   3342     1  0.0000000  0.6508444  3
   3321   3322   3334   3335     1  0.0000000  0.6508444  3
   3321   3322   3334   3336     1  0.0000000  0.6508444  3
   3321   3323   3325   3327     1  0.0000000  0.6508444  3
   3321   3323   3325   3328     1  0.0000000  0.6508444  3
   3322   3321   3323   3324     1  0.0000000  0.6508444  3
   3322   3321   3323   3326     1  0.0000000  0.6508444  3
   3323   3321   3322   3332     1  0.0000000  0.6508444  3
   3323   3321   3322   3333     1  0.0000000  0.6508444  3
   3324   3323   3325   3329     1  0.0000000  0.6508444  3
   3324   3323   3325   3327     1  0.0000000  0.6508444  3
   3324   3323   3325   3328     1  0.0000000  0.6508444  3
   3324   3323   3321   3342     1  0.0000000  0.6508444  3
   3325   3329   3330   3340     1  180.0000771  9.6232000  2
   3325   3323   3321   3342     1  0.0000000  0.6508444  3
   3326   3323   3325   3329     1  0.0000000  0.6508444  3
   3326   3323   3325   3327     1  0.0000000  0.6508444  3
   3326   3323   3325   3328     1  0.0000000  0.6508444  3
   3326   3323   3321   3342     1  0.0000000  0.6508444  3
   3327   3325   3329   3330     1  180.0000771  0.0000000  2
   3327   3325   3329   3331     1  0.0000000  3.3472000  1
   3327   3325   3329   3331     1  0.0000000  0.0000000  2
   3327   3325   3329   3331     1  180.0000771  0.3347200  3
   3328   3325   3329   3330     1  180.0000771  0.0000000  2
   3328   3325   3329   3331     1  0.0000000  3.3472000  1
   3328   3325   3329   3331     1  0.0000000  0.0000000  2
   3328   3325   3329   3331     1  180.0000771  0.3347200  3
   3331   3329   3330   3340     1  0.0000000  7.9496000  1
   3331   3329   3330   3340     1  180.0000771  9.6232000  2
   3332   3322   3334   3337     1  0.0000000  0.6508444  3
   3332   3322   3334   3335     1  0.0000000  0.6508444  3
   3332   3322   3334   3336     1  0.0000000  0.6508444  3
   3332   3322   3321   3342     1  0.0000000  0.6508444  3
   3333   3322   3334   3337     1  0.0000000  0.6508444  3
   3333   3322   3334   3335     1  0.0000000  0.6508444  3
   3333   3322   3334   3336     1  0.0000000  0.6508444  3
   3333   3322   3321   3342     1  0.0000000  0.6508444  3
   3334   3337   3339   3341     1  180.0000771  9.6232000  2
   3334   3322   3321   3342     1  0.0000000  0.6508444  3
   3335   3334   3337   3338     1  0.0000000  3.3472000  1
   3335   3334   3337   3338     1  0.0000000  0.0000000  2
   3335   3334   3337   3338     1  180.0000771  0.3347200  3
   3335   3334   3337   3339     1  180.0000771  0.0000000  2
   3336   3334   3337   3338     1  0.0000000  3.3472000  1
   3336   3334   3337   3338     1  0.0000000  0.0000000  2
   3336   3334   3337   3338     1  180.0000771  0.3347200  3
   3336   3334   3337   3339     1  180.0000771  0.0000000  2
   3338   3337   3339   3341     1  0.0000000  7.9496000  1
   3338   3337   3339   3341     1  180.0000771  9.6232000  2
   3343   3345   3347   3349     1  0.0000000  0.6508444  3
   3343   3345   3347   3350     1  0.0000000  0.6508444  3
   3344   3343   3345   3347     1  0.0000000  0.0000000  2
   3344   3343   3345   3346     1  0.0000000  0.0000000  2
   3344   3343   3345   3348     1  0.0000000  0.0000000  2
   3345   3347   3351   3372     1  0.0000000  0.6508444  3
   3346   3345   3347   3351     1  0.0000000  0.6508444  3
   3346   3345   3347   3349     1  0.0000000  0.6508444  3
   3346   3345   3347   3350     1  0.0000000  0.6508444  3
   3347   3351   3352   3362     1  0.0000000  0.6508444  3
   3347   3351   3352   3363     1  0.0000000  0.6508444  3
   3347   3351   3353   3354     1  0.0000000  0.6508444  3
   3347   3351   3353   3356     1  0.0000000  0.6508444  3
   3348   3345   3347   3351     1  0.0000000  0.6508444  3
   3348   3345   3347   3349     1  0.0000000  0.6508444  3
   3348   3345   3347   3350     1  0.0000000  0.6508444  3
   3349   3347   3351   3352     1  0.0000000  0.6508444  3
   3349   3347   3351   3353     1  0.0000000  0.6508444  3
   3349   3347   3351   3372     1  0.0000000  0.6508444  3
   3350   3347   3351   3352     1  0.0000000  0.6508444  3
   3350   3347   3351   3353     1  0.0000000  0.6508444  3
   3350   3347   3351   3372     1  0.0000000  0.6508444  3
   3351   3352   3364   3365     1  0.0000000  0.6508444  3
   3351   3352   3364   3366     1  0.0000000  0.6508444  3
   3351   3353   3355   3357     1  0.0000000  0.6508444  3
   3351   3353   3355   3358     1  0.0000000  0.6508444  3
   3352   3351   3353   3354     1  0.0000000  0.6508444  3
   3352   3351   3353   3356     1  0.0000000  0.6508444  3
   3353   3351   3352   3362     1  0.0000000  0.6508444  3
   3353   3351   3352   3363     1  0.0000000  0.6508444  3
   3354   3353   3351   3372     1  0.0000000  0.6508444  3
   3354   3353   3355   3359     1  0.0000000  0.6508444  3
   3354   3353   3355   3357     1  0.0000000  0.6508444  3
   3354   3353   3355   3358     1  0.0000000  0.6508444  3
   3355   3353   3351   3372     1  0.0000000  0.6508444  3
   3355   3359   3360   3370     1  180.0000771  9.6232000  2
   3356   3353   3351   3372     1  0.0000000  0.6508444  3
   3356   3353   3355   3359     1  0.0000000  0.6508444  3
   3356   3353   3355   3357     1  0.0000000  0.6508444  3
   3356   3353   3355   3358     1  0.0000000  0.6508444  3
   3357   3355   3359   3360     1  180.0000771  0.0000000  2
   3357   3355   3359   3361     1  0.0000000  3.3472000  1
   3357   3355   3359   3361     1  0.0000000  0.0000000  2
   3357   3355   3359   3361     1  180.0000771  0.3347200  3
   3358   3355   3359   3360     1  180.0000771  0.0000000  2
   3358   3355   3359   3361     1  0.0000000  3.3472000  1
   3358   3355   3359   3361     1  0.0000000  0.0000000  2
   3358   3355   3359   3361     1  180.0000771  0.3347200  3
   3361   3359   3360   3370     1  0.0000000  7.9496000  1
   3361   3359   3360   3370     1  180.0000771  9.6232000  2
   3362   3352   3351   3372     1  0.0000000  0.6508444  3
   3362   3352   3364   3367     1  0.0000000  0.6508444  3
   3362   3352   3364   3365     1  0.0000000  0.6508444  3
   3362   3352   3364   3366     1  0.0000000  0.6508444  3
   3363   3352   3351   3372     1  0.0000000  0.6508444  3
   3363   3352   3364   3367     1  0.0000000  0.6508444  3
   3363   3352   3364   3365     1  0.0000000  0.6508444  3
   3363   3352   3364   3366     1  0.0000000  0.6508444  3
   3364   3352   3351   3372     1  0.0000000  0.6508444  3
   3364   3367   3369   3371     1  180.0000771  9.6232000  2
   3365   3364   3367   3368     1  0.0000000  3.3472000  1
   3365   3364   3367   3368     1  0.0000000  0.0000000  2
   3365   3364   3367   3368     1  180.0000771  0.3347200  3
   3365   3364   3367   3369     1  180.0000771  0.0000000  2
   3366   3364   3367   3368     1  0.0000000  3.3472000  1
   3366   3364   3367   3368     1  0.0000000  0.0000000  2
   3366   3364   3367   3368     1  180.0000771  0.3347200  3
   3366   3364   3367   3369     1  180.0000771  0.0000000  2
   3368   3367   3369   3371     1  0.0000000  7.9496000  1
   3368   3367   3369   3371     1  180.0000771  9.6232000  2
   3373   3375   3377   3379     1  0.0000000  0.6508444  3
   3373   3375   3377   3380     1  0.0000000  0.6508444  3
   3374   3373   3375   3377     1  0.0000000  0.0000000  2
   3374   3373   3375   3376     1  0.0000000  0.0000000  2
   3374   3373   3375   3378     1  0.0000000  0.0000000  2
   3375   3377   3381   3402     1  0.0000000  0.6508444  3
   3376   3375   3377   3381     1  0.0000000  0.6508444  3
   3376   3375   3377   3379     1  0.0000000  0.6508444  3
   3376   3375   3377   3380     1  0.0000000  0.6508444  3
   3377   3381   3382   3392     1  0.0000000  0.6508444  3
   3377   3381   3382   3393     1  0.0000000  0.6508444  3
   3377   3381   3383   3384     1  0.0000000  0.6508444  3
   3377   3381   3383   3386     1  0.0000000  0.6508444  3
   3378   3375   3377   3381     1  0.0000000  0.6508444  3
   3378   3375   3377   3379     1  0.0000000  0.6508444  3
   3378   3375   3377   3380     1  0.0000000  0.6508444  3
   3379   3377   3381   3382     1  0.0000000  0.6508444  3
   3379   3377   3381   3383     1  0.0000000  0.6508444  3
   3379   3377   3381   3402     1  0.0000000  0.6508444  3
   3380   3377   3381   3382     1  0.0000000  0.6508444  3
   3380   3377   3381   3383     1  0.0000000  0.6508444  3
   3380   3377   3381   3402     1  0.0000000  0.6508444  3
   3381   3382   3394   3395     1  0.0000000  0.6508444  3
   3381   3382   3394   3396     1  0.0000000  0.6508444  3
   3381   3383   3385   3387     1  0.0000000  0.6508444  3
   3381   3383   3385   3388     1  0.0000000  0.6508444  3
   3382   3381   3383   3384     1  0.0000000  0.6508444  3
   3382   3381   3383   3386     1  0.0000000  0.6508444  3
   3383   3381   3382   3392     1  0.0000000  0.6508444  3
   3383   3381   3382   3393     1  0.0000000  0.6508444  3
   3384   3383   3385   3389     1  0.0000000  0.6508444  3
   3384   3383   3385   3387     1  0.0000000  0.6508444  3
   3384   3383   3385   3388     1  0.0000000  0.6508444  3
   3384   3383   3381   3402     1  0.0000000  0.6508444  3
   3385   3389   3390   3400     1  180.0000771  9.6232000  2
   3385   3383   3381   3402     1  0.0000000  0.6508444  3
   3386   3383   3385   3389     1  0.0000000  0.6508444  3
   3386   3383   3385   3387     1  0.0000000  0.6508444  3
   3386   3383   3385   3388     1  0.0000000  0.6508444  3
   3386   3383   3381   3402     1  0.0000000  0.6508444  3
   3387   3385   3389   3390     1  180.0000771  0.0000000  2
   3387   3385   3389   3391     1  0.0000000  3.3472000  1
   3387   3385   3389   3391     1  0.0000000  0.0000000  2
   3387   3385   3389   3391     1  180.0000771  0.3347200  3
   3388   3385   3389   3390     1  180.0000771  0.0000000  2
   3388   3385   3389   3391     1  0.0000000  3.3472000  1
   3388   3385   3389   3391     1  0.0000000  0.0000000  2
   3388   3385   3389   3391     1  180.0000771  0.3347200  3
   3391   3389   3390   3400     1  0.0000000  7.9496000  1
   3391   3389   3390   3400     1  180.0000771  9.6232000  2
   3392   3382   3394   3397     1  0.0000000  0.6508444  3
   3392   3382   3394   3395     1  0.0000000  0.6508444  3
   3392   3382   3394   3396     1  0.0000000  0.6508444  3
   3392   3382   3381   3402     1  0.0000000  0.6508444  3
   3393   3382   3394   3397     1  0.0000000  0.6508444  3
   3393   3382   3394   3395     1  0.0000000  0.6508444  3
   3393   3382   3394   3396     1  0.0000000  0.6508444  3
   3393   3382   3381   3402     1  0.0000000  0.6508444  3
   3394   3397   3399   3401     1  180.0000771  9.6232000  2
   3394   3382   3381   3402     1  0.0000000  0.6508444  3
   3395   3394   3397   3398     1  0.0000000  3.3472000  1
   3395   3394   3397   3398     1  0.0000000  0.0000000  2
   3395   3394   3397   3398     1  180.0000771  0.3347200  3
   3395   3394   3397   3399     1  180.0000771  0.0000000  2
   3396   3394   3397   3398     1  0.0000000  3.3472000  1
   3396   3394   3397   3398     1  0.0000000  0.0000000  2
   3396   3394   3397   3398     1  180.0000771  0.3347200  3
   3396   3394   3397   3399     1  180.0000771  0.0000000  2
   3398   3397   3399   3401     1  0.0000000  7.9496000  1
   3398   3397   3399   3401     1  180.0000771  9.6232000  2
   3403   3405   3407   3409     1  0.0000000  0.6508444  3
   3403   3405   3407   3410     1  0.0000000  0.6508444  3
   3404   3403   3405   3407     1  0.0000000  0.0000000  2
   3404   3403   3405   3406     1  0.0000000  0.0000000  2
   3404   3403   3405   3408     1  0.0000000  0.0000000  2
   3405   3407   3411   3432     1  0.0000000  0.6508444  3
   3406   3405   3407   3411     1  0.0000000  0.6508444  3
   3406   3405   3407   3409     1  0.0000000  0.6508444  3
   3406   3405   3407   3410     1  0.0000000  0.6508444  3
   3407   3411   3412   3422     1  0.0000000  0.6508444  3
   3407   3411   3412   3423     1  0.0000000  0.6508444  3
   3407   3411   3413   3414     1  0.0000000  0.6508444  3
   3407   3411   3413   3416     1  0.0000000  0.6508444  3
   3408   3405   3407   3411     1  0.0000000  0.6508444  3
   3408   3405   3407   3409     1  0.0000000  0.6508444  3
   3408   3405   3407   3410     1  0.0000000  0.6508444  3
   3409   3407   3411   3412     1  0.0000000  0.6508444  3
   3409   3407   3411   3413     1  0.0000000  0.6508444  3
   3409   3407   3411   3432     1  0.0000000  0.6508444  3
   3410   3407   3411   3412     1  0.0000000  0.6508444  3
   3410   3407   3411   3413     1  0.0000000  0.6508444  3
   3410   3407   3411   3432     1  0.0000000  0.6508444  3
   3411   3412   3424   3425     1  0.0000000  0.6508444  3
   3411   3412   3424   3426     1  0.0000000  0.6508444  3
   3411   3413   3415   3417     1  0.0000000  0.6508444  3
   3411   3413   3415   3418     1  0.0000000  0.6508444  3
   3412   3411   3413   3414     1  0.0000000  0.6508444  3
   3412   3411   3413   3416     1  0.0000000  0.6508444  3
   3413   3411   3412   3422     1  0.0000000  0.6508444  3
   3413   3411   3412   3423     1  0.0000000  0.6508444  3
   3414   3413   3411   3432     1  0.0000000  0.6508444  3
   3414   3413   3415   3419     1  0.0000000  0.6508444  3
   3414   3413   3415   3417     1  0.0000000  0.6508444  3
   3414   3413   3415   3418     1  0.0000000  0.6508444  3
   3415   3413   3411   3432     1  0.0000000  0.6508444  3
   3415   3419   3420   3430     1  180.0000771  9.6232000  2
   3416   3413   3411   3432     1  0.0000000  0.6508444  3
   3416   3413   3415   3419     1  0.0000000  0.6508444  3
   3416   3413   3415   3417     1  0.0000000  0.6508444  3
   3416   3413   3415   3418     1  0.0000000  0.6508444  3
   3417   3415   3419   3420     1  180.0000771  0.0000000  2
   3417   3415   3419   3421     1  0.0000000  3.3472000  1
   3417   3415   3419   3421     1  0.0000000  0.0000000  2
   3417   3415   3419   3421     1  180.0000771  0.3347200  3
   3418   3415   3419   3420     1  180.0000771  0.0000000  2
   3418   3415   3419   3421     1  0.0000000  3.3472000  1
   3418   3415   3419   3421     1  0.0000000  0.0000000  2
   3418   3415   3419   3421     1  180.0000771  0.3347200  3
   3421   3419   3420   3430     1  0.0000000  7.9496000  1
   3421   3419   3420   3430     1  180.0000771  9.6232000  2
   3422   3412   3411   3432     1  0.0000000  0.6508444  3
   3422   3412   3424   3427     1  0.0000000  0.6508444  3
   3422   3412   3424   3425     1  0.0000000  0.6508444  3
   3422   3412   3424   3426     1  0.0000000  0.6508444  3
   3423   3412   3411   3432     1  0.0000000  0.6508444  3
   3423   3412   3424   3427     1  0.0000000  0.6508444  3
   3423   3412   3424   3425     1  0.0000000  0.6508444  3
   3423   3412   3424   3426     1  0.0000000  0.6508444  3
   3424   3412   3411   3432     1  0.0000000  0.6508444  3
   3424   3427   3429   3431     1  180.0000771  9.6232000  2
   3425   3424   3427   3428     1  0.0000000  3.3472000  1
   3425   3424   3427   3428     1  0.0000000  0.0000000  2
   3425   3424   3427   3428     1  180.0000771  0.3347200  3
   3425   3424   3427   3429     1  180.0000771  0.0000000  2
   3426   3424   3427   3428     1  0.0000000  3.3472000  1
   3426   3424   3427   3428     1  0.0000000  0.0000000  2
   3426   3424   3427   3428     1  180.0000771  0.3347200  3
   3426   3424   3427   3429     1  180.0000771  0.0000000  2
   3428   3427   3429   3431     1  0.0000000  7.9496000  1
   3428   3427   3429   3431     1  180.0000771  9.6232000  2
   3433   3435   3437   3439     1  0.0000000  0.6508444  3
   3433   3435   3437   3440     1  0.0000000  0.6508444  3
   3434   3433   3435   3437     1  0.0000000  0.0000000  2
   3434   3433   3435   3436     1  0.0000000  0.0000000  2
   3434   3433   3435   3438     1  0.0000000  0.0000000  2
   3435   3437   3441   3462     1  0.0000000  0.6508444  3
   3436   3435   3437   3441     1  0.0000000  0.6508444  3
   3436   3435   3437   3439     1  0.0000000  0.6508444  3
   3436   3435   3437   3440     1  0.0000000  0.6508444  3
   3437   3441   3442   3452     1  0.0000000  0.6508444  3
   3437   3441   3442   3453     1  0.0000000  0.6508444  3
   3437   3441   3443   3444     1  0.0000000  0.6508444  3
   3437   3441   3443   3446     1  0.0000000  0.6508444  3
   3438   3435   3437   3441     1  0.0000000  0.6508444  3
   3438   3435   3437   3439     1  0.0000000  0.6508444  3
   3438   3435   3437   3440     1  0.0000000  0.6508444  3
   3439   3437   3441   3442     1  0.0000000  0.6508444  3
   3439   3437   3441   3443     1  0.0000000  0.6508444  3
   3439   3437   3441   3462     1  0.0000000  0.6508444  3
   3440   3437   3441   3442     1  0.0000000  0.6508444  3
   3440   3437   3441   3443     1  0.0000000  0.6508444  3
   3440   3437   3441   3462     1  0.0000000  0.6508444  3
   3441   3442   3454   3455     1  0.0000000  0.6508444  3
   3441   3442   3454   3456     1  0.0000000  0.6508444  3
   3441   3443   3445   3447     1  0.0000000  0.6508444  3
   3441   3443   3445   3448     1  0.0000000  0.6508444  3
   3442   3441   3443   3444     1  0.0000000  0.6508444  3
   3442   3441   3443   3446     1  0.0000000  0.6508444  3
   3443   3441   3442   3452     1  0.0000000  0.6508444  3
   3443   3441   3442   3453     1  0.0000000  0.6508444  3
   3444   3443   3445   3449     1  0.0000000  0.6508444  3
   3444   3443   3445   3447     1  0.0000000  0.6508444  3
   3444   3443   3445   3448     1  0.0000000  0.6508444  3
   3444   3443   3441   3462     1  0.0000000  0.6508444  3
   3445   3449   3450   3460     1  180.0000771  9.6232000  2
   3445   3443   3441   3462     1  0.0000000  0.6508444  3
   3446   3443   3445   3449     1  0.0000000  0.6508444  3
   3446   3443   3445   3447     1  0.0000000  0.6508444  3
   3446   3443   3445   3448     1  0.0000000  0.6508444  3
   3446   3443   3441   3462     1  0.0000000  0.6508444  3
   3447   3445   3449   3450     1  180.0000771  0.0000000  2
   3447   3445   3449   3451     1  0.0000000  3.3472000  1
   3447   3445   3449   3451     1  0.0000000  0.0000000  2
   3447   3445   3449   3451     1  180.0000771  0.3347200  3
   3448   3445   3449   3450     1  180.0000771  0.0000000  2
   3448   3445   3449   3451     1  0.0000000  3.3472000  1
   3448   3445   3449   3451     1  0.0000000  0.0000000  2
   3448   3445   3449   3451     1  180.0000771  0.3347200  3
   3451   3449   3450   3460     1  0.0000000  7.9496000  1
   3451   3449   3450   3460     1  180.0000771  9.6232000  2
   3452   3442   3454   3457     1  0.0000000  0.6508444  3
   3452   3442   3454   3455     1  0.0000000  0.6508444  3
   3452   3442   3454   3456     1  0.0000000  0.6508444  3
   3452   3442   3441   3462     1  0.0000000  0.6508444  3
   3453   3442   3454   3457     1  0.0000000  0.6508444  3
   3453   3442   3454   3455     1  0.0000000  0.6508444  3
   3453   3442   3454   3456     1  0.0000000  0.6508444  3
   3453   3442   3441   3462     1  0.0000000  0.6508444  3
   3454   3457   3459   3461     1  180.0000771  9.6232000  2
   3454   3442   3441   3462     1  0.0000000  0.6508444  3
   3455   3454   3457   3458     1  0.0000000  3.3472000  1
   3455   3454   3457   3458     1  0.0000000  0.0000000  2
   3455   3454   3457   3458     1  180.0000771  0.3347200  3
   3455   3454   3457   3459     1  180.0000771  0.0000000  2
   3456   3454   3457   3458     1  0.0000000  3.3472000  1
   3456   3454   3457   3458     1  0.0000000  0.0000000  2
   3456   3454   3457   3458     1  180.0000771  0.3347200  3
   3456   3454   3457   3459     1  180.0000771  0.0000000  2
   3458   3457   3459   3461     1  0.0000000  7.9496000  1
   3458   3457   3459   3461     1  180.0000771  9.6232000  2
   3463   3465   3467   3469     1  0.0000000  0.6508444  3
   3463   3465   3467   3470     1  0.0000000  0.6508444  3
   3464   3463   3465   3467     1  0.0000000  0.0000000  2
   3464   3463   3465   3466     1  0.0000000  0.0000000  2
   3464   3463   3465   3468     1  0.0000000  0.0000000  2
   3465   3467   3471   3492     1  0.0000000  0.6508444  3
   3466   3465   3467   3471     1  0.0000000  0.6508444  3
   3466   3465   3467   3469     1  0.0000000  0.6508444  3
   3466   3465   3467   3470     1  0.0000000  0.6508444  3
   3467   3471   3472   3482     1  0.0000000  0.6508444  3
   3467   3471   3472   3483     1  0.0000000  0.6508444  3
   3467   3471   3473   3474     1  0.0000000  0.6508444  3
   3467   3471   3473   3476     1  0.0000000  0.6508444  3
   3468   3465   3467   3471     1  0.0000000  0.6508444  3
   3468   3465   3467   3469     1  0.0000000  0.6508444  3
   3468   3465   3467   3470     1  0.0000000  0.6508444  3
   3469   3467   3471   3472     1  0.0000000  0.6508444  3
   3469   3467   3471   3473     1  0.0000000  0.6508444  3
   3469   3467   3471   3492     1  0.0000000  0.6508444  3
   3470   3467   3471   3472     1  0.0000000  0.6508444  3
   3470   3467   3471   3473     1  0.0000000  0.6508444  3
   3470   3467   3471   3492     1  0.0000000  0.6508444  3
   3471   3472   3484   3485     1  0.0000000  0.6508444  3
   3471   3472   3484   3486     1  0.0000000  0.6508444  3
   3471   3473   3475   3477     1  0.0000000  0.6508444  3
   3471   3473   3475   3478     1  0.0000000  0.6508444  3
   3472   3471   3473   3474     1  0.0000000  0.6508444  3
   3472   3471   3473   3476     1  0.0000000  0.6508444  3
   3473   3471   3472   3482     1  0.0000000  0.6508444  3
   3473   3471   3472   3483     1  0.0000000  0.6508444  3
   3474   3473   3471   3492     1  0.0000000  0.6508444  3
   3474   3473   3475   3479     1  0.0000000  0.6508444  3
   3474   3473   3475   3477     1  0.0000000  0.6508444  3
   3474   3473   3475   3478     1  0.0000000  0.6508444  3
   3475   3473   3471   3492     1  0.0000000  0.6508444  3
   3475   3479   3480   3490     1  180.0000771  9.6232000  2
   3476   3473   3471   3492     1  0.0000000  0.6508444  3
   3476   3473   3475   3479     1  0.0000000  0.6508444  3
   3476   3473   3475   3477     1  0.0000000  0.6508444  3
   3476   3473   3475   3478     1  0.0000000  0.6508444  3
   3477   3475   3479   3480     1  180.0000771  0.0000000  2
   3477   3475   3479   3481     1  0.0000000  3.3472000  1
   3477   3475   3479   3481     1  0.0000000  0.0000000  2
   3477   3475   3479   3481     1  180.0000771  0.3347200  3
   3478   3475   3479   3480     1  180.0000771  0.0000000  2
   3478   3475   3479   3481     1  0.0000000  3.3472000  1
   3478   3475   3479   3481     1  0.0000000  0.0000000  2
   3478   3475   3479   3481     1  180.0000771  0.3347200  3
   3481   3479   3480   3490     1  0.0000000  7.9496000  1
   3481   3479   3480   3490     1  180.0000771  9.6232000  2
   3482   3472   3471   3492     1  0.0000000  0.6508444  3
   3482   3472   3484   3487     1  0.0000000  0.6508444  3
   3482   3472   3484   3485     1  0.0000000  0.6508444  3
   3482   3472   3484   3486     1  0.0000000  0.6508444  3
   3483   3472   3471   3492     1  0.0000000  0.6508444  3
   3483   3472   3484   3487     1  0.0000000  0.6508444  3
   3483   3472   3484   3485     1  0.0000000  0.6508444  3
   3483   3472   3484   3486     1  0.0000000  0.6508444  3
   3484   3472   3471   3492     1  0.0000000  0.6508444  3
   3484   3487   3489   3491     1  180.0000771  9.6232000  2
   3485   3484   3487   3488     1  0.0000000  3.3472000  1
   3485   3484   3487   3488     1  0.0000000  0.0000000  2
   3485   3484   3487   3488     1  180.0000771  0.3347200  3
   3485   3484   3487   3489     1  180.0000771  0.0000000  2
   3486   3484   3487   3488     1  0.0000000  3.3472000  1
   3486   3484   3487   3488     1  0.0000000  0.0000000  2
   3486   3484   3487   3488     1  180.0000771  0.3347200  3
   3486   3484   3487   3489     1  180.0000771  0.0000000  2
   3488   3487   3489   3491     1  0.0000000  7.9496000  1
   3488   3487   3489   3491     1  180.0000771  9.6232000  2
   3493   3495   3497   3499     1  0.0000000  0.6508444  3
   3493   3495   3497   3500     1  0.0000000  0.6508444  3
   3494   3493   3495   3497     1  0.0000000  0.0000000  2
   3494   3493   3495   3496     1  0.0000000  0.0000000  2
   3494   3493   3495   3498     1  0.0000000  0.0000000  2
   3495   3497   3501   3522     1  0.0000000  0.6508444  3
   3496   3495   3497   3501     1  0.0000000  0.6508444  3
   3496   3495   3497   3499     1  0.0000000  0.6508444  3
   3496   3495   3497   3500     1  0.0000000  0.6508444  3
   3497   3501   3502   3512     1  0.0000000  0.6508444  3
   3497   3501   3502   3513     1  0.0000000  0.6508444  3
   3497   3501   3503   3504     1  0.0000000  0.6508444  3
   3497   3501   3503   3506     1  0.0000000  0.6508444  3
   3498   3495   3497   3501     1  0.0000000  0.6508444  3
   3498   3495   3497   3499     1  0.0000000  0.6508444  3
   3498   3495   3497   3500     1  0.0000000  0.6508444  3
   3499   3497   3501   3502     1  0.0000000  0.6508444  3
   3499   3497   3501   3503     1  0.0000000  0.6508444  3
   3499   3497   3501   3522     1  0.0000000  0.6508444  3
   3500   3497   3501   3502     1  0.0000000  0.6508444  3
   3500   3497   3501   3503     1  0.0000000  0.6508444  3
   3500   3497   3501   3522     1  0.0000000  0.6508444  3
   3501   3502   3514   3515     1  0.0000000  0.6508444  3
   3501   3502   3514   3516     1  0.0000000  0.6508444  3
   3501   3503   3505   3507     1  0.0000000  0.6508444  3
   3501   3503   3505   3508     1  0.0000000  0.6508444  3
   3502   3501   3503   3504     1  0.0000000  0.6508444  3
   3502   3501   3503   3506     1  0.0000000  0.6508444  3
   3503   3501   3502   3512     1  0.0000000  0.6508444  3
   3503   3501   3502   3513     1  0.0000000  0.6508444  3
   3504   3503   3505   3509     1  0.0000000  0.6508444  3
   3504   3503   3505   3507     1  0.0000000  0.6508444  3
   3504   3503   3505   3508     1  0.0000000  0.6508444  3
   3504   3503   3501   3522     1  0.0000000  0.6508444  3
   3505   3509   3510   3520     1  180.0000771  9.6232000  2
   3505   3503   3501   3522     1  0.0000000  0.6508444  3
   3506   3503   3505   3509     1  0.0000000  0.6508444  3
   3506   3503   3505   3507     1  0.0000000  0.6508444  3
   3506   3503   3505   3508     1  0.0000000  0.6508444  3
   3506   3503   3501   3522     1  0.0000000  0.6508444  3
   3507   3505   3509   3510     1  180.0000771  0.0000000  2
   3507   3505   3509   3511     1  0.0000000  3.3472000  1
   3507   3505   3509   3511     1  0.0000000  0.0000000  2
   3507   3505   3509   3511     1  180.0000771  0.3347200  3
   3508   3505   3509   3510     1  180.0000771  0.0000000  2
   3508   3505   3509   3511     1  0.0000000  3.3472000  1
   3508   3505   3509   3511     1  0.0000000  0.0000000  2
   3508   3505   3509   3511     1  180.0000771  0.3347200  3
   3511   3509   3510   3520     1  0.0000000  7.9496000  1
   3511   3509   3510   3520     1  180.0000771  9.6232000  2
   3512   3502   3514   3517     1  0.0000000  0.6508444  3
   3512   3502   3514   3515     1  0.0000000  0.6508444  3
   3512   3502   3514   3516     1  0.0000000  0.6508444  3
   3512   3502   3501   3522     1  0.0000000  0.6508444  3
   3513   3502   3514   3517     1  0.0000000  0.6508444  3
   3513   3502   3514   3515     1  0.0000000  0.6508444  3
   3513   3502   3514   3516     1  0.0000000  0.6508444  3
   3513   3502   3501   3522     1  0.0000000  0.6508444  3
   3514   3517   3519   3521     1  180.0000771  9.6232000  2
   3514   3502   3501   3522     1  0.0000000  0.6508444  3
   3515   3514   3517   3518     1  0.0000000  3.3472000  1
   3515   3514   3517   3518     1  0.0000000  0.0000000  2
   3515   3514   3517   3518     1  180.0000771  0.3347200  3
   3515   3514   3517   3519     1  180.0000771  0.0000000  2
   3516   3514   3517   3518     1  0.0000000  3.3472000  1
   3516   3514   3517   3518     1  0.0000000  0.0000000  2
   3516   3514   3517   3518     1  180.0000771  0.3347200  3
   3516   3514   3517   3519     1  180.0000771  0.0000000  2
   3518   3517   3519   3521     1  0.0000000  7.9496000  1
   3518   3517   3519   3521     1  180.0000771  9.6232000  2
     10     51     52     67     4  180.0000771  4.6024000  2
     12     77     78     93     4  180.0000771  4.6024000  2
     14    103    104    119     4  180.0000771  4.6024000  2
     16    129    130    145     4  180.0000771  4.6024000  2
     47    155    156    171     4  180.0000771  4.6024000  2
     49    181    182    197     4  180.0000771  4.6024000  2
     73    207    208    223     4  180.0000771  4.6024000  2
     75    233    234    249     4  180.0000771  4.6024000  2
     99    259    260    275     4  180.0000771  4.6024000  2
    101    285    286    301     4  180.0000771  4.6024000  2
    125    311    312    327     4  180.0000771  4.6024000  2
    127    337    338    353     4  180.0000771  4.6024000  2
    151    363    364    379     4  180.0000771  4.6024000  2
    153    389    390    405     4  180.0000771  4.6024000  2
    177    415    416    431     4  180.0000771  4.6024000  2
    179    441    442    457     4  180.0000771  4.6024000  2
    203    467    468    483     4  180.0000771  4.6024000  2
    205    493    494    509     4  180.0000771  4.6024000  2
    229    519    520    535     4  180.0000771  4.6024000  2
    231    545    546    561     4  180.0000771  4.6024000  2
    255    571    572    587     4  180.0000771  4.6024000  2
    257    597    598    613     4  180.0000771  4.6024000  2
    281    623    624    639     4  180.0000771  4.6024000  2
    283    649    650    665     4  180.0000771  4.6024000  2
    307    675    676    691     4  180.0000771  4.6024000  2
    309    701    702    717     4  180.0000771  4.6024000  2
    333    727    728    743     4  180.0000771  4.6024000  2
    335    753    754    769     4  180.0000771  4.6024000  2
    359    779    780    795     4  180.0000771  4.6024000  2
    361    805    806    821     4  180.0000771  4.6024000  2
    385    831    832    847     4  180.0000771  4.6024000  2
    387    857    858    873     4  180.0000771  4.6024000  2
    411    883    884    899     4  180.0000771  4.6024000  2
    413    909    910    925     4  180.0000771  4.6024000  2
    437    935    936    951     4  180.0000771  4.6024000  2
    439    961    962    977     4  180.0000771  4.6024000  2
    463    987    988   1003     4  180.0000771  4.6024000  2
    465   1013   1014   1029     4  180.0000771  4.6024000  2
    489   1039   1040   1055     4  180.0000771  4.6024000  2
    491   1065   1066   1081     4  180.0000771  4.6024000  2
    515   1091   1092   1107     4  180.0000771  4.6024000  2
    517   1117   1118   1133     4  180.0000771  4.6024000  2
    541   1143   1144   1159     4  180.0000771  4.6024000  2
    543   1169   1170   1185     4  180.0000771  4.6024000  2
    567   1195   1196   1211     4  180.0000771  4.6024000  2
    569   1221   1222   1237     4  180.0000771  4.6024000  2
    593   1247   1248   1263     4  180.0000771  4.6024000  2
    595   1273   1274   1289     4  180.0000771  4.6024000  2
    619   1299   1300   1315     4  180.0000771  4.6024000  2
    621   1325   1326   1341     4  180.0000771  4.6024000  2
    645   1351   1352   1367     4  180.0000771  4.6024000  2
    647   1377   1378   1393     4  180.0000771  4.6024000  2
    671   1403   1404   1419     4  180.0000771  4.6024000  2
    673   1429   1430   1445     4  180.0000771  4.6024000  2
    697   1455   1456   1471     4  180.0000771  4.6024000  2
    699   1481   1482   1497     4  180.0000771  4.6024000  2
    723   1507   1508   1523     4  180.0000771  4.6024000  2
    725   1533   1534   1549     4  180.0000771  4.6024000  2
    749   1559   1560   1575     4  180.0000771  4.6024000  2
    751   1585   1586   1601     4  180.0000771  4.6024000  2
    775   1605   1603   1604     4  180.0000771  4.6024000  2
    777   1635   1633   1634     4  180.0000771  4.6024000  2
    801   1665   1663   1664     4  180.0000771  4.6024000  2
    803   1695   1693   1694     4  180.0000771  4.6024000  2
    827   1725   1723   1724     4  180.0000771  4.6024000  2
    829   1755   1753   1754     4  180.0000771  4.6024000  2
    853   1785   1783   1784     4  180.0000771  4.6024000  2
    855   1815   1813   1814     4  180.0000771  4.6024000  2
    879   1845   1843   1844     4  180.0000771  4.6024000  2
    881   1875   1873   1874     4  180.0000771  4.6024000  2
    905   1905   1903   1904     4  180.0000771  4.6024000  2
    907   1935   1933   1934     4  180.0000771  4.6024000  2
    931   1965   1963   1964     4  180.0000771  4.6024000  2
    933   1995   1993   1994     4  180.0000771  4.6024000  2
    957   2025   2023   2024     4  180.0000771  4.6024000  2
    959   2055   2053   2054     4  180.0000771  4.6024000  2
    983   2085   2083   2084     4  180.0000771  4.6024000  2
    985   2115   2113   2114     4  180.0000771  4.6024000  2
   1009   2145   2143   2144     4  180.0000771  4.6024000  2
   1011   2175   2173   2174     4  180.0000771  4.6024000  2
   1035   2205   2203   2204     4  180.0000771  4.6024000  2
   1037   2235   2233   2234     4  180.0000771  4.6024000  2
   1061   2265   2263   2264     4  180.0000771  4.6024000  2
   1063   2295   2293   2294     4  180.0000771  4.6024000  2
   1087   2325   2323   2324     4  180.0000771  4.6024000  2
   1089   2355   2353   2354     4  180.0000771  4.6024000  2
   1113   2385   2383   2384     4  180.0000771  4.6024000  2
   1115   2415   2413   2414     4  180.0000771  4.6024000  2
   1139   2445   2443   2444     4  180.0000771  4.6024000  2
   1141   2475   2473   2474     4  180.0000771  4.6024000  2
   1165   2505   2503   2504     4  180.0000771  4.6024000  2
   1167   2535   2533   2534     4  180.0000771  4.6024000  2
   1191   2565   2563   2564     4  180.0000771  4.6024000  2
   1193   2595   2593   2594     4  180.0000771  4.6024000  2
   1217   2625   2623   2624     4  180.0000771  4.6024000  2
   1219   2655   2653   2654     4  180.0000771  4.6024000  2
   1243   2685   2683   2684     4  180.0000771  4.6024000  2
   1245   2715   2713   2714     4  180.0000771  4.6024000  2
   1269   2745   2743   2744     4  180.0000771  4.6024000  2
   1271   2775   2773   2774     4  180.0000771  4.6024000  2
   1295   2805   2803   2804     4  180.0000771  4.6024000  2
   1297   2835   2833   2834     4  180.0000771  4.6024000  2
   1321   2865   2863   2864     4  180.0000771  4.6024000  2
   1323   2895   2893   2894     4  180.0000771  4.6024000  2
   1347   2925   2923   2924     4  180.0000771  4.6024000  2
   1349   2955   2953   2954     4  180.0000771  4.6024000  2
   1373   2985   2983   2984     4  180.0000771  4.6024000  2
   1375   3015   3013   3014     4  180.0000771  4.6024000  2
   1399   3045   3043   3044     4  180.0000771  4.6024000  2
   1401   3075   3073   3074     4  180.0000771  4.6024000  2
   1425   3105   3103   3104     4  180.0000771  4.6024000  2
   1427   3135   3133   3134     4  180.0000771  4.6024000  2
   1451   3165   3163   3164     4  180.0000771  4.6024000  2
   1453   3195   3193   3194     4  180.0000771  4.6024000  2
   1477   3225   3223   3224     4  180.0000771  4.6024000  2
   1479   3255   3253   3254     4  180.0000771  4.6024000  2
   1503   3285   3283   3284     4  180.0000771  4.6024000  2
   1505   3315   3313   3314     4  180.0000771  4.6024000  2
   1529   3345   3343   3344     4  180.0000771  4.6024000  2
   1531   3375   3373   3374     4  180.0000771  4.6024000  2
   1555   3405   3403   3404     4  180.0000771  4.6024000  2
   1557   3435   3433   3434     4  180.0000771  4.6024000  2
   1581   3465   3463   3464     4  180.0000771  4.6024000  2
   1583   3495   3493   3494     4  180.0000771  4.6024000  2

;[ system ]
;; Name
;Generic title
;
;[ molecules ]
;; Compound       #mols
;system1              1
